
# Create simulation box of size 50 x 50 x 50 Angstrom
#
lattice	            sc 1
Lattice spacing in x,y,z = 1.0000000 1.0000000 1.0000000
region 	            all block 0 50 0 50 0 50 units box
create_box          1 all
Created orthogonal box = (0.0000000 0.0000000 0.0000000) to (50.000000 50.000000 50.000000)
  1 by 2 by 3 MPI processor grid

# fill box with 4175 randomly distributed atoms
#
create_atoms        1 random 4175 63782 all
Created 4175 atoms
  create_atoms CPU = 0.000 seconds
mass                1 18.015

# Define potential
#
pair_style          sw
pair_coeff          * * ML_mW.sw mW
Reading sw potential file ML_mW.sw with DATE: 2019-02-27

# Run minimization
#
minimize            1.0e-8 1.0e-8 10000 1000
WARNING: Using 'neigh_modify every 1 delay 0 check yes' setting during minimization (../min.cpp:187)
Neighbor list info ...
  update every 1 steps, delay 0 steps, check yes
  max neighbors/atom: 2000, page size: 100000
  master list distance cutoff = 6.0032907
  ghost atom cutoff = 6.0032907
  binsize = 3.0016454, bins = 17 17 17
  1 neighbor lists, perpetual/occasional/extra = 1 0 0
  (1) pair sw, perpetual
      attributes: full, newton on
      pair build: full/bin/atomonly
      stencil: full/bin/3d
      bin: standard
Per MPI rank memory allocation (min/avg/max) = 4.255 | 4.258 | 4.261 Mbytes
Step Temp E_pair E_mol TotEng Press 
       0            0    7792709.3            0    7792709.3    5898794.3 
     630            0   -45180.336            0   -45180.336   -154.07449 
Loop time of 1.14095 on 6 procs for 630 steps with 4175 atoms

99.1% CPU use with 6 MPI tasks x no OpenMP threads

Minimization stats:
  Stopping criterion = max force evaluations
  Energy initial, next-to-last, final = 
      7792709.32924461  -45180.0188663597   -45180.336116598
  Force two-norm initial, final = 2.0191930e+08 4.9721331
  Force max component initial, final = 1.0948746e+08 0.73126211
  Final line search alpha, max atom move = 0.053306038 0.038980685
  Iterations, force evaluations = 630 1000

MPI task timing breakdown:
Section |  min time  |  avg time  |  max time  |%varavg| %total
---------------------------------------------------------------
Pair    | 0.86917    | 0.98435    | 1.0488     |   6.4 | 86.27
Neigh   | 0.023704   | 0.024641   | 0.026078   |   0.5 |  2.16
Comm    | 0.045606   | 0.1121     | 0.22845    |  19.0 |  9.83
Output  | 0          | 0          | 0          |   0.0 |  0.00
Modify  | 0          | 0          | 0          |   0.0 |  0.00
Other   |            | 0.01986    |            |       |  1.74

Nlocal:        695.833 ave         704 max         685 min
Histogram: 1 1 0 0 1 0 0 1 0 2
Nghost:        1494.17 ave        1515 max        1468 min
Histogram: 1 1 0 0 0 0 1 1 1 1
Neighs:        0.00000 ave           0 max           0 min
Histogram: 6 0 0 0 0 0 0 0 0 0
FullNghs:      19997.0 ave       20462 max       19320 min
Histogram: 1 1 0 0 0 0 0 2 0 2

Total # of neighbors = 119982
Ave neighs/atom = 28.738204
Neighbor list builds = 26
Dangerous builds = 0

# Add velocity/set timestep
#
velocity            all create ${TEMP} 120598 rot yes dist gaussian
velocity            all create 220 120598 rot yes dist gaussian
timestep            5.0

# Define output
#
compute	            1 all msd
thermo	            100
thermo_style        custom step temp press vol etotal ke pe c_1[4] density

# Neighbor lists
#
neigh_modify        delay 0 every 1 check yes

# Set fixes
#
fix                 1 all momentum 10 linear 1 1 1 rescale
fix                 2 all nve
fix                 3 all temp/csvr ${TEMP} ${TEMP} 500.0 928347
fix                 3 all temp/csvr 220 ${TEMP} 500.0 928347
fix                 3 all temp/csvr 220 220 500.0 928347
fix                 4 all press/berendsen iso ${PRES} ${PRES} 1000.0 modulus 20000
fix                 4 all press/berendsen iso 100 ${PRES} 1000.0 modulus 20000
fix                 4 all press/berendsen iso 100 100 1000.0 modulus 20000

# Run 0.5 ns equilibration
#
dump                1 all custom 1000 eq.${NAME}.dump id type x y z vx vy vz
dump                1 all custom 1000 eq.liquid_density_MLmW.dump id type x y z vx vy vz
run                 100000
Per MPI rank memory allocation (min/avg/max) = 3.506 | 3.508 | 3.511 Mbytes
Step Temp Press Volume TotEng KinEng PotEng c_1[4] Density 
     630          220    846.92133       125000   -42443.118    2737.2183   -45180.336 2.7295415e-33   0.99914793 
     700    140.21143    48.650904    125391.04   -41602.626    1744.4968   -43347.123   0.25834124   0.99603206 
     800    174.09234   -134.84913     125357.8   -40839.368    2166.0397   -43005.408   0.60708647   0.99629614 
     900    195.94517   -24.507179    125265.58   -40424.855    2437.9304   -42862.786    1.0619911    0.9970296 
    1000    206.90568    181.88156    125388.97   -40160.248       2574.3   -42734.548    1.4553559   0.99604848 
    1100    213.74911   -37.639263    125325.39   -39981.071    2659.4452   -42640.516    1.8289003   0.99655376 
    1200    209.75703    122.14081     125222.1   -40001.284    2609.7762    -42611.06    2.1475056   0.99737583 
    1300    212.17004    224.90822    124980.59    -39966.54    2639.7987   -42606.338    2.4965068   0.99930311 
    1400    211.25636    42.582116    125048.69   -39984.038    2628.4308   -42612.468    2.8968822   0.99875886 
    1500    214.74728    231.22872     125252.1   -39924.682    2671.8644   -42596.547    3.2826807    0.9971369 
    1600    222.40626    116.38846    125258.17   -39824.667    2767.1568   -42591.824    3.5482029   0.99708862 
    1700    220.12329    29.148103    125590.42   -39862.946    2738.7522   -42601.698    3.9940625   0.99445078 
    1800    218.04022    92.189292    125696.04   -39952.042    2712.8349   -42664.877    4.4925303   0.99361517 
    1900    220.45257    237.57825    125828.99   -39955.857    2742.8491   -42698.706    4.8639046    0.9925653 
    2000    220.18139    135.64995    125950.29   -39912.146    2739.4751   -42651.621    5.2045671   0.99160941 
    2100    222.77122    16.124412    126012.89   -39877.103    2771.6975   -42648.801    5.6094134   0.99111676 
    2200    222.85801    145.82892     126191.5   -39896.001    2772.7773   -42668.779    5.9173457   0.98971399 
    2300    222.15014    27.914733    126244.16   -39889.268    2763.9701   -42653.238    6.3299504   0.98930112 
    2400     222.8346    95.904039    126237.84   -39924.388     2772.486   -42696.875    6.7160881   0.98935067 
    2500    224.39019    175.07164    126078.51   -39900.682    2791.8405   -42692.523    7.0770172   0.99060093 
    2600    226.40522    179.06373    126228.72   -39861.489    2816.9114     -42678.4    7.4261827   0.98942211 
    2700    228.13939    271.59544    126198.24    -39903.92    2838.4877   -42742.407    7.7625103   0.98966112 
    2800    224.69576    199.74632    126156.13   -39900.792    2795.6425   -42696.435    7.9951832   0.98999144 
    2900    221.32849    89.980947    126166.22   -39967.555    2753.7471   -42721.302    8.2099633   0.98991228 
    3000    221.91152    347.15978    126101.48    -40002.87    2761.0012   -42763.871    8.5209602   0.99042054 
    3100    221.29453   -76.743445    125929.52   -39978.333    2753.3247   -42731.657     8.697921   0.99177296 
    3200     218.8587    299.59082    126108.34   -40010.066    2723.0183   -42733.085    9.0070098   0.99036663 
    3300     218.5984    54.113527    126299.43   -40009.384    2719.7797   -42729.163    9.2576204   0.98886823 
    3400     222.7091    21.720028    126443.78   -40046.422    2770.9247   -42817.347    9.5669153   0.98773927 
    3500    220.31253    89.735139    126326.35   -40096.274    2741.1068    -42837.38    9.8617259   0.98865748 
    3600    218.56261    331.21945    126514.63   -40134.911    2719.3344   -42854.246    10.203694   0.98718617 
    3700    217.92986   -26.969991    126779.57   -40215.435    2711.4618   -42926.897    10.342654   0.98512317 
    3800    221.19243   0.94238607    126794.07   -40180.336    2752.0544   -42932.391    10.503917   0.98501051 
    3900     215.6517     63.47735     126748.6   -40206.333    2683.1171    -42889.45    10.893966   0.98536388 
    4000    218.61247  -0.18974538    126645.65   -40192.852    2719.9547   -42912.806     11.22382   0.98616488 
    4100    220.89291    217.26983    126708.11   -40179.952    2748.3278    -42928.28    11.578569   0.98567873 
    4200     217.5976    189.56056    126899.29   -40184.903    2707.3278   -42892.231    11.955028   0.98419378 
    4300    219.16205    128.56871    126867.81   -40182.138    2726.7925    -42908.93    12.118402   0.98443795 
    4400    220.73495    102.93343    126930.12   -40186.037    2746.3624   -42932.399    12.242071   0.98395471 
    4500     219.6007    153.69612    126836.17   -40197.467    2732.2502   -42929.717    12.534155   0.98468358 
    4600    216.31191    14.265623    126873.24   -40224.041    2691.3314   -42915.373    12.715013   0.98439588 
    4700    220.53186    105.08572    126652.95   -40149.709    2743.8356   -42893.545     12.99915   0.98610805 
    4800    219.62486    121.48573    126854.31   -40213.566    2732.5508   -42946.117    13.251387   0.98454278 
    4900    222.60651    93.758051    126776.49   -40097.795    2769.6482   -42867.443    13.553529   0.98514707 
    5000    224.59625    179.74492    126741.05   -40055.573    2794.4043   -42849.977     13.70447   0.98542259 
    5100    223.02712   -23.646115    126847.57   -40123.549    2774.8814    -42898.43     13.93152   0.98459507 
    5200    218.60292    182.05027    126859.14   -40186.502     2719.836   -42906.338    14.265246   0.98450529 
    5300    225.13995    77.580652    126784.38   -40156.085    2801.1689   -42957.254    14.546052   0.98508575 
    5400    217.82847    65.991297    126680.96   -40183.326    2710.2003   -42893.527    14.731652      0.98589 
    5500    216.33684    14.622833    126695.25   -40171.981    2691.6415   -42863.622    14.899503   0.98577882 
    5600     220.3044    196.23117    126722.36   -40152.733    2741.0055   -42893.739    15.160215   0.98556787 
    5700    224.60713    97.402217     126971.7   -40152.249    2794.5397   -42946.788    15.501252   0.98363253 
    5800    219.26974   -25.530177    126915.19   -40185.359    2728.1324   -42913.491    15.779362   0.98407047 
    5900     217.0668    167.69439     127001.6   -40220.281    2700.7236   -42921.005    16.052375   0.98340091 
    6000    221.30961    176.36937    127269.93   -40218.997    2753.5123   -42972.509    16.095459   0.98132759 
    6100    218.73751    147.46851    127572.27   -40165.955    2721.5105   -42887.465    16.220103   0.97900187 
    6200    218.96648    280.32968    127539.62   -40258.087    2724.3593   -42982.446    16.445093   0.97925249 
    6300    217.75712   -115.16626    127699.85   -40226.956    2709.3125   -42936.269    16.615647   0.97802379 
    6400    220.97023    173.51982    127755.29   -40206.252    2749.2897   -42955.541    16.919004   0.97759939 
    6500    222.19183   -90.241537    127736.51   -40165.145    2764.4888   -42929.634    17.137614    0.9777431 
    6600    220.96306   -190.91964    127692.19    -40249.79    2749.2006    -42998.99    17.464166   0.97808247 
    6700    221.73744     76.80531     127487.4   -40325.518    2758.8353   -43084.354    17.600976   0.97965364 
    6800    219.69263    236.93984    127509.44   -40259.345    2733.3939   -42992.739    17.800925   0.97948427 
    6900    225.69857    15.393601    127540.54   -40201.314    2808.1192   -43009.434    18.075729    0.9792454 
    7000    220.80619    126.07484    127515.33   -40206.077    2747.2488   -42953.325    18.473833     0.979439 
    7100    224.43604    25.578389     127474.1   -40228.183     2792.411   -43020.594    18.810169   0.97975582 
    7200    219.12709    152.34203    127575.02   -40282.698    2726.3576   -43009.055    18.986203   0.97898074 
    7300    219.29686    36.981925     127704.6   -40336.395    2728.4699   -43064.865    19.048863   0.97798743 
    7400    212.30005    54.224948    127536.86   -40359.056    2641.4162   -43000.473    19.275187   0.97927368 
    7500    216.57854     217.4783    127570.64   -40330.051    2694.6488   -43024.699    19.423939   0.97901439 
    7600     213.3761    81.572628    127772.91   -40411.702    2654.8044   -43066.506    19.643079   0.97746453 
    7700    219.35778   -15.312937    127825.36   -40308.375    2729.2278   -43037.603     19.70846   0.97706348 
    7800    221.56802    115.26369    127900.94   -40281.451    2756.7274   -43038.178    19.937278   0.97648612 
    7900    216.61966   -139.58157    127781.63   -40350.702    2695.1604   -43045.863    20.277978   0.97739783 
    8000    218.61577    67.614278    127768.31   -40324.835    2719.9958   -43044.831    20.471137   0.97749978 
    8100    218.72213    -14.47925    127772.46   -40399.873    2721.3191   -43121.192    20.693904   0.97746798 
    8200    214.67723   -109.39558    127834.46   -40428.276    2670.9929   -43099.269    21.218349   0.97699394 
    8300    218.76105    210.61296    127971.94   -40411.838    2721.8034   -43133.641    21.254944   0.97594437 
    8400    221.17291    56.866373     128169.1    -40370.82    2751.8115   -43122.632    21.203332   0.97444309 
    8500    218.35561    11.551956    128150.33   -40295.991    2716.7589    -43012.75    21.213637   0.97458583 
    8600     220.6482    194.92004    128076.43   -40304.377    2745.2831    -43049.66    21.318969   0.97514809 
    8700    223.80854    81.815636    128279.63   -40263.962    2784.6037   -43048.566    21.591715   0.97360346 
    8800    220.59067   -171.75656    128276.77   -40309.545    2744.5673   -43054.112    21.732506   0.97362513 
    8900    214.30292     149.1441    128247.74   -40402.543    2666.3358   -43068.878    21.958242   0.97384554 
    9000    221.99107    109.00706    128342.33   -40375.737    2761.9909   -43137.728    22.479618   0.97312779 
    9100    214.51605    63.290068     128414.4   -40450.236    2668.9875   -43119.223    22.785893   0.97258167 
    9200     221.3177    31.205947    128425.91     -40358.8    2753.6129   -43112.413    22.832698   0.97249449 
    9300    218.67085   -97.204588     128292.3   -40402.841    2720.6811   -43123.522    22.731345   0.97350732 
    9400    224.02805    168.90497    128242.94   -40363.324    2787.3349   -43150.659    22.679891   0.97388199 
    9500    220.03697    222.65451    128095.23   -40383.892    2737.6783    -43121.57     22.96859   0.97500504 
    9600     220.4473    166.49896    128110.51   -40348.747    2742.7835   -43091.531    23.102278   0.97488874 
    9700    219.07274    155.57242    128155.42    -40267.49    2725.6814   -42993.171    23.312459   0.97454711 
    9800    218.64626    69.045656    128106.37   -40346.167    2720.3751   -43066.542    23.664473   0.97492024 
    9900    219.88036   -174.67401     127910.2   -40433.849    2735.7298   -43169.579     23.82549    0.9764154 
   10000    216.15342    30.456378    127842.32   -40433.276    2689.3595   -43122.636     23.96425   0.97693385 
   10100    223.85658    176.24928    127896.25   -40383.271    2785.2015   -43168.472    24.245866   0.97652189 
   10200    217.46622    188.64686    128021.56   -40449.134    2705.6932   -43154.827    24.384834    0.9755661 
   10300     220.1779    33.124773    128185.46   -40457.989    2739.4317   -43197.421    24.716913   0.97431869 
   10400    219.26538    183.96421    128064.36   -40409.966    2728.0782   -43138.044    24.771495   0.97524002 
   10500     216.6859   -112.99697     128022.4   -40381.628    2695.9845   -43077.612    25.042813   0.97555966 
   10600    220.87473    155.36459    127893.41   -40312.375    2748.1016   -43060.477     25.39816   0.97654357 
   10700    222.47742    138.11474    127977.64   -40292.654    2768.0421   -43060.696    25.605965   0.97590089 
   10800    225.33364    147.75876    127950.13   -40271.578    2803.5789   -43075.157    25.868548    0.9761107 
   10900     221.7358   -8.2204036    127792.74   -40305.553    2758.8149   -43064.368    26.163673   0.97731291 
   11000    223.22739    124.95836    127917.86   -40298.667    2777.3732    -43076.04     26.32041   0.97635693 
   11100    218.23691    27.197403    127810.32   -40334.547    2715.2821   -43049.829    26.573869   0.97717847 
   11200    224.40206    311.21976    127957.69   -40319.393    2791.9883   -43111.381    26.844968   0.97605299 
   11300    222.98144    104.91836    127926.82   -40312.125    2774.3131   -43086.438    26.958347   0.97628857 
   11400    218.85712    106.40872    127875.98   -40311.307    2722.9986   -43034.306    27.041253   0.97667668 
   11500    219.12643    275.84982    128023.57   -40323.994    2726.3494   -43050.343     27.10552   0.97555075 
   11600     218.1259      28.5978    128181.04   -40350.748    2713.9009   -43064.649    27.497105   0.97435227 
   11700    221.15768      48.7699    128017.01   -40250.567    2751.6219   -43002.189    27.771692   0.97560073 
   11800    223.28876    104.69561    127686.91   -40330.529    2778.1367   -43108.666    27.780119    0.9781229 
   11900    215.19461     258.5106    127608.37   -40331.618    2677.4301   -43009.048    27.939029   0.97872495 
   12000     217.1172    62.748955     127718.3   -40322.792    2701.3508   -43024.143    28.281576   0.97788254 
   12100    218.67591    195.31253    127828.29   -40282.962    2720.7441   -43003.706    28.520493   0.97704107 
   12200     217.6787    16.007109    127965.11   -40282.401    2708.3369   -42990.738    28.822682   0.97599643 
   12300    215.59148    102.34347    127872.15     -40296.6    2682.3679   -42978.968     29.00288   0.97670596 
   12400    221.88602   -163.21295    127767.45   -40266.968    2760.6839   -43027.652    29.430216   0.97750636 
   12500    222.65064    183.56704    127723.01    -40364.99    2770.1972   -43135.188    29.739307   0.97784641 
   12600    221.52483    157.59976    127857.61   -40287.282      2756.19   -43043.472    29.893119   0.97681706 
   12700    225.04677    185.10866    127771.25   -40266.451    2800.0097    -43066.46    29.900245   0.97747725 
   12800    223.06642    117.78829    127973.71   -40242.294    2775.3704   -43017.665    30.170817   0.97593086 
   12900    219.35367    152.28213    127940.83   -40293.975    2729.1766   -43023.151    30.024652   0.97618168 
   13000     222.1022    200.73478    127910.14   -40241.144    2763.3737   -43004.518    30.333025   0.97641585 
   13100    220.60833    21.351627     127921.2   -40238.185     2744.787   -42982.972    30.360415   0.97633144 
   13200    224.03035    189.19227    127817.41    -40146.07    2787.3635   -42933.434    30.376946   0.97712429 
   13300    225.03377     22.12017    127838.56   -40203.107    2799.8479   -43002.955    30.710773   0.97696258 
   13400    218.87836    163.70595    127653.87   -40281.715     2723.263   -43004.978    31.144581   0.97837605 
   13500    220.66185   -27.870226    127703.07    -40298.42     2745.453   -43043.873    31.153478   0.97799911 
   13600    222.31778    111.51473    127696.55   -40326.917    2766.0558   -43092.973    31.464445   0.97804905 
   13700    215.98637    85.292767    127819.65    -40334.26    2687.2811   -43021.541    31.800428   0.97710712 
   13800    226.09856    184.33066    127967.93   -40250.503     2813.096   -43063.599    32.062064   0.97597495 
   13900    224.98505    213.82787    127827.99   -40290.085    2799.2417   -43089.327     32.29348   0.97704341 
   14000    218.64878    -96.21117    127957.48   -40281.574    2720.4065   -43001.981    32.475727   0.97605464 
   14100    219.16745   -43.917762    127947.64   -40266.344    2726.8597   -42993.203    32.648257    0.9761297 
   14200    218.73194   -69.188082    127574.72   -40325.221    2721.4412   -43046.662     32.80216   0.97898305 
   14300    216.82716    282.79842    127559.91   -40378.693    2697.7421   -43076.435    32.854245    0.9790967 
   14400    217.87606    -59.88055    127355.72   -40350.392    2710.7924   -43061.185    33.113362   0.98066649 
   14500    220.56482    236.62594    127438.21    -40295.12    2744.2456   -43039.365    33.404991   0.98003173 
   14600    221.17094    239.34301    127542.54   -40289.516     2751.787   -43041.303    33.722093   0.97923011 
   14700    217.94778    229.18428    127481.45   -40344.539    2711.6848   -43056.224    33.827259   0.97969934 
   14800    218.61849    125.11147    127479.76   -40382.847    2720.0297   -43102.877    33.936298   0.97971232 
   14900    215.92999    236.45302    127528.13   -40452.942    2686.5796   -43139.522    34.112667   0.97934074 
   15000    213.82054     10.01545    127493.25   -40450.452     2660.334   -43110.786    34.312298   0.97960863 
   15100    214.31591    169.64288    127616.35    -40483.79    2666.4973   -43150.287    34.416285   0.97866372 
   15200      217.999    131.69466    127542.97   -40418.319     2712.322   -43130.641    34.633419   0.97922675 
   15300    219.70074   -34.165546    127396.59   -40441.437    2733.4949   -43174.931    34.869742   0.98035195 
   15400      218.144    230.75791    127320.12   -40417.501    2714.1261   -43131.627    35.029259   0.98094074 
   15500    216.66575    52.451645    127287.06   -40386.693    2695.7338   -43082.427    35.328621   0.98119551 
   15600    218.65147   -60.650465    127609.34    -40326.05      2720.44    -43046.49     35.49675   0.97871748 
   15700    218.58905   -94.747822    127677.69   -40406.264    2719.6633   -43125.927    35.656986   0.97819352 
   15800    220.56878    207.17072    127811.79   -40403.186    2744.2949   -43147.481    35.853971   0.97716724 
   15900    215.73326    186.82063    127951.97   -40442.127    2684.1319   -43126.259    36.228724   0.97609667 
   16000     218.6207    45.482224    127915.49    -40376.68    2720.0572   -43096.737    36.482682   0.97637504 
   16100    220.73291    154.05894    127941.29   -40312.727    2746.3371   -43059.064    36.675637   0.97617813 
   16200     218.2826    102.63584    128022.07   -40361.837    2715.8505   -43077.687    36.941413   0.97556219 
   16300    216.62183    79.883333    127935.64   -40373.062    2695.1874   -43068.249    36.961985   0.97622123 
   16400    220.43507    111.42832    128045.96    -40282.28    2742.6313   -43024.911    37.181519   0.97538021 
   16500    222.14214    72.442024    128140.65   -40269.904    2763.8706   -43033.774    37.448642   0.97465938 
   16600    221.12918    -34.95473     128144.9    -40250.92    2751.2674   -43002.188    37.482287   0.97462712 
   16700    222.49022    323.47592    128133.57   -40290.913    2768.2013   -43059.114    37.650078   0.97471325 
   16800    224.05133    95.819269    128341.64   -40291.106    2787.6245    -43078.73    37.926958   0.97313304 
   16900    224.67136    44.937254    128310.19   -40273.767    2795.3389   -43069.106    37.929029   0.97337154 
   17000    221.26107    189.74522    128234.04   -40302.267    2752.9083   -43055.176    38.067205    0.9739496 
   17100    223.08764     58.29041    128228.36   -40235.148    2775.6344   -43010.783    38.225508   0.97399273 
   17200    220.04496    247.02415    128117.06    -40248.94    2737.7777   -42986.718    38.572677   0.97483885 
   17300    221.44825    268.55656    128043.07   -40295.448    2755.2372   -43050.685    38.912973   0.97540223 
   17400    218.98142   -9.9891182    128249.31    -40324.31    2724.5451   -43048.855    39.011831   0.97383364 
   17500    219.87918    276.49167    128248.09    -40308.52     2735.715   -43044.235    39.416926   0.97384288 
   17600    221.90956    204.21601    128287.87   -40289.407    2760.9768   -43050.384    39.756453   0.97354093 
   17700    219.04993    10.286368    128308.05   -40319.978    2725.3975   -43045.376     39.90573   0.97338784 
   17800    221.33479   -54.148368    128265.87   -40311.245    2753.8256   -43065.071      40.0971   0.97370791 
   17900    223.52309    174.02972    128360.67   -40274.655    2781.0522   -43055.707    40.292308   0.97298874 
   18000     225.0976     306.0109     128265.4   -40232.007    2800.6421   -43032.649    40.360463   0.97371147 
   18100    217.72482    91.068457    128278.94   -40329.281    2708.9107   -43038.192    40.663144   0.97360871 
   18200    220.53716    70.335415    128190.12   -40325.642    2743.9015   -43069.543    40.657903   0.97428332 
   18300    224.36089    57.010008    128179.27   -40248.381     2791.476   -43039.857    40.788777   0.97436578 
   18400    220.21781    6.7364758    128145.19   -40314.231    2739.9282   -43054.159    41.143365   0.97462491 
   18500     226.3992    199.95163    128400.05   -40280.964    2816.8365   -43097.801    41.282971   0.97269036 
   18600    222.56133    -29.69645    128499.57   -40332.549    2769.0861   -43101.635    41.404991   0.97193705 
   18700    220.45902    125.54034    128261.12   -40291.444    2742.9293   -43034.373    41.588352   0.97374397 
   18800    227.90702    66.859961    128361.12   -40256.274    2835.5966    -43091.87     41.73798    0.9729854 
   18900    218.09759    198.97483    128314.52    -40297.25    2713.5487   -43010.798    42.186836   0.97333869 
   19000    220.98211    23.536132    128274.21   -40281.231    2749.4375   -43030.668    42.202836    0.9736446 
   19100    219.23352    44.682125    128267.04   -40335.191    2727.6818   -43062.873    42.416695   0.97369903 
   19200    222.62078   -19.391923    128257.22   -40321.906    2769.8258   -43091.731    42.629553   0.97377359 
   19300     222.6126    259.69868    128299.17   -40264.994     2769.724   -43034.718    42.956546   0.97345518 
   19400    221.05901    264.74077     128338.2   -40275.086    2750.3943    -43025.48    43.124278   0.97315915 
   19500    228.22645    101.37775    128420.67   -40274.673     2839.571   -43114.244    43.294253   0.97253419 
   19600    220.82729    388.98174    128301.75   -40341.993    2747.5113   -43089.504    43.520998   0.97343561 
   19700    225.38256    48.158069    128345.28   -40335.527    2804.1876   -43139.714    43.548663   0.97310544 
   19800    219.27477   -5.4376171    128370.84   -40376.367     2728.195   -43104.562    43.834086   0.97291168 
   19900    220.61863    202.70423    128183.62   -40387.808    2744.9152   -43132.723    44.143246   0.97433266 
   20000    217.84503     65.49505    128337.46   -40434.234    2710.4063    -43144.64    44.339877   0.97316477 
   20100    218.85261    274.44303    128483.46   -40395.328    2722.9426   -43118.271    44.252345    0.9720589 
   20200    217.47552    56.605061    128292.68   -40427.988    2705.8089   -43133.797    44.452476    0.9735044 
   20300    216.32242    6.6374284    128124.32   -40453.101    2691.4622   -43144.563    44.565567   0.97478365 
   20400    219.32946    89.613789    128221.83   -40449.808    2728.8755   -43178.684    44.479964   0.97404237 
   20500    218.24874    189.17902    128244.43   -40408.203    2715.4293   -43123.633    44.552009   0.97387068 
   20600    215.51811    209.63967    128299.15   -40434.167     2681.455   -43115.622    44.923135   0.97345531 
   20700    221.58473    178.41999    128329.03   -40371.051    2756.9353   -43127.986    44.980338   0.97322865 
   20800    222.83733    76.577448    128378.69   -40369.409      2772.52   -43141.929    45.138498   0.97285224 
   20900    215.17017   -90.275559    128447.25   -40417.558     2677.126   -43094.684    45.058998   0.97233296 
   21000    215.61837    4.1315387     128545.7   -40504.485    2682.7024   -43187.187     45.38677   0.97158825 
   21100    219.19627    178.28678    128374.76   -40520.283    2727.2183   -43247.501    45.554453   0.97288197 
   21200    216.27724    190.84767    128355.59   -40500.652       2690.9   -43191.552    45.700249   0.97302725 
   21300    213.83212    103.97855     128213.2   -40499.189    2660.4781   -43159.667    45.943676   0.97410792 
   21400    218.80749    255.34283    128187.69   -40467.338    2722.3812   -43189.719    45.890615   0.97430174 
   21500     219.4315    274.80834    128178.61   -40460.018     2730.145   -43190.163    46.169818   0.97437078 
   21600    217.66491    99.432709    128205.86   -40404.056    2708.1653   -43112.221    46.619752   0.97416367 
   21700    223.94852    15.919662    128235.26   -40377.908    2786.3453   -43164.254    46.817435   0.97394029 
   21800    221.41667    143.51122    128290.43   -40360.244    2754.8443   -43115.088    46.950255   0.97352149 
   21900    217.10972    110.93141    128524.61   -40379.192    2701.2577    -43080.45    46.934538   0.97174766 
   22000    221.64311    111.91911    128279.01   -40420.966    2757.6617   -43178.628     47.05826   0.97360816 
   22100    221.07924    125.80042    128300.15   -40352.644     2750.646    -43103.29    47.263872   0.97344776 
   22200     219.5478    129.98515    128170.39   -40380.869    2731.5921   -43112.461    47.356739    0.9744333 
   22300    221.50489    237.27823    128424.66   -40361.632    2755.9419   -43117.574    47.576407     0.972504 
   22400    221.35808    181.32828    128345.07   -40326.678    2754.1154   -43080.794    47.977427   0.97310707 
   22500    220.62562    81.722091    128384.37   -40331.518    2745.0021    -43076.52    48.017489    0.9728092 
   22600     221.5397    79.435204    128258.51   -40314.409    2756.3751   -43070.784     47.89456   0.97376376 
   22700    224.41147    36.571017    128312.47   -40317.732    2792.1053   -43109.838     48.36475   0.97335429 
   22800    221.62039   -26.358192    128287.75   -40279.436     2757.379   -43036.815    48.556351   0.97354183 
   22900    223.08266     132.8152    128345.18   -40339.637    2775.5724   -43115.209    48.554192   0.97310622 
   23000    222.97937    32.580117    128391.04   -40322.408    2774.2872   -43096.695    48.579532    0.9727586 
   23100    219.71804    130.72537    128264.32   -40425.884    2733.7102   -43159.594    48.813516   0.97371966 
   23200    220.05756    31.758634    128490.97   -40357.733    2737.9343   -43095.668    49.129205   0.97200205 
   23300    217.35581   -6.9134708    128347.87   -40414.116    2704.3195   -43118.436    49.384727   0.97308579 
   23400    220.87073    87.666239    128420.51   -40343.365    2748.0518   -43091.417    49.615825   0.97253542 
   23500    217.91256    4.2327252     128352.2   -40366.429    2711.2465   -43077.676    49.804909   0.97305296 
   23600    219.32688    388.72725    128273.46   -40348.146    2728.8434   -43076.989    50.166706   0.97365029 
   23700    218.72304    259.09223    128450.71   -40380.107    2721.3305   -43101.438    50.179144   0.97230674 
   23800    216.17001    316.43866    128459.73   -40434.724    2689.5659    -43124.29    50.309076   0.97223846 
   23900    215.85974    180.69173    128448.97   -40462.315    2685.7055   -43148.021    50.361569   0.97231991 
   24000    217.67011    174.67381     128448.6   -40391.248      2708.23   -43099.478    50.706572   0.97232268 
   24100    216.48174    113.81229    128395.89   -40387.794    2693.4444   -43081.238    50.800329   0.97272186 
   24200    216.01252    86.352773     128321.5   -40436.769    2687.6064   -43124.375    50.952533    0.9732858 
   24300    219.70335    65.467726    128208.85   -40406.657    2733.5273   -43140.184    51.032394   0.97414099 
   24400    215.80016    288.89955    128257.78   -40442.434    2684.9642   -43127.398    51.179293   0.97376932 
   24500    217.13215    77.102824    128363.22   -40394.954    2701.5367    -43096.49    51.555039   0.97296946 
   24600     222.3099    32.412893    128441.07   -40381.332    2765.9579    -43147.29    51.779777   0.97237974 
   24700    218.62399   -29.806501     128488.2   -40403.091    2720.0981   -43123.189    52.029848   0.97202305 
   24800    222.02573    125.17662    128291.45    -40407.15    2762.4222   -43169.572    52.200741   0.97351376 
   24900    222.37868    17.264841    128222.56   -40358.828    2766.8136   -43125.642    52.376786   0.97403682 
   25000    220.91847    149.62151    128061.82   -40332.187    2748.6458   -43080.833    52.623415   0.97525941 
   25100    223.05771    237.92204    128201.61   -40337.562     2775.262   -43112.824    52.999484   0.97419599 
   25200    217.35721    94.455316    128416.25   -40385.629    2704.3369   -43089.965    52.972869   0.97256763 
   25300    218.93343     178.2422    128280.16   -40390.596    2723.9481   -43114.544    52.914947    0.9735994 
   25400    219.57804    50.473459    128092.87   -40376.401    2731.9683   -43108.369    52.904664   0.97502297 
   25500    222.39013    352.38728    128284.56   -40325.084     2766.956    -43092.04    53.354075     0.973566 
   25600    222.58745   -57.785914     128184.9   -40428.888     2769.411   -43198.299    53.757611   0.97432297 
   25700    216.25791    341.50736       127956   -40452.924    2690.6595   -43143.584    54.069247   0.97606594 
   25800    216.55736    223.54755    128080.46   -40421.413    2694.3853   -43115.798    54.319324   0.97511747 
   25900    222.90508    143.28876    128215.01   -40384.639     2773.363   -43158.002    54.544555   0.97409412 
   26000    228.47684    178.74491    128341.78   -40334.538    2842.6863   -43177.224    54.995271     0.973132 
   26100    217.83024    165.45158    128379.58   -40428.954    2710.2223   -43139.176    55.202894   0.97284545 
   26200    225.51137    53.893304    128449.11   -40426.786    2805.7901   -43232.576    55.119026   0.97231887 
   26300     224.7101    171.36391    128470.27    -40422.23    2795.8209   -43218.051    55.388785   0.97215869 
   26400    219.28314     38.90869    128630.17   -40423.672    2728.2991   -43151.971    55.558076   0.97095021 
   26500    222.87098      270.613    128821.26   -40490.694    2772.9387   -43263.632    55.709608   0.96950994 
   26600     216.9662    47.361964    128689.26   -40546.464     2699.472   -43245.936    55.573348   0.97050441 
   26700    218.34273    55.640531    128799.94   -40585.554    2716.5987   -43302.152    55.761933   0.96967041 
   26800    221.43988    104.32502    128679.59    -40525.26    2755.1331   -43280.393    55.859716   0.97057735 
   26900     219.0213    158.21944    128591.41    -40517.93    2725.0414   -43242.971    56.258699    0.9712429 
   27000    218.72693    238.98922    128561.05   -40542.933    2721.3789   -43264.312    56.383871   0.97147224 
   27100    216.72332     79.43717     128614.3   -40548.144    2696.4501   -43244.594    56.563966      0.97107 
   27200     213.6597    137.29256    128632.67   -40560.616    2658.3329   -43218.949    56.690771   0.97093136 
   27300     215.5812     63.16429     128524.6    -40587.36      2682.24     -43269.6    56.622209   0.97174773 
   27400    220.02913    98.847661    128553.73   -40520.417    2737.5807   -43257.997      56.7645   0.97152752 
   27500     219.2521    77.953526    128540.94   -40438.829     2727.913   -43166.742    57.182556   0.97162421 
   27600    220.56921    54.325816    128541.34   -40468.915    2744.3004   -43213.215    57.193106   0.97162122 
   27700    218.39157    33.132696    128594.84   -40469.245    2717.2063   -43186.451    57.399442     0.971217 
   27800     219.8269    1.4532459    128659.63   -40396.187    2735.0645   -43131.251    57.735511   0.97072787 
   27900    222.52662   -37.081947    128820.95   -40414.138    2768.6542   -43182.792    57.889198    0.9695123 
   28000    222.12892    235.46786    128706.66   -40449.768    2763.7061   -43213.474    58.196372   0.97037315 
   28100    220.39555    65.759585    128720.17   -40424.791    2742.1397    -43166.93    58.532119   0.97027135 
   28200    221.10282    69.360248    128588.75   -40479.928    2750.9394   -43230.867    58.461152   0.97126298 
   28300    219.53744  -0.59322595    128771.23   -40467.188    2731.4631   -43198.651    58.626699   0.96988659 
   28400    218.33242     138.6629    128817.12   -40525.458    2716.4703   -43241.928    59.020195   0.96954112 
   28500    215.75029    222.66992    129123.36   -40547.851    2684.3438   -43232.194     59.22949   0.96724164 
   28600    219.70241   -10.075501    129298.39    -40487.41    2733.5157   -43220.926    59.631445   0.96593227 
   28700    218.63315    212.61028    129345.75   -40492.367    2720.2121   -43212.579    59.879955   0.96557859 
   28800    222.94018     168.2141    129474.16   -40472.718    2773.7997   -43246.517    60.148941   0.96462096 
   28900    223.57656    149.53571    129644.96   -40455.892    2781.7175    -43237.61    60.229878   0.96335018 
   29000    219.49224    135.20084    129517.14   -40540.941    2730.9008   -43271.842    60.407856   0.96430084 
   29100    221.36606    97.729234    129595.12   -40487.712    2754.2146   -43241.927    60.664829   0.96372064 
   29200    218.18541    140.31594    129632.49   -40456.432    2714.6413   -43171.073    60.831789   0.96344282 
   29300    221.18202    128.24229    129682.39   -40516.768    2751.9248   -43268.693    60.997809   0.96307208 
   29400    218.19538    161.32225    129675.64   -40544.325    2714.7653   -43259.091    61.129502   0.96312225 
   29500     218.8294    167.16513    129570.35   -40569.574    2722.6537   -43292.227     61.38172   0.96390484 
   29600    221.82788    178.16848    129513.27   -40494.421    2759.9605   -43254.382    61.580008   0.96432971 
   29700    217.29181   -9.5661236    129488.18    -40538.76    2703.5233   -43242.284    61.723062   0.96451655 
   29800    219.25775   -52.490793    129456.61   -40528.742    2727.9833   -43256.726      62.0997   0.96475171 
   29900    214.75408    85.786293    129256.07    -40557.23     2671.949   -43229.179    62.244713   0.96624855 
   30000    215.79045    138.46561    129197.52   -40523.476    2684.8434    -43208.32    62.135785   0.96668647 
   30100    219.59198     128.6535    129083.46     -40516.7    2732.1417   -43248.841    62.405504   0.96754066 
   30200    220.09128   -130.96805    129042.01   -40523.768    2738.3539   -43262.122    62.938364   0.96785144 
   30300     220.3643    132.74908    128916.22   -40484.379    2741.7508   -43226.129     63.08887   0.96879582 
   30400    220.85465    195.86247     128837.1   -40466.275    2747.8518   -43214.127    63.430521   0.96939072 
   30500    220.78005    196.37611    128850.67   -40475.257    2746.9235   -43222.181     63.91731   0.96928867 
   30600    220.11371    160.83569    128783.22   -40460.178     2738.633   -43198.811    64.128332    0.9697963 
   30700    222.97838    107.99499     129157.3    -40479.69     2774.275   -43253.965     64.55894    0.9669875 
   30800    218.09979     87.91253    129062.92   -40417.874    2713.5761    -43131.45    64.657828    0.9676946 
   30900    214.21591    104.95435    128911.94    -40520.93    2665.2532   -43186.183     64.74274   0.96882799 
   31000    214.98815    48.433561     128860.4   -40549.017    2674.8613   -43223.878    64.930399   0.96921548 
   31100    215.24831    183.95357    128913.61   -40530.174    2678.0981   -43208.272    65.067152   0.96881542 
   31200    217.18202     185.4616    128998.99   -40533.719    2702.1572   -43235.876    65.213743   0.96817418 
   31300    220.00467   -50.906412    128907.78    -40494.82    2737.2763   -43232.096    65.407518    0.9688592 
   31400    220.87782    98.083387    128987.61   -40470.467      2748.14   -43218.607     65.34796   0.96825963 
   31500    219.25808    91.259461    129086.01   -40534.594    2727.9874   -43262.581     65.52904   0.96752154 
   31600    222.99614    76.697304    129008.09   -40472.842    2774.4959   -43247.338    65.487068   0.96810591 
   31700    219.80749    200.78065    128757.62   -40519.845    2734.8231   -43254.668    65.463825   0.96998913 
   31800    222.84464     67.57121     128743.4   -40454.467     2772.611   -43227.078    65.712655   0.97009624 
   31900     225.0693   -82.029981    128640.64   -40450.082      2800.29   -43250.372    65.920888   0.97087122 
   32000    221.04781    161.53346    128695.23   -40451.653     2750.255   -43201.908     66.08592   0.97045934 
   32100    221.52023     28.64197    128907.16   -40469.805    2756.1328   -43225.937    66.372593    0.9688639 
   32200    221.21325     145.9973     128854.1   -40465.333    2752.3133   -43217.646    66.310111   0.96926281 
   32300     221.9325   -76.211578    128877.86   -40453.859    2761.2623   -43215.121    66.732661   0.96908415 
   32400    220.95873    106.09085    128696.08   -40529.812    2749.1467   -43278.959    66.944557   0.97045297 
   32500    219.63881    83.001589    128648.35   -40557.264    2732.7244   -43289.988    67.022039   0.97081297 
   32600    223.28036    54.988689    128718.57   -40491.595    2778.0322   -43269.627     67.22715   0.97028342 
   32700     222.3435    3.8491895    128844.21   -40553.078    2766.3759   -43319.454    67.264302   0.96933723 
   32800    217.66352    124.29879    128887.79   -40597.286    2708.1479   -43305.434    67.501138   0.96900951 
   32900    219.18022    212.52031    128805.32   -40600.187    2727.0187   -43327.206    67.662209   0.96962993 
   33000    215.10586   -123.62916    128732.27   -40670.772    2676.3259   -43347.098    67.968418   0.97018012 
   33100    217.99375    82.033436    128664.99    -40577.64    2712.2567   -43289.897    68.234372   0.97068746 
   33200    220.46504    72.867339     129040.2   -40610.144    2743.0042   -43353.148    68.510652   0.96786498 
   33300    221.74725     243.2014    128805.34   -40560.896    2758.9574   -43319.854    68.662028   0.96962978 
   33400    219.49781    91.642554    128805.69   -40658.395    2730.9701   -43389.365    68.780405   0.96962713 
   33500    221.95656    154.97718     128897.1   -40629.123    2761.5616   -43390.685    69.051784   0.96893948 
   33600    217.19252    22.496837    128807.17   -40594.997    2702.2879   -43297.285     69.03687   0.96961599 
   33700    222.45382    47.616262    128726.81   -40595.676    2767.7485   -43363.424    69.332086   0.97022125 
   33800    220.68247    125.99869       128854   -40595.227    2745.7095   -43340.936    69.724232   0.96926358 
   33900    219.22443    219.12799    129086.64   -40609.718    2727.5686   -43337.287    69.978321   0.96751677 
   34000    225.09009    140.00955    129246.78   -40584.296    2800.5487   -43384.844    70.228205   0.96631798 
   34100      220.752    261.22018    129319.51   -40616.966    2746.5746    -43363.54    70.346322   0.96577455 
   34200    219.14928    51.072874    129352.67   -40622.208    2726.6337   -43348.842    70.358022   0.96552695 
   34300    216.76655    112.81312    129286.31   -40661.647     2696.988   -43358.636    70.247567   0.96602254 
   34400    219.28314    97.873123    129128.11   -40582.057    2728.2991   -43310.356    70.404801   0.96720603 
   34500    218.23054   -16.888485    129111.42   -40605.569    2715.2029   -43320.772    70.695416   0.96733112 
   34600    215.58305    197.61829    129102.19   -40579.316     2682.263   -43261.579    71.113755   0.96740025 
   34700    216.05443    43.332133    128981.91   -40650.044    2688.1279   -43338.172    70.939756    0.9683024 
   34800    219.40531    290.21722    128863.31   -40632.965    2729.8192   -43362.784    70.908318   0.96919357 
   34900    219.45773    2.6857327    129015.07   -40646.344    2730.4713   -43376.816    71.123211   0.96805351 
   35000    215.79931    102.99831     129032.8   -40726.339    2684.9537   -43411.293     71.67525   0.96792048 
   35100    221.06337    8.0143885    129120.63   -40669.205    2750.4487   -43419.653     71.71185    0.9672621 
   35200    220.41914    257.56582     129173.7   -40675.881    2742.4332   -43418.314    71.588644   0.96686471 
   35300    215.98834     65.12151    129139.23   -40666.919    2687.3056   -43354.225    71.416287   0.96712282 
   35400     219.6743      215.306    129201.58   -40682.885     2733.166   -43416.051     71.64324   0.96665604 
   35500    223.24789    133.27616    129188.17   -40592.508    2777.6282   -43370.136    71.830458   0.96675643 
   35600    221.32091    191.78734    129284.08   -40633.322    2753.6529   -43386.975    72.033857   0.96603923 
   35700    221.33505    132.23084    129409.28   -40605.036    2753.8288   -43358.865    72.280684   0.96510462 
   35800    222.55255    138.82307    129288.96   -40639.983    2768.9768    -43408.96    72.432941   0.96600278 
   35900    220.61342    24.310189    129125.42   -40581.604    2744.8504   -43326.454    72.601122   0.96722621 
   36000    220.45919    110.01543    129050.21   -40560.095    2742.9314   -43303.026    72.713365   0.96778991 
   36100    218.55228    144.11537    129138.01   -40574.775    2719.2059   -43293.981    72.825759   0.96713192 
   36200    214.85619   -26.746505     129257.4   -40607.489    2673.2194   -43280.709    73.123008   0.96623861 
   36300    215.23549    93.341528    129094.23   -40654.667    2677.9387   -43332.605    73.310204   0.96745992 
   36400    219.38778    75.445728     129195.8    -40604.59    2729.6011   -43334.191    73.462164   0.96669934 
   36500    218.67152   -120.46777    129057.42   -40573.194    2720.6894   -43293.884    73.479925   0.96773584 
   36600    217.98787    75.576511    129072.76   -40688.085    2712.1835   -43400.268    73.340575   0.96762087 
   36700    215.13035    12.568209     128858.5   -40628.152    2676.6306   -43304.783    73.522901   0.96922975 
   36800    217.05489    143.98909    128899.63   -40624.218    2700.5754   -43324.793    73.743736   0.96892051 
   36900    217.85227    105.51183    128783.93   -40637.965    2710.4964   -43348.462    73.665312   0.96979093 
   37000    218.28137    250.97139    128636.94     -40589.9    2715.8353   -43305.735    73.763113   0.97089909 
   37100    223.12088    53.397034    128703.95   -40582.437    2776.0479   -43358.485    74.123464   0.97039363 
   37200    218.53959    75.323257    128813.55   -40626.422     2719.048    -43345.47    74.691041   0.96956796 
   37300    217.06895    167.70829    128895.44   -40632.499    2700.7504    -43333.25    74.679991   0.96895199 
   37400    217.11246   -22.653865    128784.61   -40656.747    2701.2917   -43358.039    74.937011   0.96978588 
   37500    217.82929    103.67433     128972.4   -40660.953    2710.2105   -43371.164    74.875976   0.96837376 
   37600    219.15207   -0.1215124    128950.72    -40618.57    2726.6684   -43345.238    75.079509   0.96853661 
   37700    219.15284    189.20494    128989.93    -40617.42     2726.678   -43344.098    75.508408   0.96824217 
   37800    215.60224    94.045245    129093.53   -40725.512    2682.5017   -43408.014    75.606873   0.96746513 
   37900     219.8558    41.913348    129017.83   -40695.546    2735.4241   -43430.971    75.972237   0.96803278 
   38000    221.35195    16.670046       128881   -40685.671    2754.0391    -43439.71    76.356778   0.96906055 
   38100    219.53818    155.72101    128878.75   -40646.398    2731.4723    -43377.87     76.50367   0.96907743 
   38200    217.48907    231.10764    129030.46   -40666.772    2705.9775    -43372.75    76.502967   0.96793801 
   38300    220.82506    155.18258    129151.08   -40607.949    2747.4835   -43355.433    76.674957   0.96703401 
   38400    221.56764    98.705784    129175.83   -40680.358    2756.7226    -43437.08    76.824684   0.96684874 
   38500    219.58171    27.911125    129146.57   -40708.049    2732.0139   -43440.063     77.05135   0.96706779 
   38600    217.40044    142.56459    129117.89   -40659.327    2704.8747   -43364.202    76.861584   0.96728261 
   38700    220.78526   -23.513718    129219.26    -40665.51    2746.9884   -43412.498    76.903275   0.96652384 
   38800    218.84006    7.4455419    129265.53   -40685.639    2722.7864   -43408.425    77.078319   0.96617784 
   38900    222.76121    85.011543    129433.57   -40642.138     2771.573   -43413.712    77.406985    0.9649235 
   39000    216.73052   -152.20462     129421.1   -40687.632    2696.5397   -43384.171    77.309395   0.96501643 
   39100    222.74702   -1.7035231    129332.46   -40655.773    2771.3964   -43427.169     77.43737   0.96567785 
   39200    219.80363    140.52141    129174.61   -40681.945    2734.7751    -43416.72    77.169709   0.96685792 
   39300    223.68091    153.46461     129324.5   -40661.635    2783.0157   -43444.651    77.170187   0.96573728 
   39400    219.16734   -141.99552    129318.63   -40613.505    2726.8583   -43340.363    77.189906   0.96578116 
   39500    218.36534    214.88378    129505.45   -40573.592      2716.88   -43290.472    77.511268   0.96438795 
   39600    218.93162    272.64758    129573.03   -40615.938    2723.9256   -43339.863    78.116416    0.9638849 
   39700    221.00891    10.912112    129339.17   -40556.523     2749.771   -43306.294    78.304458   0.96562772 
   39800    221.97186    242.71853    129298.62   -40614.345    2761.7519   -43376.096    78.664364   0.96593054 
   39900    218.60115    105.10118    129390.99   -40636.741     2719.814   -43356.555      78.5229   0.96524103 
   40000    215.98853   -20.636357    129167.19   -40673.262    2687.3079    -43360.57    78.615055   0.96691346 
   40100    219.68145    134.61771    129182.85   -40568.285    2733.2549    -43301.54    78.849627   0.96679619 
   40200    219.51961    268.53212    128996.31   -40584.727    2731.2413   -43315.968    79.078359   0.96819432 
   40300    220.03671    53.782486    129055.42   -40563.843    2737.6749   -43301.518    79.149881   0.96775084 
   40400     225.5617     55.21674    129219.28   -40470.157    2806.4163   -43276.573    79.242572   0.96652368 
   40500    222.87785    216.71199    129056.42    -40477.24    2773.0242   -43250.264    79.375359   0.96774337 
   40600    226.13274    177.01528    129413.16   -40525.139    2813.5212    -43338.66    79.698428   0.96507564 
   40700    220.05998    126.77253    129431.25   -40570.687    2737.9645   -43308.652    79.780699   0.96494077 
   40800    219.73431    36.954098    129508.81    -40621.79    2733.9126   -43355.703    79.771984   0.96436293 
   40900    213.76224    -35.09571    129279.99   -40646.173    2659.6087   -43305.782    79.861698   0.96606979 
   41000    223.35096    133.69516    129402.35   -40570.751    2778.9105   -43349.661     79.87206    0.9651563 
   41100    224.05476    193.56792    129432.97   -40568.343    2787.6671    -43356.01    80.343909   0.96492798 
   41200    221.58131    303.52908    129375.74   -40583.381    2756.8927   -43340.274     80.65954    0.9653548 
   41300    217.97153    377.02988    129359.07   -40738.836    2711.9802   -43450.816    80.950833   0.96547921 
   41400    214.43171    -94.16217    129335.61   -40687.163    2667.9382   -43355.101    81.014219   0.96565434 
   41500    219.67772    235.16651     129078.5   -40678.687    2733.2084   -43411.896    81.189904   0.96757783 
   41600    220.91918    12.353905    129093.69   -40647.974    2748.6546   -43396.628    81.131992   0.96746399 
   41700    222.12229    -26.19751    129037.49   -40625.695    2763.6236   -43389.318    81.313601   0.96788532 
   41800    218.63066   -129.78142    128961.16    -40648.51    2720.1811   -43368.691    81.009505   0.96845821 
   41900     219.7724    67.951201    128821.15   -40613.577    2734.3865   -43347.964    81.285976   0.96951075 
   42000     223.3175    137.06469    128825.64   -40611.752    2778.4943   -43390.246    81.415334   0.96947694 
   42100    217.09597    258.42076     128947.1   -40600.656    2701.0866   -43301.743    81.779878    0.9685638 
   42200    220.93212    36.496934    129005.41   -40552.169    2748.8156   -43300.984     82.03804   0.96812601 
   42300    218.14394   -16.777821    128975.12   -40522.194    2714.1253   -43236.319    82.432517   0.96835336 
   42400    218.70341    -110.1305    128911.88   -40561.066    2721.0862   -43282.152    82.653637   0.96882839 
   42500    220.11589    121.21612    128931.28   -40543.458    2738.6602   -43282.118    82.829702   0.96868266 
   42600    218.07669    272.57529    128989.07   -40528.507    2713.2886   -43241.796    83.088189    0.9682486 
   42700    220.15422    34.694173    128887.51   -40533.085    2739.1371   -43272.222    82.998788   0.96901163 
   42800      222.786     20.83413    128930.14    -40472.55    2771.8813   -43244.431    83.027811   0.96869117 
   42900    223.41126   -3.3056963    129005.05   -40545.708    2779.6608   -43325.368    83.417776   0.96812873 
   43000    216.19927    48.903516    129038.92   -40571.286      2689.93   -43261.216    83.501955   0.96787458 
   43100    220.19739     127.3243    129011.55    -40549.92    2739.6742   -43289.594    84.009332   0.96807994 
   43200    222.47915   -18.775822    129199.22   -40521.985    2768.0636   -43290.048    84.558985   0.96667369 
   43300    222.01851    259.80181    129344.18   -40548.807    2762.3323    -43311.14    84.391583   0.96559037 
   43400    226.31082    326.05938    129445.99   -40512.954    2815.7369   -43328.691    84.819797   0.96483088 
   43500    222.52454    65.058082    129274.59   -40533.114    2768.6284   -43301.743    84.810577   0.96611016 
   43600    223.85788    63.030487    129262.19   -40449.858    2785.2177   -43235.075    84.794007   0.96620281 
   43700    224.75376   -12.143837    129400.28    -40483.25     2796.364   -43279.614    85.130492   0.96517171 
   43800    222.71117     231.6194    129372.43   -40478.179    2770.9504   -43249.129    85.138089   0.96537952 
   43900    215.59538    62.267876    129187.26   -40524.569    2682.4164   -43206.985     85.33058   0.96676318 
   44000     219.4466    25.839874    129137.58   -40542.037    2730.3329    -43272.37    85.230506   0.96713512 
   44100    224.78127   -15.452067    129011.19   -40550.467    2796.7063   -43347.173    85.576647   0.96808259 
   44200    219.69377    -39.79636    128889.34   -40566.333    2733.4082   -43299.742    85.650429   0.96899786 
   44300    219.76718    138.92127    128693.44     -40584.4    2734.3216   -43318.722    85.882095   0.97047288 
   44400    217.28716    80.871031    128632.18    -40553.33    2703.4653   -43256.796    86.143291   0.97093506 
   44500    221.29025     204.2468    128576.58   -40586.822    2753.2714   -43340.093     86.22388   0.97135488 
   44600    217.32384     137.8298    128760.55   -40646.875    2703.9218   -43350.797    86.186175   0.96996707 
   44700    218.40034     28.12975    128799.37   -40635.745    2717.3154   -43353.061    86.328917   0.96967469 
   44800    220.29063    140.29819    128841.28   -40614.191    2740.8343   -43355.025    86.453385    0.9693593 
   44900    218.58321   -22.496349    128943.85   -40565.517    2719.5906   -43285.108    86.632758   0.96858821 
   45000    218.68649     146.7775    129011.71   -40566.778    2720.8757   -43287.653    87.057661   0.96807875 
   45100    224.30655    187.90071    129084.38   -40495.497       2790.8   -43286.297    87.303034   0.96753369 
   45200    221.29477    238.42426    129120.44   -40547.611    2753.3277   -43300.939    87.526308   0.96726349 
   45300    219.80171    6.4584598     129103.3   -40565.957    2734.7512   -43300.708    87.313662   0.96739197 
   45400     220.9778     93.21292    129030.28   -40540.921    2749.3839   -43290.305    87.495542    0.9679394 
   45500    218.59795    187.75754    129128.22   -40547.114     2719.774   -43266.888    87.272966   0.96720526 
   45600    224.28189    131.48924    129181.94    -40569.05    2790.4932   -43359.543    87.375953   0.96680303 
   45700    221.13499   -1.7506427    129167.56   -40601.533    2751.3397   -43352.873    87.870034   0.96691069 
   45800    221.90189    290.83951    129235.07   -40559.307    2760.8814   -43320.189    87.923122   0.96640559 
   45900    222.72554   -89.291878    129156.99     -40503.5    2771.1291   -43274.629    88.240063   0.96698979 
   46000    223.66103    61.171989    129138.65   -40469.172    2782.7685   -43251.941    88.283685   0.96712711 
   46100    227.69115    203.08475    129263.75   -40421.831    2832.9107   -43254.742    88.529123   0.96619112 
   46200     226.4436    71.886815    129260.73   -40414.227    2817.3889   -43231.615    88.655358   0.96621372 
   46300    221.85432    39.106449    129272.62   -40436.209    2760.2896   -43196.499    88.628842   0.96612488 
   46400    225.83364    79.998954    129295.39   -40467.565    2809.7998   -43277.365    89.139204   0.96595475 
   46500    220.35062  -0.20743723    129347.52   -40473.116    2741.5806   -43214.697    89.307763    0.9655654 
   46600    224.48441    97.206769    129210.71   -40458.958    2793.0129   -43251.971    89.391271   0.96658779 
   46700    219.29156     79.99998    129250.07   -40539.905     2728.404   -43268.309      89.2405   0.96629343 
   46800    219.60187    223.45459    129399.32   -40585.326    2732.2647   -43317.591    89.263787   0.96517888 
   46900    223.45024    36.318834    129505.06   -40502.924    2780.1458    -43283.07    89.638373   0.96439084 
   47000    220.95738     167.4914    129400.73   -40494.483    2749.1298   -43243.613    89.804581   0.96516838 
   47100    223.00722    324.46606    129371.01   -40459.722    2774.6338   -43234.356    89.573879   0.96539011 
   47200    225.29887    32.685744    129416.92   -40523.561    2803.1463   -43326.707    90.154656    0.9650476 
   47300    222.28812    133.04959    129410.39   -40553.832    2765.6868   -43319.519    90.260349   0.96509635 
   47400    222.62282    182.60806    129321.03   -40522.551    2769.8511   -43292.403    90.366146   0.96576317 
   47500    221.45057    88.222502    129244.32    -40478.71    2755.2661   -43233.976    90.426785   0.96633642 
   47600    220.88754    153.30058     129498.7   -40425.895    2748.2609   -43174.156    90.725126   0.96443815 
   47700    220.46245    137.52717    129605.12   -40462.133    2742.9721   -43205.105    91.246937   0.96364626 
   47800    219.97769   -63.736957    129400.52   -40457.868    2736.9407   -43194.809    91.038816    0.9651699 
   47900    216.71653     171.1559    129390.34   -40541.512    2696.3657   -43237.878    91.252472   0.96524584 
   48000     222.0804    15.849823    129382.32   -40567.425    2763.1024   -43330.527    91.290159   0.96530568 
   48100     220.2909    165.30762    129319.38   -40545.632    2740.8376    -43286.47    91.370932   0.96577553 
   48200    217.36822    107.20677    129500.02   -40573.058    2704.4739   -43277.531    91.417009   0.96442832 
   48300    221.24644    178.93329    129545.88   -40558.468    2752.7264   -43311.194    91.557693   0.96408691 
   48400    225.48271     180.3948    129728.85   -40483.736    2805.4336   -43289.169    91.849882   0.96272716 
   48500    218.02837   -31.928805    129607.69   -40544.702    2712.6874   -43257.389    91.813113   0.96362715 
   48600    220.64716    200.83462    129566.96   -40556.164    2745.2701   -43301.434     92.12772   0.96393009 
   48700     227.1573   -1.3233204    129465.37   -40538.987    2826.2687   -43365.256    92.072153   0.96468645 
   48800    219.45249    251.15935    129430.01   -40568.132    2730.4062   -43298.538    92.525572   0.96495003 
   48900    221.19728    150.85037    129592.22   -40547.611    2752.1147   -43299.726    92.741788    0.9637422 
   49000    216.04204    47.504392    129356.11   -40596.027    2687.9737   -43284.001      92.9398   0.96550129 
   49100     218.2399    123.25395    129417.32   -40585.504    2715.3192   -43300.823    92.925981   0.96504461 
   49200     219.0027    281.54171    129428.78   -40616.144    2724.8099   -43340.954     93.30552   0.96495923 
   49300     221.8413   -20.272532    129627.25   -40556.567    2760.1276   -43316.695    93.355337   0.96348176 
   49400    221.46614    306.52252    129825.31   -40529.858    2755.4598   -43285.317    93.641795   0.96201186 
   49500    222.37893    108.40131    129549.13   -40561.059    2766.8167   -43327.876    93.719622   0.96406275 
   49600    220.44731    151.64997     129412.5   -40570.202    2742.7837   -43312.986    93.715426   0.96508055 
   49700    217.06466    73.962857     129416.8    -40571.13     2700.697   -43271.827    94.013339   0.96504854 
   49800     215.9155    48.469966    129447.62   -40619.476    2686.3993   -43305.875    94.094583   0.96481872 
   49900    220.32373    33.575111    129594.49   -40510.178     2741.246   -43251.424    94.356805   0.96372535 
   50000    222.73261    198.98826    129459.88   -40550.595    2771.2171   -43321.812    94.462765   0.96472737 
   50100    217.78091    275.25155    129494.84    -40564.04    2709.6085   -43273.649    94.315451   0.96446695 
   50200    221.76562    202.66323    129530.34   -40608.523     2759.186   -43367.709    94.788529   0.96420263 
   50300     221.4151    79.665754    129685.47    -40590.14    2754.8248   -43344.965     94.89522   0.96304925 
   50400    220.15031    117.08546    129595.03   -40627.512    2739.0884   -43366.601    94.755984   0.96372132 
   50500    218.43615   -141.63396    129482.65    -40662.91     2717.761   -43380.671    94.557643   0.96455776 
   50600    218.01413    190.86885    129421.23   -40666.205    2712.5102   -43378.715    94.748673   0.96501551 
   50700    213.32933    175.57807    129422.59   -40668.229    2654.2224   -43322.451    95.104082   0.96500535 
   50800    214.77607    29.205845    129501.29   -40644.665    2672.2226   -43316.888    95.226262    0.9644189 
   50900    217.04232    48.782152     129570.5   -40563.107    2700.4191   -43263.526    95.535997   0.96390377 
   51000    220.81215    191.80599    129600.77   -40580.945    2747.3229   -43328.268    95.815755   0.96367862 
   51100    219.68943    -20.23445    129533.69   -40613.606    2733.3542   -43346.961    95.558015    0.9641777 
   51200    221.57888    226.78736    129792.81   -40594.908    2756.8626    -43351.77    95.631576   0.96225279 
   51300    217.15103   -38.405297     129704.9    -40661.91    2701.7716   -43363.682    95.697012   0.96290493 
   51400    219.56562    107.24988    129595.31   -40665.746    2731.8138    -43397.56    95.717522   0.96371919 
   51500    216.37621    170.22163    129774.18   -40649.002    2692.1314   -43341.134    95.812909   0.96239092 
   51600    215.93073   -28.480618    129569.56   -40597.488    2686.5888   -43284.076      96.0141   0.96391075 
   51700    218.66591    25.648212     129648.8    -40569.05    2720.6197   -43289.669    96.302704   0.96332161 
   51800    218.93099    227.74233    129558.18   -40601.747    2723.9177   -43325.665    96.392059    0.9639954 
   51900    218.14419    185.45407    129647.79   -40629.256    2714.1285   -43343.385    96.613242   0.96332915 
   52000    214.75878    29.127658    129556.05   -40646.851    2672.0075   -43318.859    96.823004   0.96401128 
   52100    217.51879    135.04076     129607.1   -40587.049    2706.3473   -43293.396    96.967939   0.96363158 
   52200    218.83988    109.81369     129623.1   -40608.251    2722.7842   -43331.035    97.212682   0.96351262 
   52300     216.7872     24.24997    129430.84   -40586.932    2697.2449   -43284.176    97.322089   0.96494383 
   52400    220.22015    123.16525     129295.5   -40541.437    2739.9574   -43281.394    97.299824   0.96595388 
   52500    220.72487    56.247519    129316.94   -40545.452     2746.237   -43291.689    97.299241   0.96579372 
   52600    217.55801    6.5113787    129395.47   -40584.554    2706.8353   -43291.389    97.380892   0.96520762 
   52700    214.73433    43.168505    129301.51   -40611.803    2671.7033   -43283.506    97.635852     0.965909 
   52800    222.86455   -71.991614    129264.24   -40561.542    2772.8586   -43334.401    97.735548    0.9661875 
   52900    219.44325    111.76599    129259.75   -40571.148    2730.2912    -43301.44    97.936494   0.96622102 
   53000    223.31205    6.5832222    129237.53   -40548.796    2778.4264   -43327.222    97.922889   0.96638716 
   53100    219.90697    134.46389     129195.5   -40578.194    2736.0608   -43314.255    98.076719   0.96670156 
   53200    219.57974    138.57622    129361.66   -40573.587    2731.9894   -43305.576    98.121028   0.96545985 
   53300    223.69087     135.7428     129368.2   -40567.774    2783.1397   -43350.913    98.576126   0.96541109 
   53400    218.10243    35.680856    129376.83   -40644.179    2713.6089   -43357.787    98.850207   0.96534663 
   53500    216.86971      68.5641    129073.06   -40654.229    2698.2714     -43352.5    98.683725   0.96761857 
   53600    219.66028    40.427547     128990.8   -40649.989    2732.9915    -43382.98    98.675991   0.96823565 
   53700    219.29551    162.01511       129176   -40678.331    2728.4531   -43406.785     99.20524   0.96684747 
   53800    220.55191    74.608053    129394.81   -40566.323    2744.0851   -43310.408    99.270835   0.96521253 
   53900     218.7689    267.62035    129434.57   -40627.149    2721.9011    -43349.05    99.380525   0.96491601 
   54000    218.96416    109.49941    129377.77   -40603.379    2724.3304   -43327.709    99.228901   0.96533963 
   54100    218.58249    25.672088    129345.52   -40623.434    2719.5817   -43343.016    99.784187   0.96558033 
   54200    222.57058    138.49024    129166.97   -40604.019    2769.2011    -43373.22    99.849938   0.96691507 
   54300    219.57487    201.08164     129234.4   -40579.586    2731.9288   -43311.515    100.31645    0.9664106 
   54400    223.08842   -100.94103    129351.97    -40611.02    2775.6441   -43386.664    100.73371   0.96553221 
   54500    221.51388    116.13659    129230.22   -40607.765    2756.0538   -43363.819    100.79805   0.96644185 
   54600    225.80823    116.11352    129389.46   -40509.628    2809.4837   -43319.112    100.95139   0.96525241 
   54700    221.91669    55.120485    129343.95   -40515.332    2761.0656   -43276.398    101.33748   0.96559209 
   54800        220.6      103.252    129120.89   -40581.113    2744.6834   -43325.797    101.43267   0.96726018 
   54900    219.64375     116.2962    129070.61   -40608.519    2732.7858   -43341.305    101.46339   0.96763694 
   55000    217.94314    100.83268    129005.01   -40670.007     2711.627   -43381.634    101.32563     0.968129 
   55100    218.16517    66.459819    129092.71   -40636.687    2714.3895   -43351.077    101.56519   0.96747128 
   55200    215.08451    176.31916    128999.19   -40648.937    2676.0602   -43324.997    101.63364   0.96817265 
   55300    221.41008     191.5538    129142.25   -40606.413    2754.7624   -43361.175    102.18059    0.9671002 
   55400     223.7219   -26.097825    129218.52   -40591.058    2783.5258   -43374.584    102.48262   0.96652934 
   55500    220.81759    197.01308    129253.54     -40542.1    2747.3906   -43289.491    102.25983   0.96626748 
   55600    221.47398    46.313439    129354.24   -40584.347    2755.5573   -43339.905    102.40796   0.96551523 
   55700    219.07542   -18.955938    129128.36   -40578.124    2725.7147   -43303.838    102.31016   0.96720419 
   55800    220.55975    161.91235    129193.58   -40571.985    2744.1826   -43316.168    102.69993    0.9667159 
   55900    223.47687    49.207418    129149.95    -40539.21    2780.4771   -43319.687    102.91827    0.9670425 
   56000    225.51468    237.67919    129049.71   -40553.594    2805.8313   -43359.425    103.37244   0.96779368 
   56100    220.94164    140.53207    129103.65    -40523.77    2748.9341   -43272.704    103.50608   0.96738934 
   56200    223.20504    137.94139     129031.5   -40524.654     2777.095   -43301.749    103.36788   0.96793026 
   56300    223.46205   -65.539471    128872.42   -40553.735    2780.2927   -43334.028    103.27613   0.96912505 
   56400    221.58585   -33.953941    128895.17   -40524.132    2756.9492   -43281.081    103.33579   0.96895398 
   56500    209.71423    250.60403    128854.12   -40605.821    2609.2437   -43215.065    103.62355   0.96926266 
   56600    216.19194    101.10662    128977.01   -40612.834    2689.8388   -43302.673    103.88315   0.96833916 
   56700    217.04699    62.500414    128949.75   -40649.407    2700.4772   -43349.885    104.52621   0.96854386 
   56800    214.51417    210.41117    128777.32   -40580.654    2668.9641   -43249.618    104.56408   0.96984071 
   56900    215.55541    65.521187    128844.01   -40556.638    2681.9191   -43238.557    104.62434   0.96933876 
   57000    221.81559    170.47838    129137.91   -40493.606    2759.8077   -43253.414    104.47159   0.96713265 
   57100    217.92971    71.620356    129227.04   -40546.114    2711.4599   -43257.574    104.64041   0.96646562 
   57200     218.7342    208.39839    129208.23   -40589.005    2721.4692   -43310.474    104.89311   0.96660629 
   57300    217.77252    64.255827    129234.27   -40635.044    2709.5041   -43344.548    104.94802   0.96641152 
   57400    216.66101    57.329616     129108.4   -40656.593    2695.6749   -43352.268    105.23441    0.9673537 
   57500    215.73619    20.914704    129222.86    -40704.98    2684.1683   -43389.149    105.44558   0.96649687 
   57600    217.01866    198.54379    129167.68   -40657.886    2700.1247   -43358.011    105.33995   0.96690977 
   57700    213.80552     34.93097    129303.29   -40702.932    2660.1471   -43363.079    105.49446   0.96589567 
   57800    215.32768    -10.19321    129268.31   -40739.103    2679.0857   -43418.188     105.3807   0.96615703 
   57900    217.90357    297.23759    129321.24    -40711.74    2711.1347   -43422.875    105.39555   0.96576165 
   58000    217.80749    103.85173    129363.32   -40709.513    2709.9393   -43419.452    105.32929   0.96544746 
   58100     212.8578    50.041751    129414.36   -40639.865    2648.3557   -43288.221    105.52986   0.96506669 
   58200    219.75499    27.805751     129369.7   -40578.136    2734.1699   -43312.306    105.80192   0.96539988 
   58300    222.11073    88.236568     129248.2   -40508.497    2763.4797   -43271.976    106.06565   0.96630743 
   58400    221.87266    201.89221    129205.28    -40513.92    2760.5178   -43274.438    106.41872   0.96662839 
   58500    221.99144    160.56049    129359.74   -40519.723    2761.9955   -43281.718    106.38864   0.96547423 
   58600    217.92724    190.22196    129386.95   -40469.277    2711.4291   -43180.706    106.52628   0.96527118 
   58700    220.28453    276.39951    129425.99   -40480.561    2740.7584    -43221.32     106.7978   0.96497999 
   58800    221.04587   -40.290647    129463.55   -40535.083    2750.2309   -43285.314    106.98386   0.96470005 
   58900    218.15267    74.335859    129255.86     -40583.5     2714.234   -43297.734    107.09074   0.96625016 
   59000    220.49173     273.8093     129337.6    -40572.59    2743.3363   -43315.926    107.20051   0.96563944 
   59100     221.7006   -75.051276     129200.8    -40584.26     2758.377   -43342.637    107.00193   0.96666192 
   59200    221.89243    81.004886    129313.86   -40612.232    2760.7636   -43372.996    107.26522   0.96581672 
   59300    221.16669     68.29383    129046.28   -40621.651    2751.7341   -43373.385    107.17425   0.96781935 
   59400    219.98238    207.69116    128995.76    -40674.09    2736.9991   -43411.089    107.39342    0.9681984 
   59500     217.6011    133.06957    129174.88   -40642.957    2707.3714   -43350.329    107.74989   0.96685587 
   59600    217.26811    40.979436    129141.43   -40634.889    2703.2284   -43338.117    107.94453   0.96710629 
   59700    218.17903   -8.2686719    128912.09   -40652.066    2714.5619   -43366.628    107.74944   0.96882685 
   59800     213.8499    -58.94375    128957.84   -40651.374    2660.6993   -43312.073    107.95397   0.96848311 
   59900    215.50395    118.62033    128968.58     -40614.8    2681.2788   -43296.079    107.95201   0.96840248 
   60000    217.78925    151.00911    128990.99   -40633.881    2709.7123   -43343.593    107.83767   0.96823419 
   60100    218.75488     139.9433    129168.54   -40601.176    2721.7266   -43322.903    107.93354   0.96690335 
   60200    220.89254    10.817899     129167.6   -40588.511    2748.3232   -43336.834    108.11623   0.96691039 
   60300    220.53908     192.1701    129363.77   -40548.925    2743.9254   -43292.851    108.27262    0.9654441 
   60400    223.49468     151.7632    129340.81   -40488.588    2780.6987   -43269.287    108.61059   0.96561549 
   60500    225.61081    135.29347    129175.89   -40525.427    2807.0274   -43332.454    108.54723   0.96684828 
   60600     223.9095     84.94966    128962.68   -40572.973    2785.8599   -43358.833    108.53075   0.96844676 
   60700    217.37237    51.723237    128884.77   -40593.324    2704.5256    -43297.85    108.72613   0.96903221 
   60800    220.24168    129.52381    128859.43   -40548.685    2740.2253    -43288.91    108.98419   0.96922273 
   60900    223.16731    29.765239    128949.59   -40533.219    2776.6256   -43309.845    109.45163   0.96854508 
   61000    219.46478   -40.465653    128804.27   -40566.745    2730.5591   -43297.304    109.32001    0.9696378 
   61100    217.64257    218.60468    128808.26   -40593.601    2707.8873   -43301.488    109.62926   0.96960777 
   61200    214.66851   -57.236861    128853.09    -40595.68    2670.8843   -43266.564    109.73093   0.96927044 
   61300    217.07268    98.026257    128779.65   -40568.448    2700.7968   -43269.245    109.90566   0.96982319 
   61400    214.23329    198.69889    128587.23   -40592.772    2665.4694   -43258.242    109.95298   0.97127448 
   61500    217.84198    147.75351    128722.34   -40580.711    2710.3683    -43291.08    109.78906   0.97025501 
   61600    221.21725    133.98358    128723.37   -40540.563    2752.3631   -43292.926    110.07542   0.97024725 
   61700    217.83074    118.51167    128678.61   -40620.916    2710.2285   -43331.144     110.1946    0.9705847 
   61800    213.52484    64.987719    128511.09   -40672.965     2656.655    -43329.62    110.51791   0.97184994 
   61900    216.73416    60.539075    128679.49   -40595.526    2696.5849   -43292.111    110.50151   0.97057808 
   62000    215.94826    120.39916    128886.07   -40546.701    2686.8069   -43233.508     110.7832   0.96902238 
   62100    217.20295    11.494046    128814.43   -40553.389    2702.4177   -43255.807    110.68341   0.96956135 
   62200    223.75615   -51.710269    128839.77   -40507.284    2783.9519   -43291.236    110.66796   0.96937063 
   62300    219.31883    134.84574    128775.21   -40544.451    2728.7431   -43273.194    111.04553   0.96985665 
   62400    221.30259    247.86215    128702.38   -40490.029    2753.4249   -43243.454    111.51702   0.97040547 
   62500     222.5643   -121.95494     128505.4   -40516.995     2769.123   -43286.118    111.56717   0.97189295 
   62600    222.60875    231.58655    128604.99   -40525.423    2769.6761   -43295.099    111.97501   0.97114031 
   62700    218.70874   -67.347869    128706.09   -40548.744    2721.1525   -43269.897    112.44494   0.97037746 
   62800    221.84559    198.41016       128577   -40525.543    2760.1809   -43285.724    112.14288   0.97135175 
   62900    219.98285    103.28274    128674.29   -40471.607    2737.0049   -43208.612    112.28941   0.97061731 
   63000    223.14492    51.071909    128789.86   -40426.015     2776.347   -43202.362    112.61136   0.96974633 
   63100    221.91707    22.857761    128947.96   -40406.793    2761.0703   -43167.864    112.55278    0.9685573 
   63200    223.27764    186.06866    128799.48   -40422.795    2777.9984   -43200.793    112.72016   0.96967389 
   63300    221.18226    136.65402    128884.11   -40462.274    2751.9278   -43214.202    113.05076   0.96903713 
   63400    223.02713    249.86352    128749.91   -40384.482    2774.8815   -43159.363    113.02512   0.97004721 
   63500    218.98805    92.110302    128869.44   -40461.162    2724.6277    -43185.79    113.33599   0.96914749 
   63600    221.67873   -128.34861    128919.88   -40456.972    2758.1049   -43215.077    113.83489   0.96876826 
   63700    221.44571    -27.00868     128665.4   -40467.679    2755.2056   -43222.884    113.49908   0.97068439 
   63800    219.64929    150.16885    128639.59   -40575.268    2732.8548   -43308.122    112.92445    0.9708791 
   63900    215.45146   -17.040447    128566.76   -40571.735    2680.6257   -43252.361    112.86854   0.97142912 
   64000    221.07472    172.43208    128579.98   -40562.835    2750.5899   -43313.425    113.16589    0.9713292 
   64100    218.92729    45.710389    128707.59   -40501.579    2723.8717   -43225.451    113.70593    0.9703662 
   64200    221.18805    86.755265    128625.76   -40514.357    2751.9998   -43266.357    113.86779   0.97098348 
   64300    224.01642    144.68631     128436.9   -40423.066    2787.1902   -43210.256     114.1646   0.97241128 
   64400    219.64407   -225.79709    128437.45   -40455.446    2732.7899   -43188.236    114.74514   0.97240713 
   64500    223.51739   -52.878184    128239.63   -40437.383    2780.9813   -43218.364    114.56295   0.97390711 
   64600    218.33919   -13.608746    128311.98   -40464.917    2716.5546   -43181.472    114.84812   0.97335799 
   64700    219.72519    61.884583    128429.68   -40466.033    2733.7991   -43199.832    114.82352   0.97246597 
   64800    220.95202    70.832281    128194.92   -40482.903    2749.0632   -43231.967    114.80543   0.97424682 
   64900    218.97081    313.69849    128175.58    -40467.16    2724.4132   -43191.573    114.98056   0.97439384 
   65000    225.09333   -133.35177    128281.02   -40426.363     2800.589   -43226.952    115.11598   0.97359291 
   65100    219.62289    176.55191    128221.44   -40449.331    2732.5262   -43181.857    115.46916    0.9740453 
   65200    222.07402    64.699351    128343.78   -40450.285     2763.023   -43213.308    115.58598   0.97311685 
   65300    224.26512    193.08876    128481.73   -40456.022    2790.2845   -43246.306    116.09625   0.97207198 
   65400    222.07751    136.69299    128480.22   -40413.731    2763.0665   -43176.798    116.30936   0.97208338 
   65500    221.78892    58.495971    128692.48   -40494.921    2759.4759   -43254.397    116.88521   0.97048013 
   65600    221.99031    193.50235    128865.32   -40555.744    2761.9815   -43317.725    117.15845   0.96917847 
   65700    217.95524    93.909149    128656.97   -40593.989    2711.7776   -43305.767    117.11033     0.970748 
   65800    214.42098     84.18447    128838.36   -40584.768    2667.8046   -43252.572      117.072   0.96938123 
   65900    219.22135    17.198252    128753.71   -40545.721    2727.5304   -43273.252     117.3223   0.97001857 
   66000     221.4691    49.196178    128684.24   -40443.677    2755.4966   -43199.174    117.20375   0.97054227 
   66100    222.63312    195.25245    128777.67   -40406.249    2769.9792   -43176.228    117.52169   0.96983807 
   66200    223.41485    66.025347    128910.44   -40384.791    2779.7055   -43164.497    117.80568   0.96883921 
   66300     227.9648    127.38334    128862.14   -40427.158    2836.3155   -43263.473    117.92598   0.96920238 
   66400    221.55691    256.69829    128856.61    -40480.47    2756.5892   -43237.059    117.84705   0.96924393 
   66500    221.37445   -171.48993    129054.93    -40509.47     2754.319   -43263.789    117.84194    0.9677545 
   66600    219.71168    23.308726     128894.5   -40521.585     2733.631   -43255.216    117.91932   0.96895901 
   66700    218.06944    87.827474    128852.79   -40538.611    2713.1985   -43251.809    118.42223   0.96927273 
   66800    220.81174    144.65498    128948.32   -40461.979    2747.3179   -43209.297     118.5303   0.96855459 
[...]
   84600    217.94783    205.35486    129631.66   -40744.183    2711.6853   -43455.868    144.48849   0.96344895 
   84700    218.69152    338.03559    129778.65   -40768.029    2720.9383   -43488.968     144.8499   0.96235776 
   84800    223.13658     13.34478    129813.19   -40740.971    2776.2433   -43517.214    145.04702   0.96210169 
   84900    216.10273    99.094648    129788.03   -40728.332    2688.7288   -43417.061    145.19992   0.96228824 
   85000    222.65608    169.40682    129914.02    -40672.22    2770.2649   -43442.485    145.23688   0.96135502 
   85100    221.38224    89.234427    130040.02   -40676.587    2754.4159   -43431.003    145.53662   0.96042349 
   85200    216.52631    63.896243    129967.28   -40689.221     2693.999    -43383.22    145.56061     0.960961 
   85300    218.93978    36.987646    130020.14   -40723.197     2724.027   -43447.224    146.05167   0.96057033 
   85400    220.45601    50.695549    129878.04    -40715.11    2742.8919   -43458.002    146.00269   0.96162134 
   85500    224.37427    130.77086    129871.25   -40687.518    2791.6425    -43479.16    146.04166   0.96167161 
   85600    219.24274    52.321152    129784.62   -40667.865    2727.7965   -43395.662    145.85876   0.96231346 
   85700     216.3684    61.989457    129805.86   -40709.759    2692.0342   -43401.793    145.71616   0.96215607 
   85800    217.52601    60.682771    129668.87   -40703.634    2706.4371   -43410.071    145.78623   0.96317254 
   85900    222.32581     47.91304    129590.27   -40605.682    2766.1558   -43371.838    145.78033   0.96375673 
   86000     220.7782    110.82964     129716.1   -40659.284    2746.9006   -43406.185    146.00972   0.96282182 
   86100    223.96936    104.18313    129873.59   -40662.124    2786.6047   -43448.729     146.3916   0.96165428 
   86200    222.13345    120.18378    129794.65   -40636.609    2763.7625   -43400.372    146.41259    0.9622391 
   86300    222.13895    86.174416    129854.77   -40667.761    2763.8309   -43431.592     147.0527    0.9617936 
   86400    223.25995    199.99521    129714.08   -40677.972    2777.7783   -43455.751    146.63331   0.96283681 
   86500    216.66128   -18.789124    129722.06   -40662.511    2695.6783   -43358.189    146.73647   0.96277755 
   86600    224.58385   -31.110637    129524.38   -40593.906    2794.2501   -43388.156    146.48067   0.96424695 
   86700    222.33829   -48.142498    129453.59   -40573.394     2766.311   -43339.705     146.9557   0.96477423 
   86800    218.66643    138.77001    129353.84   -40635.927    2720.6261   -43356.554     146.9639   0.96551823 
   86900     222.3405    129.24442    129308.76    -40596.22    2766.3386   -43362.558    147.33905   0.96585484 
   87000    220.76906    55.425311    129253.41   -40602.218    2746.7868   -43349.005    147.33943   0.96626848 
   87100    217.03359    15.549795    129320.12   -40628.844    2700.3105   -43329.154    147.46813   0.96576999 
   87200    222.65726    153.25449    129287.95   -40622.493    2770.2796   -43392.773    147.48097   0.96601032 
   87300     222.4347    202.64806    129303.05   -40619.806    2767.5106   -43387.317    147.55815   0.96589748 
   87400    222.38589    54.701838    129274.92   -40647.192    2766.9032   -43414.095    147.48137   0.96610768 
   87500    219.47889    102.82337    129312.41   -40660.518    2730.7346   -43391.253    147.88926   0.96582755 
   87600    218.50188    59.042958    129247.45    -40662.49    2718.5789   -43381.069    148.01881     0.966313 
   87700    217.33345   -60.651796    129147.24   -40657.358    2704.0413   -43361.399    148.00892    0.9670628 
   87800    220.11934    250.93733    129234.94   -40618.203     2738.703   -43356.906    148.06564   0.96640657 
   87900    214.54499    142.74108     129139.7   -40617.483    2669.3476    -43286.83    148.13735   0.96711925 
   88000    218.39115    77.760718    129126.61   -40639.735    2717.2011   -43356.936    148.22499   0.96721732 
   88100    215.87467    65.752422    128802.92   -40563.078    2685.8913    -43248.97    148.20909   0.96964797 
   88200    219.97074    274.02341    128935.54   -40554.838    2736.8542   -43291.692    148.19526   0.96865066 
   88300     224.4131    125.76877    128981.19    -40572.61    2792.1256   -43364.736    148.74526   0.96830781 
   88400    213.44346     112.4856    129101.36    -40669.81    2655.6424   -43325.453    149.00942   0.96740648 
   88500    221.86596    56.337589    129108.54   -40570.966    2760.4343     -43331.4    148.93961   0.96735271 
   88600    224.24314    14.956152     129325.9   -40531.102     2790.011   -43321.113    148.95482   0.96572681 
   88700    220.25837    161.95402    129398.31   -40506.695    2740.4328   -43247.128    149.76722   0.96518641 
   88800    221.11684    184.48251    129423.61   -40435.539    2751.1139   -43186.653     149.9733   0.96499772 
   88900    222.08773   -12.921729    129610.84   -40483.108    2763.1935   -43246.301     150.0236   0.96360378 
   89000    224.04182    133.83585    129556.38    -40487.76    2787.5062   -43275.266    149.81374   0.96400881 
   89100    219.46872    99.470689    129400.75   -40592.874    2730.6082   -43323.482    149.88241   0.96516821 
   89200    221.30633    215.57684    129170.04   -40630.622    2753.4715   -43384.093    149.81315   0.96689211 
   89300    216.81646     168.7981    129332.76   -40639.242     2697.609   -43336.851     150.2754   0.96567562 
   89400    218.54356    159.06862    129393.71   -40664.579    2719.0974   -43383.677    150.54765   0.96522074 
   89500    216.49629   -12.690535    129558.91   -40719.198    2693.6255   -43412.824    151.29614   0.96398998 
   89600    214.20897    113.85353    129626.95   -40764.244    2665.1668   -43429.411     151.4028   0.96348402 
   89700    217.65669    184.50814    129583.58   -40734.965     2708.063   -43443.028    151.20378   0.96380644 
   89800    215.88768    98.443248    129585.33   -40699.964    2686.0532   -43386.017    150.76767   0.96379342 
   89900    216.41743   0.90330554    129598.71   -40750.557    2692.6442   -43443.201    150.94615   0.96369394 
   90000    218.97221   -24.117934    129378.38   -40661.084    2724.4306   -43385.514     150.9859   0.96533512 
   90100    218.45289    97.075859     129206.7   -40672.201    2717.9692    -43390.17    151.13706   0.96661773 
   90200    214.18262     237.7186    129142.84   -40696.833     2664.839   -43361.672    151.10364   0.96709577 
   90300    217.80283    233.94316    129159.19   -40706.796    2709.8813   -43416.677    151.64071   0.96697335 
   90400    218.07186    97.731247    129399.54   -40695.482    2713.2286   -43408.711    152.07779   0.96517725 
   90500    219.24534    125.65523    129492.35   -40664.003    2727.8288   -43391.832    152.56501   0.96448546 
   90600    221.87927    159.47071    129535.09   -40576.704    2760.5999   -43337.304     152.5352   0.96416723 
   90700    222.21392    15.722384    129460.22   -40570.298    2764.7636   -43335.061    152.46808   0.96472486 
   90800    218.26775     27.54198    129284.13    -40594.33    2715.6658   -43309.995    152.31174   0.96603886 
   90900    215.29515    261.15284    129198.14   -40683.355     2678.681   -43362.036     152.4491   0.96668183 
   91000    217.19951   -38.284136    129166.01   -40702.085    2702.3749    -43404.46    152.83062   0.96692227 
   91100    215.89661    112.66612    129014.73    -40700.72    2686.1643   -43386.884    152.84414   0.96805603 
   91200    219.88215   -14.649371     129103.6   -40666.515     2735.752   -43402.267    153.12421   0.96738968 
   91300    223.87254    55.949367    129091.05   -40577.836       2785.4   -43363.236    152.76818   0.96748371 
   91400    223.34104     305.3134    129266.12   -40555.028    2778.7871   -43333.815    153.16369   0.96617344 
   91500    223.00904    184.81891    129388.04   -40570.927    2774.6564   -43345.584    153.25537   0.96526306 
   91600    221.83382    64.420999    129403.29   -40604.196    2760.0345   -43364.231    153.84672   0.96514924 
   91700    219.85512    84.690617    129563.88   -40663.304    2735.4157    -43398.72    153.80628   0.96395302 
   91800    219.66597   0.28468419    129560.01   -40633.984    2733.0623   -43367.047    153.97803   0.96398177 
   91900    221.80159    79.106453    129516.56   -40636.075    2759.6334   -43395.708    154.28737   0.96430521 
   92000    219.37292    189.52393    129525.83   -40649.001    2729.4161   -43378.417    154.74953   0.96423614 
   92100    219.15148   -34.318742    129554.85   -40698.026    2726.6611   -43424.687     154.9191   0.96402018 
   92200     223.5925    45.005269     129495.2   -40635.818    2781.9158   -43417.734    154.90131   0.96446429 
   92300    222.05616    21.660994     129437.9   -40545.859    2762.8008    -43308.66    155.24742   0.96489121 
   92400    226.02679    163.22406    129430.92   -40550.286    2812.2029   -43362.489    155.45374   0.96494323 
   92500    217.98399    205.48555    129490.96   -40583.476    2712.1353   -43295.611     155.5354   0.96449581 
   92600    223.44374    189.31902    129517.74   -40553.924     2780.065   -43333.989    155.50144   0.96429642 
   92700    221.33156    109.63015     129584.4   -40527.256    2753.7854   -43281.041    155.73419   0.96380038 
   92800    218.00246    46.997164    129390.24   -40560.695    2712.3651    -43273.06     155.6568   0.96524661 
   92900    218.06995    87.468219     129416.9   -40512.215    2713.2048    -43225.42    155.39403   0.96504776 
   93000    219.80538   -74.551805    129414.89   -40539.962    2734.7968   -43274.759    155.75538   0.96506273 
   93100    222.66515   -7.5461638    129244.76   -40481.424    2770.3777   -43251.801    155.63241   0.96633312 
   93200    220.33181    23.366176       129395   -40491.951    2741.3466   -43233.298    155.98657   0.96521108 
   93300    220.18246    27.073851    129497.87   -40506.573    2739.4883   -43246.061    156.48955   0.96444437 
   93400    221.71314     148.7928    129308.76   -40558.603     2758.533   -43317.136    156.22799   0.96585481 
   93500    216.05751    277.23157    129392.83   -40611.361    2688.1662   -43299.527    156.73904   0.96522726 
   93600    213.68891   -49.727022    129449.82   -40674.779    2658.6963   -43333.476    157.26373   0.96480239 
   93700    218.14686   -114.38913     129356.8   -40643.372    2714.1617   -43357.534    156.90413   0.96549617 
   93800    213.32264    304.22029    129371.36   -40603.782    2654.1392   -43257.921    156.67812   0.96538745 
   93900    218.00177    109.02832    129265.76     -40585.4    2712.3564   -43297.756     156.6942   0.96617611 
   94000    218.96879    319.29877    129323.71   -40584.078     2724.388   -43308.466    156.81483   0.96574322 
   94100    218.83211   -31.719745    129533.78   -40582.045    2722.6875   -43304.733    157.06096   0.96417696 
   94200    218.67427    55.784169    129409.96   -40580.217    2720.7237   -43300.941    157.07509   0.96509955 
   94300    221.92501    284.80211    129493.64   -40538.392    2761.1691   -43299.561    157.51349   0.96447585 
   94400    224.80654    151.31239    129522.83   -40537.636    2797.0208   -43334.657    157.90342   0.96425853 
   94500    220.99316    227.70541    129775.03   -40478.033     2749.575   -43227.608    157.76717   0.96238459 
   94600    219.06835    191.22921    129646.95    -40518.92    2725.6267   -43244.546    157.36655   0.96333537 
   94700    218.33413    108.57262    129598.26   -40556.621    2716.4917   -43273.113    157.45361    0.9636973 
   94800    216.22269   -8.5970726    129509.17    -40544.89    2690.2213   -43235.111    157.86044   0.96436019 
   94900    216.39643    38.114996    129599.14   -40513.471     2692.383   -43205.854    157.69474   0.96369076 
   95000    218.71632     121.6352    129639.01   -40491.215    2721.2468   -43212.462    158.52862   0.96339434 
   95100    221.35378    44.910313    129699.37   -40491.719    2754.0618   -43245.781    158.50598   0.96294604 
   95200    222.75132    145.15148    129617.62   -40521.113    2771.4499   -43292.562    158.46043   0.96355331 
   95300    225.22875     136.6948    129574.48   -40426.798    2802.2739   -43229.072    158.37681   0.96387412 
   95400    224.27274     27.98186    129437.02   -40509.975    2790.3792   -43300.354    158.06301   0.96489776 
   95500    220.15677    15.420495    129361.55    -40514.45    2739.1688   -43253.619    158.27559   0.96546068 
   95600    221.00879    164.25276    129211.73   -40500.591    2749.7695   -43250.361    158.49439   0.96658013 
   95700    219.68254   -20.259791    129176.95   -40554.644    2733.2684   -43287.912     158.6747   0.96684039 
   95800    214.55952    122.43274     129151.2   -40609.645    2669.5283   -43279.174    158.88086   0.96703317 
   95900    224.66141    55.738596    129210.89   -40560.969    2795.2151   -43356.184    159.31378   0.96658645 
   96000    218.80706    142.95356    129140.07   -40640.144    2722.3758    -43362.52    159.10522   0.96711645 
   96100    221.25706     55.41558    129022.17   -40596.948    2752.8585   -43349.806    158.83418   0.96800026 
   96200    217.72255     104.2664     128822.9   -40643.511    2708.8824   -43352.393    158.87141   0.96949758 
   96300    221.04193    141.72145    128947.67   -40598.568    2750.1818    -43348.75    158.94043   0.96855951 
   96400    222.65043    188.37815    129191.34   -40589.017    2770.1946   -43359.212    159.60686   0.96673269 
   96500    217.69274    199.21549    129128.49   -40637.401    2708.5116   -43345.913    159.77119   0.96720323 
   96600    220.92355    86.519742    129086.34   -40633.245     2748.709   -43381.954    159.90128   0.96751905 
   96700     216.4986   -29.827785    129167.04   -40708.098    2693.6542   -43401.753    159.97102   0.96691457 
   96800    212.20705    59.505374    129096.33   -40754.563    2640.2591   -43394.822    160.16315   0.96744413 
   96900    219.02888   -21.062926    129071.66    -40682.52    2725.1357   -43407.656    160.56857    0.9676291 
   97000    213.18029    172.84371    129111.78    -40674.79    2652.3681   -43327.158    160.81313   0.96732839 
   97100    215.53449    76.322324    129054.05   -40656.774    2681.6588   -43338.433    160.64126   0.96776108 
   97200    216.18923    75.670413    129011.87   -40658.721     2689.805   -43348.526    160.86812   0.96807755 
   97300    220.08124    330.13998    128962.95   -40660.213     2738.229   -43398.442    160.81715   0.96844472 
   97400    215.57473    203.04937    129064.78   -40659.892    2682.1595   -43342.051    161.31288   0.96768064 
   97500    217.95354    14.950516    129132.28   -40556.994    2711.7565    -43268.75    161.59452   0.96717485 
   97600    219.19137    240.01716    129213.35   -40613.212    2727.1573    -43340.37    161.89153   0.96656803 
   97700    220.94227    358.50496    129465.97   -40539.799    2748.9419    -43288.74    162.46024   0.96468202 
   97800    224.53587    145.97037    129704.54   -40529.335    2793.6531   -43322.988     162.6657   0.96290766 
   97900    221.35031    107.94208    129746.83   -40502.749    2754.0187   -43256.768    163.01378   0.96259379 
   98000    224.84477    29.505937     129661.9   -40533.321    2797.4965   -43330.818    163.25067   0.96322428 
   98100    221.93957    85.856869    129683.69    -40609.67    2761.3501    -43371.02    163.15548   0.96306245 
   98200    220.88747    39.145229    129619.54   -40593.945    2748.2601   -43342.205    163.10702   0.96353904 
   98300    220.71834    219.57994    129675.42   -40627.568    2746.1558   -43373.724     163.2835   0.96312386 
   98400    218.22108    -50.07884    129605.39   -40635.892    2715.0852   -43350.977    163.76892   0.96364429 
   98500    216.82633    34.410223    129617.89   -40636.458    2697.7317   -43334.189    163.81552   0.96355133 
   98600    217.13067    190.86626    129431.95    -40650.45    2701.5183   -43351.969    163.43087   0.96493556 
   98700    215.98553   -82.420848    129455.54   -40702.432    2687.2706   -43389.702    163.32423   0.96475971 
   98800    214.54203    19.170469    129411.27    -40662.85    2669.3107   -43332.161    163.40024   0.96508978 
   98900    215.62543    195.97085    129314.05   -40668.212    2682.7902   -43351.002    163.11125   0.96581534 
   99000    216.38718    194.64155     129398.6    -40697.56    2692.2679   -43389.827    163.24099   0.96518424 
   99100    219.79672     306.1392    129708.55   -40617.204     2734.689   -43351.893    164.05374   0.96287786 
   99200    221.58526    37.208633    129894.23   -40607.759    2756.9419   -43364.701    164.41687   0.96150146 
   99300    218.42236    202.51377    129945.63   -40563.458    2717.5894   -43281.047    164.70009   0.96112111 
   99400    219.69199     106.9016    129996.08   -40531.019    2733.3861   -43264.405    164.92834   0.96074815 
   99500    228.40883    101.93924     129992.7   -40415.331    2841.8401   -43257.171    164.95626    0.9607731 
   99600    223.11012    159.98656    130068.65   -40446.828     2775.914   -43222.742    165.54164   0.96021209 
   99700    226.32755    166.38181    129853.14   -40476.322     2815.945   -43292.267    165.68537   0.96180567 
   99800    224.18425    171.67512    129776.01   -40495.251    2789.2782   -43284.529    165.57347   0.96237734 
   99900    219.79424    85.876694    129780.89    -40552.76    2734.6582   -43287.418    165.56035   0.96234119 
  100000    220.64589    117.62715    129577.28   -40568.824    2745.2543   -43314.078    165.81149   0.96385333 
  100100    226.20026    237.51362       129656   -40492.519    2814.3613    -43306.88    165.73714    0.9632681 
  100200    222.90819    173.78223    129472.42   -40513.613    2773.4017   -43287.015    165.66102   0.96463394 
  100300    224.67575    81.003933    129677.33   -40501.625    2795.3934   -43297.019    165.80657    0.9631097 
  100400    218.86226    127.75619    129607.77   -40523.652    2723.0626   -43246.714    166.56664   0.96362656 
  100500    224.26734    -13.19246     129512.2   -40425.256    2790.3121   -43215.568    166.62318   0.96433768 
  100600    223.30779    120.96049    129319.96   -40496.496    2778.3734   -43274.869    166.81874    0.9657712 
  100630    218.45254    98.755763    129388.11   -40471.746    2717.9649   -43189.711    167.03229   0.96526249 
Loop time of 89.0452 on 6 procs for 100000 steps with 4175 atoms

Performance: 485.147 ns/day, 0.049 hours/ns, 1123.025 timesteps/s
98.7% CPU use with 6 MPI tasks x no OpenMP threads

MPI task timing breakdown:
Section |  min time  |  avg time  |  max time  |%varavg| %total
---------------------------------------------------------------
Pair    | 69.009     | 72.783     | 75.889     |  24.8 | 81.74
Neigh   | 5.1295     | 5.1705     | 5.3491     |   3.5 |  5.81
Comm    | 5.233      | 8.5342     | 12.33      |  74.4 |  9.58
Output  | 0.15937    | 0.16032    | 0.16413    |   0.4 |  0.18
Modify  | 1.7478     | 1.7865     | 1.818      |   2.0 |  2.01
Other   |            | 0.6113     |            |       |  0.69

Nlocal:        695.833 ave         701 max         687 min
Histogram: 1 0 0 0 1 0 0 2 1 1
Nghost:        1468.17 ave        1483 max        1451 min
Histogram: 1 0 2 0 0 0 0 0 2 1
Neighs:        0.00000 ave           0 max           0 min
Histogram: 6 0 0 0 0 0 0 0 0 0
FullNghs:      19534.7 ave       19752 max       19198 min
Histogram: 1 0 0 0 1 1 0 1 1 1

Total # of neighbors = 117208
Ave neighs/atom = 28.073772
Neighbor list builds = 5542
Dangerous builds = 0

undump              1
unfix               2
unfix               3
unfix               4


################################################
#######         Run Simulation         #########
################################################

reset_timestep      0
log                 log.run_${NAME}
log                 log.run_liquid_density_MLmW
