
# Define the lattice
#
variable	    lattice_constant equal 6.36339
lattice		    diamond ${lattice_constant}
lattice		    diamond 6.36339
Lattice spacing in x,y,z = 6.36339 6.36339 6.36339

# Define region
# multiples of lattice spacing
#
region 		    simbox block 0 8 0 8 0 8

# Create Atoms
#
create_box          1 simbox
Created orthogonal box = (0 0 0) to (50.9071 50.9071 50.9071)
  2 by 2 by 3 MPI processor grid
create_atoms        1 box
Created 4096 atoms
  create_atoms CPU = 0.000334024 secs
mass                1 18.015

# Define potential
#
pair_style          sw
pair_coeff          * * ML_mW.sw mW
Reading potential file ML_mW.sw with DATE: 2019-02-27

# Add velocity/set timestep
#
velocity            all create ${TEMP} 120598 rot yes dist gaussian
velocity            all create 289 120598 rot yes dist gaussian
timestep            5.0

# Define output
#
compute	            1 all msd
thermo              50
thermo_style        custom step temp press vol etotal ke pe c_1[4]

# Neighbor lists
#
neigh_modify        delay 0 every 1 check yes

# Set fixes
#
fix                 1 all momentum 10 linear 1 1 1 rescale
fix                 2 all nve
fix                 3 all temp/csvr ${TEMP} ${TEMP} 500.0 928347
fix                 3 all temp/csvr 289 ${TEMP} 500.0 928347
fix                 3 all temp/csvr 289 289 500.0 928347
fix                 4 all press/berendsen iso ${PRES} ${PRES} 1000.0 modulus 20000
fix                 4 all press/berendsen iso 1 ${PRES} 1000.0 modulus 20000
fix                 4 all press/berendsen iso 1 1 1000.0 modulus 20000

# Run 1 ns equilibration
#
dump		    1 all custom 1000 eq.${NAME}.dump id type x y z vx vy vz
dump		    1 all custom 1000 eq.ice_289K_1atm_ML.dump id type x y z vx vy vz
run                 200000
Neighbor list info ...
  update every 1 steps, delay 0 steps, check yes
  max neighbors/atom: 2000, page size: 100000
  master list distance cutoff = 6.00329
  ghost atom cutoff = 6.00329
  binsize = 3.00165, bins = 17 17 17
  1 neighbor lists, perpetual/occasional/extra = 1 0 0
  (1) pair sw, perpetual
      attributes: full, newton on
      pair build: full/bin/atomonly
      stencil: full/bin/3d
      bin: standard
Per MPI rank memory allocation (min/avg/max) = 4.742 | 4.742 | 4.742 Mbytes
Step Temp Press Volume TotEng KinEng PotEng c_1[4] 
       0          289    15718.677    131927.58   -34436.426    3527.6546    -37964.08            0 
      50    130.32113   -349.83132     141290.6   -34824.551    1590.7541   -36415.306   0.82573118 
     100    200.28895   -1308.2304     139988.8   -34247.473    2444.8104   -36692.283    1.1036768 
     150    223.71432   -1909.2688    136934.73   -33905.813    2730.7503   -36636.563    1.4315986 
     200    241.88208   -2166.2529    133470.57   -33731.776    2952.5135   -36684.289    1.8569945 
     250    256.38444   -1802.0369    130044.91   -33708.228    3129.5354   -36837.763    2.5835777 
     300    275.26469   -1505.0609    127289.19   -33676.885    3359.9957   -37036.881    3.4417093 
     350     284.3603   -777.81874    125302.67   -33733.397    3471.0205   -37204.417    4.4451752 
     400    290.22715   -583.69063    123942.39   -33801.425    3542.6337   -37344.059    5.5536742 
     450    294.85344   -312.07799    123343.98    -33818.15    3599.1041   -37417.254    6.6748363 
     500    299.86113   -581.38869    122585.46    -33902.31    3660.2301    -37562.54    7.7222777 
     550    304.28724     -277.002    122334.57   -33889.166     3714.257   -37603.423     8.812705 
     600    305.08698   -269.35833    122294.15   -33919.287    3724.0189   -37643.306    9.8764507 
     650    300.26999   -218.79923    122013.26   -34009.261    3665.2207   -37674.481    10.926194 
     700    294.98271   -111.71063    122144.02   -34059.705     3600.682   -37660.387    11.930016 
     750    298.58102   -30.177695    121782.43   -34123.745    3644.6045    -37768.35    12.963216 
     800    295.58343    219.82692    121948.37   -34106.553    3608.0146   -37714.568    13.947842 
     850    293.80006   -223.36837    121925.88   -34177.648     3586.246   -37763.894    14.966004 
     900    296.37009   -168.50826    121967.72   -34186.755     3617.617   -37804.372    15.954307 
     950    292.20333    111.98861    121646.48   -34291.904    3566.7557   -37858.659    16.875715 
    1000    290.27821   -206.37912    121641.28   -34335.827    3543.2569   -37879.084    17.706818 
    1050    289.87513   -56.885542     121750.1   -34362.983    3538.3367    -37901.32    18.521406 
    1100    289.96394   -252.32042     121615.6   -34312.842    3539.4208   -37852.263    19.451301 
    1150    291.29365   -108.04382    121570.02   -34362.973    3555.6518   -37918.625    20.354997 
    1200    294.83804    103.15191    121369.23   -34317.905    3598.9162   -37916.822    21.116784 
    1250    290.85519   -58.369597    121223.89   -34338.704    3550.2998   -37889.004    21.900112 
    1300    290.72221   -103.22211     121030.8   -34287.337    3548.6766   -37836.014    22.764104 
    1350    292.36179   -222.87086    121087.47   -34382.519    3568.6899   -37951.209    23.555991 
    1400    293.52131    260.55939    120779.08   -34395.255    3582.8435   -37978.099    24.491356 
    1450    288.55079   -422.26857    120714.26   -34476.185    3522.1713   -37998.356    25.303749 
    1500    290.90715   -174.21905     120615.2   -34473.682     3550.934   -38024.616    26.208472 
    1550    289.66083    109.87387    120324.62   -34446.766    3535.7209   -37982.487    27.024682 
    1600    285.47959   -72.235002    120374.08   -34453.698     3484.683   -37938.381    27.861569 
    1650    288.52938   -31.860552    120552.52   -34429.031      3521.91   -37950.941    28.701895 
    1700    290.09684    -188.3251    120463.78   -34459.911    3541.0431   -38000.954    29.499512 
    1750    286.84573   -260.78597    120227.49   -34414.245    3501.3587   -37915.604    30.061992 
    1800    287.10315   -217.52665     120199.6   -34423.859    3504.5008   -37928.359    30.803235 
    1850    288.15408   -2.5047808    120263.19   -34396.645    3517.3289   -37913.973    31.825957 
    1900    291.20013    484.33913    120185.46   -34359.622    3554.5103   -37914.132    32.611764 
    1950    297.82998   -375.43584    120145.28   -34344.116    3635.4369   -37979.553    33.515303 
    2000    293.64486   -136.40593    120411.85   -34319.578    3584.3517    -37903.93    34.385598 
    2050    283.31153    -344.9572    120449.53   -34435.253    3458.2188   -37893.472     35.10093 
    2100     284.5917   -85.375413    120408.14   -34447.597     3473.845   -37921.442    35.961936 
    2150    289.48225    179.79475     120466.1   -34424.141    3533.5411   -37957.682    36.653506 
    2200    293.63003   -111.84778    120616.11   -34393.154    3584.1706   -37977.325    37.485235 
    2250    291.55481    22.775297    120510.63   -34364.514    3558.8397   -37923.354    38.130215 
    2300    289.23989   -137.56446    120617.93   -34332.618    3530.5827   -37863.201     39.02924 
    2350    293.15123    555.56853    120399.63   -34344.354    3578.3262    -37922.68    39.731501 
    2400    292.70902   -261.92491    120551.13   -34368.051    3572.9284   -37940.979    40.520487 
    2450    288.98333    323.48923    120680.14   -34358.519    3527.4511    -37885.97    41.352461 
    2500    292.58701    486.62642    120939.68   -34398.386    3571.4391   -37969.825    42.087612 
    2550    290.50519   -220.75056    121163.72   -34351.735    3546.0275   -37897.763    42.884274 
    2600    288.55664    -427.0017    121391.74   -34406.061    3522.2427   -37928.304    43.790765 
    2650    292.01453    26.994467     121048.1   -34352.763    3564.4512   -37917.215    44.557501 
    2700    286.39652    260.00765    120920.83   -34420.475    3495.8754    -37916.35    45.288543 
    2750    288.17097    32.569566    121043.69   -34379.269    3517.5351   -37896.804    46.248346 
    2800    297.84957   -58.126954    121024.98   -34325.625    3635.6761   -37961.301     47.11577 
    2850    300.15027    -18.39227    121134.15   -34297.448    3663.7594   -37961.207    48.003494 
    2900    289.22856    95.201653    121299.49     -34328.6    3530.4445   -37859.044    48.877932 
    2950    291.02074   -226.82015    121258.78   -34351.212    3552.3206   -37903.533    49.844328 
    3000    293.24241    -204.6153    120778.26   -34384.029    3579.4391   -37963.469    50.665246 
    3050    290.77076    231.51796    120888.49   -34372.141    3549.2692    -37921.41    51.690699 
    3100    289.92106     20.50248    120660.02    -34357.15    3538.8973   -37896.047    52.512276 
    3150    290.72753   -147.49155    120806.28   -34345.536    3548.7415   -37894.277    53.065875 
    3200    289.98542   -380.87284    120423.14   -34449.045     3539.683   -37988.728    53.717044 
    3250    284.55837   -6.1105616    120247.17   -34571.636    3473.4382   -38045.074    54.685157 
    3300    284.74474   -71.094926    120373.75   -34556.753    3475.7131   -38032.466    55.394523 
    3350    290.03858   -240.57206     120310.6   -34527.741    3540.3318   -38068.073    56.196048 
    3400    283.31436    273.46038    120491.92    -34485.73    3458.2532   -37943.983    57.049796 
    3450    292.32894   -212.56438     120131.6   -34444.092     3568.289   -38012.381    57.788986 
    3500    289.19032    218.30942    119996.23    -34464.59    3529.9777   -37994.567    58.561971 
    3550    291.81725    62.528123    120315.62   -34454.374    3562.0431   -38016.417    59.285739 
    3600    291.78891   -118.40494    120367.74   -34458.547    3561.6971   -38020.244    59.872578 
    3650    290.34381    83.078897    120580.14   -34465.453    3544.0576   -38009.511    60.663297 
    3700    290.08562   -1.3779192    120339.69   -34433.864    3540.9061   -37974.771     61.32549 
    3750    293.15532    340.89108    120643.48   -34422.028    3578.3761   -38000.404    62.042765 
    3800     294.3168     43.11507    120525.98   -34429.553    3592.5536   -38022.107    62.290253 
    3850    297.89097   -27.131732    120614.93   -34401.288    3636.1815   -38037.469    62.922964 
    3900    290.85937 -0.088193473    120470.98   -34441.726    3550.3508   -37992.076    63.451376 
    3950    290.13051    203.91539     120443.9   -34483.205     3541.454   -38024.659    64.327599 
    4000    286.49367    117.53196    120741.07   -34472.125    3497.0612   -37969.186    65.314691 
    4050    280.81117   -133.99086    120725.59   -34507.285    3427.6983   -37934.983    66.204829 
    4100    286.87606   -144.23116    120356.72   -34465.963    3501.7289   -37967.692    66.804619 
    4150    287.18726    344.11418    120501.47   -34416.082    3505.5275   -37921.609    67.748072 
    4200    291.71481    234.49183    120210.24   -34430.417    3560.7927    -37991.21     68.50878 
    4250    288.48168    -353.0018    120288.93   -34489.458    3521.3277   -38010.786    69.140399 
    4300    282.80476   -101.46693     120405.4   -34557.471    3452.0329   -38009.503    69.937215 
    4350    288.16503    239.94495    120654.72   -34425.779    3517.4625   -37943.241    70.673556 
    4400    292.04648   -367.06299    120538.73   -34458.492    3564.8412   -38023.334    71.453262 
    4450    286.76315    4.7909128    120642.47   -34491.013    3500.3507   -37991.364    72.478569 
    4500    284.95967   -26.315588    120418.67   -34503.583    3478.3366    -37981.92    73.305137 
    4550    289.14847   -600.66951    120502.51    -34542.11    3529.4669   -38071.577    73.991022 
    4600    287.21682       278.74    120445.56   -34541.325    3505.8883   -38047.214     74.90232 
    4650    284.64508    345.66849    120769.56   -34500.981    3474.4966   -37975.478    75.746032 
    4700    289.93655   -23.766551    120789.19   -34434.936    3539.0865   -37974.023    76.636472 
    4750    291.17477   -53.386093    120884.15   -34369.903    3554.2007   -37924.103    77.323924 
    4800    294.49176   -303.53084    120967.04   -34327.699    3594.6892   -37922.388    78.176366 
    4850    292.03382   -97.649495    120907.12   -34350.868    3564.6867   -37915.555    78.938574 
    4900    292.86449    124.48685    121265.14   -34290.469    3574.8261   -37865.295     79.86135 
    4950    288.71164   -42.107606    121298.19   -34317.463    3524.1348   -37841.598    80.932869 
    5000    283.10974   -264.27667    121017.41   -34424.712    3455.7556   -37880.468    81.868913 
    5050    290.20491   -251.69879    121002.58   -34379.394    3542.3622   -37921.756    82.520026 
    5100    291.71342    356.15434    121012.04   -34360.829    3560.7757   -37921.605    83.222076 
    5150    291.01465     19.35506    120669.85   -34330.954    3552.2462     -37883.2    83.642027 
    5200    286.44443   -55.480933    120821.72   -34418.811    3496.4603   -37915.271    84.235636 
    5250    286.38204    183.54816    120547.88    -34508.41    3495.6987   -38004.109    84.558307 
    5300    287.86155   -169.90083    120376.06   -34518.037    3513.7582   -38031.795    85.072008 
    5350    286.26728     262.8411    120579.18    -34550.76    3494.2978   -38045.057    85.837341 
    5400    285.51523   -33.357664    120355.14    -34477.18     3485.118   -37962.298    86.618874 
    5450    286.01767    280.96447    120492.68   -34445.597     3491.251   -37936.848    87.194017 
    5500    289.41881   -105.27717    120325.05   -34435.029    3532.7668   -37967.796    87.855866 
    5550    287.82614    7.8804579    120259.81   -34528.875    3513.3259   -38042.201     88.91896 
    5600    288.26421    138.85158    120385.12   -34479.479    3518.6732   -37998.153    89.679795 
    5650    290.61737   -149.41277    120579.73   -34471.376    3547.3968   -38018.772    90.404088 
    5700    289.02162    178.12991     120514.1   -34483.843    3527.9185   -38011.762    91.035306 
    5750    286.58863   -97.434994    120453.73   -34487.894    3498.2204   -37986.114    91.625565 
    5800    288.86003     132.6218    120464.73   -34439.176     3525.946   -37965.122    92.138982 
    5850    287.04234   -141.71177    120503.88   -34509.706    3503.7585   -38013.465    92.661512 
    5900    286.17785    489.98511    120453.94   -34524.781    3493.2063   -38017.987    93.505468 
    5950    284.87316    -4.799233    120354.08   -34561.013    3477.2806   -38038.293    94.220346 
    6000    289.06999   -57.115816    120176.44   -34522.478    3528.5089   -38050.987    94.827335 
    6050    282.83077    30.954953    120295.16    -34612.29    3452.3503   -38064.641    95.747856 
    6100    283.35782   -344.58231    120091.41   -34612.585    3458.7838   -38071.368    96.092631 
    6150    280.83903    101.50399    119941.89   -34606.398    3428.0384   -38034.437    96.737273 
    6200    284.92363    20.646269    119707.97   -34597.926    3477.8967   -38075.823    97.432041 
    6250    292.84079   -164.70157       119560   -34524.612    3574.5368   -38099.149    98.194332 
    6300    289.18072    266.30845     119727.9   -34500.765    3529.8605   -38030.626    99.134418 
    6350    287.41004   -6.0808326    120078.78   -34526.861    3508.2468   -38035.108    100.05328 
    6400    285.23565    262.57072    120530.34   -34519.786    3481.7054   -38001.492    101.25751 
    6450    283.98037   -360.70026    120488.55   -34552.006    3466.3829   -38018.389    102.20742 
    6500    285.08786    50.142498    120228.27   -34523.568    3479.9013   -38003.469     102.7268 
    6550    281.72013   -342.57571    120385.82   -34575.058    3438.7935   -38013.851     103.5592 
    6600    287.21352   -293.16228    120415.73   -34518.672    3505.8481    -38024.52    104.26829 
    6650    283.83205    316.19691    120277.05    -34521.44    3464.5724   -37986.012    105.17901 
    6700    278.90641   -569.64419    120260.81   -34558.643     3404.448   -37963.091    105.98872 
    6750    288.43584    54.303009    120084.03   -34563.705    3520.7681   -38084.473    106.58626 
    6800    289.90228    338.38978    120057.11   -34536.626    3538.6681   -38075.295    107.44596 
    6850    282.28711    116.28618    120327.54   -34484.989    3445.7142   -37930.703    108.29925 
    6900    286.53349   -27.963023    120004.35   -34462.538    3497.5473   -37960.085    108.91687 
    6950    284.26721    74.595853    120245.12   -34505.237    3469.8841   -37975.121    109.69837 
    7000    291.61572   -44.879547    120390.44   -34469.999    3559.5831   -38029.582    110.55589 
    7050    285.74774    136.40672    120505.84   -34507.801    3487.9561   -37995.757    111.40078 
    7100     288.3206    19.712123    120658.69   -34469.393    3519.3615   -37988.755     112.3051 
    7150     285.6589   -194.21591    120567.33    -34504.05    3486.8716   -37990.922    112.95909 
    7200    283.67701   -110.03784    120561.49   -34551.583      3462.68   -38014.263    113.64682 
    7250    283.43546    225.33909    120422.75   -34613.421    3459.7315   -38073.153    114.22727 
    7300     284.9585     -186.933     120263.2   -34586.824    3478.3223   -38065.146    115.07531 
    7350     283.1537    279.31405    120379.78   -34511.537    3456.2921   -37967.829    115.84742 
    7400    289.84628   -364.68361    120212.22   -34484.234    3537.9846   -38022.219    116.29591 
    7450    290.88242    147.48207    120334.78   -34441.953    3550.6322   -37992.585     117.2296 
    7500    288.36428   -290.42446    120730.14   -34432.258    3519.8946   -37952.153    117.91869 
    7550    290.42652    83.920186    120632.43   -34473.804    3545.0672   -38018.871    118.74187 
    7600     284.8212    133.47452    120440.92   -34409.486    3476.6464   -37886.132    119.36299 
    7650    289.82173   -12.161522    120383.84   -34412.778    3537.6849   -37950.463    120.07992 
    7700    287.13061   -290.54456     120317.1   -34487.874     3504.836    -37992.71    121.13257 
    7750    288.19764   -107.30646    120271.85   -34489.387    3517.8606   -38007.247     122.0034 
    7800    286.15086   -172.65908    120152.36   -34549.841    3492.8768   -38042.718    122.60546 
    7850    287.63234     251.3648     120164.3   -34514.124    3510.9603   -38025.084    123.23983 
    7900    287.55457     -198.674    120122.45   -34498.184    3510.0111   -38008.195    124.00404 
    7950    283.77191    152.43533    120223.56   -34457.358    3463.8383   -37921.197    124.77067 
    8000    291.95375   -113.32884    120221.71   -34407.809    3563.7093   -37971.518    125.73848 
    8050    287.95995   -120.57588    120054.28   -34440.116    3514.9593   -37955.075    126.62225 
    8100    292.53965    259.44002     119871.1    -34392.25     3570.861   -37963.111    127.21301 
    8150    288.59411   -47.930941    120161.42   -34424.786    3522.7001   -37947.486    127.97072 
    8200     286.9903    209.61673    120400.94   -34408.747    3503.1233    -37911.87     129.1104 
    8250    291.68752    138.50302       120666   -34422.326    3560.4596   -37982.786    130.16536 
    8300    299.32095   -288.03494    120566.17   -34371.791    3653.6364   -38025.427    130.91898 
    8350    296.60638    266.35387    120633.99   -34329.554    3620.5012   -37950.055    131.68378 
    8400    291.23885   -313.45092    120475.06    -34344.51    3554.9829   -37899.493    132.02901 
    8450    292.95324    227.50577    120345.99   -34399.993    3575.9095   -37975.903    132.33639 
    8500    288.77853   -18.868432    120434.61   -34432.573    3524.9512   -37957.524    132.69468 
    8550    289.72782     26.91148    120550.08   -34446.342    3536.5386   -37982.881    133.57295 
    8600    286.31356    322.07883    120618.39   -34441.689    3494.8628   -37936.552     134.2044 
    8650    290.71189   -297.48944     120569.3   -34382.789    3548.5506    -37931.34     134.6226 
    8700     284.3729     167.2028    120527.44   -34386.244    3471.1742   -37857.419    135.11959 
    8750    289.99696    380.08433     120380.1   -34423.346    3539.8238    -37963.17    135.38084 
    8800    291.45847   -238.23953    120512.59   -34412.494    3557.6636   -37970.158    136.30964 
    8850    288.89777    151.77456    120656.35   -34443.886    3526.4066   -37970.292    137.00236 
    8900    286.09539    247.58696    120606.29   -34460.996    3492.1997   -37953.196    137.80933 
    8950     286.2001    165.00825    120832.04   -34475.608    3493.4778   -37969.086    138.83019 
    9000    288.83651   -234.05696    120901.42   -34390.082     3525.659   -37915.741    139.65506 
    9050    286.84532    141.16307     120696.2   -34420.439    3501.3536   -37921.792    140.42187 
    9100    287.79428   -110.41051    120983.26   -34427.901     3512.937   -37940.838    141.56471 
    9150    292.22689    242.43825    120846.95   -34353.616    3567.0433   -37920.659    142.11244 
    9200    291.59512   -313.14523    120822.74   -34329.143    3559.3317   -37888.475    142.63037 
    9250    288.88758   -275.40682    120801.16   -34392.907    3526.2823   -37919.189    143.39849 
    9300    284.95465    75.199388    120863.37   -34470.118    3478.2754   -37948.393    144.34492 
    9350    286.46747   -160.68263    120627.61   -34472.573    3496.7414   -37969.315    145.07608 
    9400    284.00081   -149.79258    120563.94   -34439.723    3466.6323   -37906.355    145.78026 
    9450    284.39951    149.70139    120616.01   -34447.423    3471.4991   -37918.922    146.57169 
    9500    285.26674   -546.24887    120569.26   -34481.337    3482.0849   -37963.422    147.23887 
    9550    288.84213   -204.18219    120313.15   -34489.387    3525.7275   -38015.114    147.50752 
    9600    289.69718    -221.7371    120212.97   -34486.483    3536.1646   -38022.647     148.3359 
    9650    289.45973   -145.44435    120439.44   -34420.719    3533.2663   -37953.985    149.40062 
    9700    291.08947    19.414001     120193.8   -34392.579    3553.1595   -37945.739    150.01009 
    9750    293.55286     83.10428    120378.53   -34386.326    3583.2287   -37969.554    150.85055 
    9800    293.57013   -145.25962    120435.82   -34366.403    3583.4395   -37949.843    151.30407 
    9850    290.97765    230.93383    120555.43   -34382.121    3551.7945   -37933.915    151.95152 
    9900    291.79268   -191.02359    120450.74   -34395.603    3561.7431   -37957.346    152.36345 
    9950    293.66797   -33.164637    120497.94   -34387.498    3584.6338   -37972.131     153.1977 
   10000    283.08818   -233.21469    120516.92   -34435.193    3455.4924   -37890.686    153.90267 
   10050    288.89713    194.49594    120535.57   -34390.381    3526.3989    -37916.78    154.63187 
   10100    290.93561   -59.278748    120581.28   -34382.981    3551.2814   -37934.262    155.27981 
   10150    293.05658    256.90277    120737.37   -34338.182    3577.1708   -37915.353    156.17562 
   10200    288.79051   -106.80395    120754.62   -34365.347    3525.0974   -37890.444    157.02587 
   10250    284.68868   -133.90705    120697.46   -34382.053    3475.0288   -37857.082    157.34465 
   10300    288.65917    51.412854    120940.62   -34351.603    3523.4942   -37875.098    158.52137 
   10350    294.85992    -5.098132    120962.34   -34335.238    3599.1832   -37934.421    159.41067 
   10400    293.29403   -43.571327    121083.97   -34328.171    3580.0692   -37908.241    160.49965 
   10450    291.14022    209.55773     121170.7   -34405.191     3553.779    -37958.97     161.5282 
   10500    293.37897    15.115506    121033.56   -34374.186     3581.106   -37955.292    162.27907 
   10550    287.99894    -98.12957    120990.41   -34370.282    3515.4352   -37885.717    163.13158 
   10600    289.67903    375.73386    120907.69   -34407.314     3535.943   -37943.257    163.88372 
   10650    291.88469    71.142986    120917.54   -34424.296    3562.8663   -37987.162    164.97367 
   10700    287.93794    38.149308    120923.48   -34450.758    3514.6906   -37965.448      165.771 
   10750    291.61333    -147.7968    120603.29   -34474.731     3559.554   -38034.285    166.07954 
   10800      284.042   -125.12205    120328.35   -34587.784    3467.1352   -38054.919    166.31808 
   10850    289.28116   -508.04979    119930.28   -34597.732    3531.0865   -38128.819    166.77226 
   10900    283.56122   -300.14675    119937.05   -34595.229    3461.2666   -38056.495    167.51735 
   10950    285.36601    536.20208    119863.65   -34617.083    3483.2966   -38100.379    167.97318 
   11000    283.66993    63.991838    120031.42   -34595.471    3462.5935   -38058.065    168.83833 
   11050     287.1681   -457.71702    120003.54   -34500.907    3505.2937   -38006.201    169.76825 
   11100    286.94888    112.96877    119726.98   -34514.385    3502.6178   -38017.003    170.53071 
   11150    287.31956   -352.60294    119953.25   -34546.169    3507.1424   -38053.311    171.39085 
   11200    283.61702    327.97961    119957.94    -34607.26    3461.9477   -38069.207    172.34003 
   11250    286.62688   -335.80254    119916.47   -34585.093    3498.6873    -38083.78    173.04598 
   11300    289.15365    137.04176    119828.25   -34523.567    3529.5301   -38053.097     173.9783 
   11350    288.34094   -84.127952    119985.15   -34555.017    3519.6098   -38074.626    175.00652 
   11400    288.41414    342.91678    119892.51   -34509.866    3520.5033   -38030.369    175.97113 
   11450    288.74625    131.45775    120309.03   -34475.407    3524.5572   -37999.964    177.11177 
   11500    288.60005    79.108701    120373.17   -34407.283    3522.7726   -37930.055    178.23976 
   11550    291.66185    70.659934    120292.59    -34340.46    3560.1462   -37900.606    179.09899 
   11600    287.69366    66.023926    120453.35    -34403.72    3511.7088   -37915.429    179.96189 
   11650    292.88043   -134.95385    120321.22   -34302.767    3575.0207   -37877.788    180.71188 
   11700    296.98772    300.39644    120223.13   -34272.272     3625.156   -37897.428    181.51163 
   11750    294.68476    -120.8216    120205.13   -34299.652    3597.0451   -37896.697    182.41131 
   11800      290.004   -119.91943    120216.39    -34363.26    3539.9098    -37903.17    183.34398 
   11850    291.45274  -0.54034212     120344.9   -34379.544    3557.5937   -37937.138     184.5619 
   11900    287.74459   -98.158488    120355.07   -34390.233    3512.3306   -37902.563    185.80853 
   11950    294.29182    107.48763    120391.57   -34368.242    3592.2488   -37960.491    186.67443 
   12000    291.29136    138.16534    120578.32   -34347.217    3555.6239   -37902.841    187.94948 
   12050    286.03383    390.97062    120920.01   -34388.317    3491.4483   -37879.766    189.32532 
   12100     291.5437   -178.95371    120923.86   -34400.456    3558.7041    -37959.16     190.2727 
   12150    287.17271    358.41913    120840.06   -34401.514    3505.3499   -37906.864    191.20052 
   12200    290.12882    154.64626    121002.26   -34389.971    3541.4334   -37931.405    192.52433 
   12250    289.15683    344.85776    121151.97     -34395.4    3529.5689   -37924.969    193.30262 
   12300    291.99321   -49.073775    120999.18   -34444.737    3564.1909   -38008.928    193.61533 
   12350    290.72646   -109.51736     120763.7   -34459.358    3548.7284   -38008.087    193.94158 
   12400    289.26295   -51.282199    120811.55   -34409.153    3530.8642   -37940.018    195.09808 
   12450    289.23913   -60.202419    120744.41   -34414.349    3530.5735   -37944.922     195.6044 
   12500    289.88666    472.38254    120868.89   -34351.531    3538.4775   -37890.009    196.28914 
   12550    293.45787   -311.51953    120941.48   -34311.503    3582.0691   -37893.572    196.75722 
   12600    288.84369    99.308264    120900.96   -34348.657    3525.7465   -37874.404    197.60351 
   12650    287.45711   -75.849469    120692.51   -34368.453    3508.8213   -37877.275    197.85877 
   12700    290.39867    -248.6789    120690.45   -34377.798    3544.7273   -37922.525     198.5773 
   12750    294.69942   -183.12573    120586.26   -34368.766     3597.224    -37965.99    199.18794 
   12800    289.68159   -49.124477    120604.84   -34394.518    3535.9743   -37930.492    199.75968 
   12850    291.71717    79.984915    120636.74   -34405.109    3560.8215    -37965.93     199.9648 
   12900     287.6154   -10.227337    120601.03   -34445.272    3510.7535   -37956.025    200.49154 
   12950    288.32675   -60.920478    120467.27   -34438.428    3519.4366   -37957.865    200.99249 
   13000    290.39411    249.47535    120414.55   -34456.612    3544.6716   -38001.284    202.00403 
   13050    286.69685   -395.79596    120465.11    -34472.66    3499.5413   -37972.202    202.59541 
   13100    286.95231   -276.34392    120424.38   -34496.435    3502.6595   -37999.095    203.38207 
   13150    285.01664   -303.54364    120479.03   -34532.279     3479.032   -38011.311    204.02604 
   13200    288.73768    -250.4913    120259.48   -34543.311    3524.4526   -38067.763    204.25201 
   13250    285.17216    143.22859    120329.21   -34541.118    3480.9303   -38022.048    205.02799 
   13300    286.44155   -240.64649    120329.76   -34599.439    3496.4251   -38095.864     205.4273 
   13350    285.25118   -124.63232    120258.19   -34598.061    3481.8949   -38079.956     205.4628 
   13400    283.25777     124.3545    120069.39   -34658.749    3457.5625   -38116.311    205.33856 
   13450    287.24091     99.54398    120058.01   -34561.656    3506.1824   -38067.838    205.86113 
   13500    287.35187   -111.64074    120140.56   -34561.229    3507.5368   -38068.766     206.5582 
   13550    289.97584    -198.6559    120298.79   -34535.096    3539.5661   -38074.662    207.57412 
   13600    293.72526   -471.38191    120261.38   -34536.193    3585.3331   -38121.526    208.24607 
   13650    282.80785    259.69083    120234.15   -34578.408    3452.0706   -38030.478      208.901 
   13700    285.46162   -69.471453    119960.23    -34547.56    3484.4637   -38032.024    209.49234 
   13750    289.69896   -127.99899    119919.03   -34496.555    3536.1864   -38032.742    209.80176 
   13800    287.62516    218.86309    120004.73   -34511.981    3510.8727   -38022.854    210.76041 
   13850    291.53828   -367.07009    119866.46   -34518.205    3558.6379   -38076.843    211.89025 
   13900    288.08335    218.75034    120030.43   -34480.246    3516.4655   -37996.711    212.52854 
   13950    294.59978     163.8313    120021.07   -34399.294    3596.0078   -37995.302    213.05073 
   14000    289.33738    80.911911    120008.37   -34378.815    3531.7727   -37910.588    213.08739 
   14050    292.72805    62.725073    120167.46   -34420.948    3573.1607   -37994.109    213.95384 
   14100    290.46758   -278.59931    119959.75   -34477.592    3545.5685    -38023.16    214.40482 
   14150    293.40956   -56.684957    119895.93   -34506.786    3581.4795   -38088.266    215.11126 
   14200    288.71497    155.84415    120135.93   -34478.348    3524.1754   -38002.524    216.32591 
   14250    291.74436    406.68379    120145.32   -34473.407    3561.1534   -38034.561    216.92525 
   14300    285.01883   -18.806022    120413.23   -34515.049    3479.0587   -37994.108    218.18445 
   14350    284.34398    107.62274    120260.23   -34538.775    3470.8212   -38009.596    218.79158 
   14400    286.33041   -157.48161    120048.91   -34543.914    3495.0685   -38038.982     219.1478 
   14450    285.48875    116.04592    120150.51   -34542.574    3484.7947   -38027.368    220.40666 
   14500     289.7079    399.79356    120061.97   -34550.504    3536.2955   -38086.799    221.36803 
   14550    281.68434   -26.377377    120198.76   -34593.008    3438.3565   -38031.365    222.21009 
   14600    288.71103    67.044229    120218.91   -34543.447    3524.1273   -38067.574    222.80613 
   14650    288.38344      64.1619    120384.46    -34510.07    3520.1285   -38030.198    223.74776 
   14700    287.01796     -252.917    119922.41   -34494.898    3503.4609   -37998.359    223.94856 
   14750    295.60472    5.0467566    119892.81   -34405.617    3608.2745   -38013.892    224.60284 
   14800    287.75473   -160.69645    119943.57   -34457.083    3512.4543   -37969.537    225.48371 
   14850    290.45987   -231.55832    120011.67   -34462.634    3545.4743   -38008.108    226.50869 
   14900    293.26748   -240.96559    119812.82   -34439.407    3579.7452   -38019.152    227.13155 
   14950     286.9335   -26.132945    119955.31   -34504.367      3502.43   -38006.796    227.92898 
   15000    287.89723    -35.14579    119905.92   -34495.703    3514.1937   -38009.897    228.58969 
   15050    289.66697    44.502762    119956.38   -34475.542    3535.7959   -38011.338    229.47197 
   15100    287.25625    353.99527    120054.17   -34508.127    3506.3696   -38014.496    230.19062 
   15150    285.06095    386.41137    120231.53   -34501.419    3479.5728   -37980.992    231.11992 
   15200    289.12134    42.791682    120176.18   -34469.847    3529.1357   -37998.983    231.86483 
   15250    291.99659   -163.91906    120009.57    -34481.12    3564.2322   -38045.352     232.4949 
   15300    286.76681   -86.247599    120000.43   -34515.457    3500.3953   -38015.853    233.08424 
   15350     286.5752   -339.01362    119842.16   -34528.694    3498.0564    -38026.75    233.69156 
   15400    288.23681   -14.900448    119818.68   -34561.951    3518.3388    -38080.29    234.45263 
   15450    285.67584   -108.48756    119614.61   -34543.467    3487.0785   -38030.546    235.09163 
   15500    289.13852   -2.9563451    119614.23   -34494.917    3529.3454   -38024.262    236.35582 
   15550    294.80521    160.91685    119710.27   -34406.532    3598.5154   -38005.048    237.16386 
   15600    293.50017    362.65469    119801.03   -34388.233    3582.5855   -37970.819    237.99588 
   15650    287.80784    377.66811    120211.58   -34382.815    3513.1025   -37895.917     239.2314 
   15700    292.55994    398.09851    120429.53   -34365.519    3571.1087   -37936.628    239.83756 
   15750    292.39142     58.80331    120536.71   -34353.252    3569.0516   -37922.304    240.55466 
   15800    293.17731    -40.40536    120519.65   -34369.032    3578.6445   -37947.676    241.58181 
   15850    288.78011    22.289877    120348.72   -34385.974    3524.9705   -37910.944    242.31048 
   15900    292.32739   -49.525362    120235.77   -34359.571    3568.2701   -37927.841    243.13214 
   15950    292.44426    249.38095    120287.34   -34392.329    3569.6966   -37962.025    244.31743 
   16000    291.13574    115.97056    120533.47     -34415.5    3553.7243   -37969.225    245.70863 
   16050    289.11434   -81.971097    120583.22   -34473.695    3529.0502   -38002.745    246.77659 
   16100    285.32363   -200.76885    120443.82   -34475.417    3482.7793   -37958.196    247.01571 
   16150    289.23436   -48.861016    120321.79   -34405.988    3530.5152   -37936.504    247.16052 
   16200    295.45074    84.100854    120201.92   -34426.197     3606.395   -38032.592     247.2895 
   16250    291.25241   -134.26093    120308.92   -34423.926    3555.1484   -37979.074    248.24334 
   16300    285.75634   -285.56887    120339.62   -34449.394    3488.0611   -37937.455    248.89471 
   16350    291.16276   -130.83585    120197.63    -34412.04    3554.0542   -37966.094    249.46587 
   16400    284.94513   -27.781309    120175.23    -34465.29    3478.1591   -37943.449    250.57035 
   16450    285.25861    37.059387    120362.26   -34406.745    3481.9856    -37888.73    251.81326 
   16500     290.8522    23.093983    120097.48   -34388.275    3550.2632   -37938.538    251.66161 
   16550    284.79342    297.95731    119999.19   -34392.965    3476.3073   -37869.272    252.25225 
   16600    289.96447    76.413818    120127.01   -34356.848    3539.4273   -37896.275    253.59366 
   16650    290.11803   -286.54867     120067.4   -34424.464    3541.3017   -37965.766    254.31292 
   16700    290.82496    212.45966    120081.29   -34396.612    3549.9308   -37946.543    255.11762 
   16750    289.04473     98.90735    120329.53    -34431.23    3528.2005   -37959.431    255.93677 
   16800     292.8313   -263.69895    120390.84   -34441.049     3574.421    -38015.47    256.88252 
   16850    288.15962   -122.79364    120415.89   -34454.042    3517.3965   -37971.438    257.62367 
   16900    292.42113   -31.504096    120319.09   -34467.103    3569.4143   -38036.517    258.30519 
   16950    287.25915   -63.448272    120381.69   -34496.879     3506.405   -38003.284    259.11341 
   17000    289.95579    252.86684    120549.35   -34514.613    3539.3214   -38053.934    259.87175 
   17050     291.1267    280.94852    120681.48   -34425.087     3553.614   -37978.701    260.59204 
   17100    287.59796   -133.84565    120796.91    -34457.44    3510.5407   -37967.981     261.4763 
   17150    288.27795    2.7587196    120586.69   -34508.681    3518.8409   -38027.522    261.99483 
   17200    282.88011    196.22224    120423.78   -34517.115    3452.9526   -37970.068    262.39809 
   17250    283.48909    98.261995     120439.9   -34530.716    3460.3861   -37991.102    263.21179 
   17300    286.60944     97.07349     120392.4   -34565.824    3498.4744   -38064.298    263.58689 
   17350    285.61201     54.02346    120512.76   -34540.747    3486.2994   -38027.046    264.49651 
   17400    283.09894   -333.07527     120428.7   -34607.448    3455.6238   -38063.072    265.40275 
   17450     283.9774    252.04475    120677.24    -34507.38    3466.3466   -37973.727    266.67695 
   17500    288.72503    64.120451    120853.38   -34479.181    3524.2982    -38003.48    267.66552 
   17550    285.21181   -501.00261    120983.25   -34438.416    3481.4143    -37919.83    268.79696 
   17600    286.49313    183.96345    120976.16   -34472.332    3497.0547   -37969.386     269.2936 
   17650    289.06225   -24.184567    120930.61   -34455.708    3528.4144   -37984.122    269.59801 
   17700    287.74993    38.095723    121056.16   -34499.287    3512.3957   -38011.682    270.80832 
   17750       283.81    347.60239    120910.22   -34528.853    3464.3033   -37993.156    271.66072 
   17800    279.02893    124.06202    120795.07   -34500.158    3405.9435   -37906.102    272.18392 
   17850    286.25196    147.68965    120956.45   -34427.054    3494.1109   -37921.165    273.55752 
   17900    290.00694    -75.80663    120853.21   -34428.984    3539.9457   -37968.929     274.4002 
   17950    285.76603   -114.98748    120997.48   -34431.438    3488.1793   -37919.618    275.05501 
   18000    292.66245     44.31784    120934.89   -34378.852      3572.36   -37951.212    275.65066 
   18050    288.28409    208.05003    120824.03   -34344.761    3518.9158   -37863.677    276.77696 
   18100    286.94498    47.481474     120714.4   -34353.483    3502.5701   -37856.053    277.48778 
   18150     290.7528     338.7679     120626.7   -34402.972    3549.0499   -37952.022    277.67359 
   18200    283.08988   -418.47384    120557.03   -34440.992    3455.5131   -37896.505    278.38652 
   18250    289.81244    224.55654    120425.46    -34427.74    3537.5716   -37965.311    278.92974 
   18300    293.61602    191.33698    120306.38   -34389.746    3583.9996   -37973.746    279.60132 
   18350    288.13948    39.375334    120438.25   -34438.683    3517.1507   -37955.834    280.50033 
   18400    290.88006   -365.32891     120250.9   -34523.546    3550.6033   -38074.149    281.51086 
   18450    287.94381    106.22946    120328.07   -34525.211    3514.7622   -38039.973    282.41773 
   18500    288.10648    87.888674    120068.25   -34500.153    3516.7479   -38016.901     282.9028 
   18550    289.89048    101.01141    119949.06   -34473.059    3538.5242   -38011.583    283.63266 
   18600    292.14639   -189.98186    119870.13    -34432.82    3566.0607   -37998.881    284.66484 
   18650    290.17417   -54.639658     120119.8   -34473.735     3541.987   -38015.722    286.32992 
   18700    291.65272   -280.47044    120149.09   -34454.827    3560.0348   -38014.862    287.68749 
   18750    288.61241   -2.7865802    120224.03   -34480.739    3522.9235   -38003.663    288.71489 
   18800    290.09957    28.659734    120019.74   -34483.663    3541.0764    -38024.74     289.4005 
   18850    289.10919   -125.42884    120226.63   -34452.503    3528.9874   -37981.491    290.18814 
   18900    289.69573   -280.40017    120169.35   -34456.126    3536.1469   -37992.273    291.38464 
   18950    291.07612   -164.52771    120216.67   -34421.112    3552.9966   -37974.108    292.09859 
   19000    291.11522   -19.397329    120195.89   -34432.531    3553.4738   -37986.005    293.15099 
   19050    292.81579    11.165775    120271.61   -34451.515    3574.2316   -38025.746    294.06292 
   19100    285.12776    330.91855    120328.43   -34406.855    3480.3884   -37887.244    294.98128 
   19150    282.79803    61.907893    120339.71   -34437.206    3451.9508   -37889.156    295.99638 
   19200     292.8571    198.14143    120398.27   -34436.956     3574.736   -38011.692    296.81532 
   19250     292.0714   -558.63591    120344.56   -34386.961    3565.1453   -37952.106    297.53409 
   19300    293.71841   -186.98243    120310.48   -34290.632    3585.2494   -37875.881    298.70978 
   19350    295.79676   -133.61319    120312.49   -34359.332    3610.6186    -37969.95    299.67183 
   19400    290.56387   -173.58886    120321.32   -34380.351    3546.7439   -37927.095     300.1754 
   19450    291.13781   -96.306524    120256.84   -34389.347    3553.7495   -37943.097    300.74837 
   19500    294.41147    156.12187    120465.76   -34347.409    3593.7092   -37941.118    301.76504 
   19550    291.91466    111.98449    120546.24   -34354.321    3563.2322   -37917.553     302.4742 
   19600    290.48686    309.63311    120594.73   -34375.555    3545.8038   -37921.359    303.63462 
   19650    294.93251    137.15127    120700.71   -34312.868    3600.0693   -37912.937    304.79481 
   19700    292.12488    31.385737    120718.94   -34387.486    3565.7981   -37953.284    305.73494 
   19750    291.98773    204.13085    120872.47   -34361.545    3564.1241    -37925.67    306.60205 
   19800    294.63057   -110.48074    120676.69   -34370.729    3596.3836   -37967.112    306.93012 
   19850    290.61164   -17.587146    120661.73   -34284.242    3547.3269   -37831.569    307.59825 
   19900    291.34705     -106.786    120540.75   -34386.581    3556.3037   -37942.885    307.86287 
   19950    289.32009    297.27527    120695.92   -34387.736    3531.5617   -37919.297     308.7903 
   20000    288.85974   -372.61574    120470.07   -34430.491    3525.9425   -37956.433    309.31225 
   20050    291.34503    199.97352    120605.33   -34456.557    3556.2789   -38012.836    310.32502 
   20100    289.56196    181.70474    120876.02    -34460.99    3534.5141   -37995.504     311.3673 
   20150    291.06427   -28.084583    120789.43   -34471.122    3552.8519   -38023.974    312.11981 
   20200    287.82525    217.88643    120848.19   -34484.357     3513.315   -37997.672    312.56296 
   20250    284.20293    197.32761    120810.15   -34455.878    3469.0995   -37924.978    313.17031 
   20300    287.60448    212.94258    120920.67    -34397.17    3510.6202    -37907.79    314.69203 
   20350    294.04079    232.77096    121163.94   -34348.752    3589.1845   -37937.936    315.57555 
   20400    284.52037    502.89741    121112.43   -34412.365    3472.9743   -37885.339    316.39511 
   20450    284.65586    278.18492    121281.61   -34417.505    3474.6281   -37892.133    317.24507 
   20500     286.2873    51.368545    121333.09   -34447.845    3494.5422   -37942.387    317.92793 
   20550    284.65133    8.9696612    121457.86   -34501.108    3474.5728   -37975.681      318.974 
   20600    287.78782    10.692911    121507.18   -34465.471    3512.8582   -37978.329    320.30228 
   20650    279.72005    175.75887    121412.85   -34489.273    3414.3796   -37903.653    320.21158 
   20700    286.87301    237.59746    121427.66   -34418.824    3501.6916   -37920.515    321.04455 
   20750    290.95937    52.679314    121434.16   -34414.159    3551.5714    -37965.73    321.76689 
   20800    291.67774    70.020602    121453.25    -34346.63    3560.3402   -37906.971    322.78387 
   20850    291.79377   -45.946679    121118.69   -34331.869    3561.7565   -37893.626    322.84719 
   20900    294.04041   -246.07018     121009.7   -34373.804    3589.1799   -37962.984    323.73529 
   20950    291.69616    428.30954    121090.65   -34405.977     3560.565   -37966.542    324.83928 
   21000    289.49073    48.437874    121142.85   -34423.502    3533.6447   -37957.146    325.38699 
   21050    287.30069    144.16254    121026.86   -34375.648    3506.9121    -37882.56    325.53582 
   21100    290.39058   -85.670334    121004.65   -34362.045    3544.6286   -37906.673    326.11079 
   21150    289.73388   -51.477307    121122.98   -34371.058    3536.6126    -37907.67    327.05428 
   21200    294.21844   -331.27256    120891.82   -34362.774     3591.353   -37954.127    327.36675 
   21250    293.66527   -3.9644784    120825.16   -34347.228    3584.6008   -37931.829    328.17495 
   21300    292.74689     62.18348    120738.91   -34343.998    3573.3907   -37917.388    328.53891 
   21350    292.43492   -360.03879    120662.13   -34374.076    3569.5826   -37943.659    328.97422 
   21400    291.05811   -422.72834    120639.05   -34392.793    3552.7767    -37945.57    329.84524 
   21450    295.71662    282.03061     120688.3   -34316.236    3609.6405   -37925.877     330.3845 
   21500    291.64527    438.71324    120874.73   -34317.324    3559.9438   -37877.267    331.73213 
   21550    290.52369   -60.857009    121195.65   -34282.827    3546.2534    -37829.08    332.97604 
   21600    290.80903   -331.14388    120991.68   -34282.862    3549.7363   -37832.599    333.46602 
   21650    288.89992   -200.04399    120729.65   -34328.937    3526.4329    -37855.37    334.07011 
   21700    296.57994    -599.8688    120509.32   -34395.735    3620.1785   -38015.914    334.68458 
   21750     290.6093    112.87176    120302.56    -34429.28    3547.2983   -37976.579    335.06131 
   21800    290.00785    547.15621    120418.75   -34413.905    3539.9567   -37953.862    336.18284 
   21850    291.13853    30.616706    120564.65   -34420.571    3553.7583    -37974.33    337.53995 
   21900    284.60465   -186.97947    120519.29   -34420.293    3474.0031   -37894.296    338.66366 
   21950    291.72038   -26.834375    120278.91   -34433.167    3560.8606   -37994.028    338.91067 
   22000    289.65967   -43.363875    120402.41   -34492.681    3535.7068   -38028.388    339.93553 
   22050    289.82994   -116.19116     120251.8   -34446.095    3537.7851    -37983.88    340.10152 
   22100    289.18433    -312.0001    120028.62   -34473.714    3529.9045   -38003.619    340.40549 
   22150    289.01958   -125.04391    119730.79   -34560.582    3527.8935   -38088.476    341.03536 
   22200     284.1299   -236.51855    119749.01   -34615.322    3468.2081    -38083.53    341.94137 
   22250    287.25986    257.66465    119861.74   -34554.753    3506.4137   -38061.167    342.88222 
   22300     286.9659   -70.233345    119978.55   -34532.747    3502.8255   -38035.573    343.69356 
   22350    293.66689   -207.16693     119821.6   -34445.112    3584.6206   -38029.732    343.86725 
   22400    290.84668     61.51939    120100.59   -34447.171    3550.1959   -37997.367    345.12103 
   22450    291.54862   -294.23744    119751.62   -34467.066    3558.7641    -38025.83    345.19133 
   22500    293.82404    10.984821    119663.55   -34475.967    3586.5388   -38062.506     345.1591 
   22550    289.98214    -111.7563    119624.13   -34500.843     3539.643   -38040.486    345.90685 
   22600    289.97393   -74.389647    120137.17    -34493.43    3539.5427   -38032.972    347.80058 
   22650     290.0849    -274.6158    120123.76   -34540.896    3540.8973   -38081.793    349.05478 
   22700    285.76739     -236.123    120103.47   -34538.742    3488.1959   -38026.938    349.84959 
   22750     286.6995    275.18078    119930.34   -34525.256    3499.5737    -38024.83    350.33801 
   22800    287.49177   -121.87862    120127.45   -34462.021    3509.2445   -37971.266     351.4529 
   22850    289.78581    329.45711     120266.1   -34475.917    3537.2465   -38013.164    352.36868 
   22900    290.24205    110.58016    120284.46    -34482.13    3542.8155   -38024.945    353.17722 
   22950    280.96507   -219.01339    120249.95   -34536.921    3429.5768   -37966.498    354.11106 
   23000    288.82691   -151.73808    120156.33   -34523.678    3525.5417    -38049.22     354.5148 
   23050    291.82462      130.554     119943.5   -34542.301     3562.133   -38104.434    355.03189 
   23100     294.6581    271.09819    120134.92   -34455.963    3596.7197   -38052.683    356.50833 
   23150     288.5266    181.51013    120266.16   -34542.633    3521.8761   -38064.509    358.06904 
   23200    289.01445    41.921722     120317.9   -34450.438    3527.8309   -37978.269    358.78208 
   23250    291.10091   -47.592349    120242.16   -34428.794    3553.2992   -37982.093    359.52722 
   23300    286.70332    268.74625    120192.56     -34450.3    3499.6203    -37949.92    360.91246 
   23350     290.6895   -95.280575    120240.99   -34402.546    3548.2773   -37950.823    362.26604 
   23400    290.02374    104.19934    120318.51   -34425.843    3540.1507   -37965.994    363.42069 
   23450    288.86581    221.53303    120435.82    -34404.07    3526.0166   -37930.087    364.38222 
   23500    288.70547    78.690678    120626.48    -34395.11    3524.0595   -37919.169    365.44229 
   23550    290.12223   -51.861612    120758.31   -34309.327    3541.3529    -37850.68    366.60787 
   23600    294.84454    -1.355376    120966.54   -34320.662    3598.9955   -37919.658    368.18029 
   23650    292.41545   -12.608648    120940.03   -34348.636     3569.345   -37917.981    368.46718 
   23700    296.71737   -423.01924     120846.6     -34334.2    3621.8561   -37956.056    368.70164 
   23750    290.13222    -621.9714    120702.26   -34332.901    3541.4749   -37874.376    369.64132 
   23800    291.23247    20.105977    120599.85   -34349.358    3554.9051   -37904.263    370.66288 
   23850    286.40126   -133.19566    120545.08   -34417.996    3495.9332    -37913.93    371.95521 
   23900    291.09291   -260.19397    120462.46   -34450.657    3553.2015   -38003.859    372.58425 
   23950    289.42987    -43.32623    120495.13   -34410.381    3532.9017   -37943.282    373.37774 
   24000    290.03753   -11.933229    120715.12   -34390.873    3540.3191   -37931.192    374.54293 
   24050    289.10602   -56.121563    120799.73   -34369.371    3528.9486   -37898.319    375.29978 
   24100    295.32738   -134.92963    120791.29   -34359.272    3604.8892   -37964.162    376.00067 
   24150    293.48327   -70.395529    120734.59   -34361.539    3582.3792   -37943.918    376.82594 
   24200    291.23389   -211.13845    120877.21   -34419.647    3554.9224    -37974.57    378.20356 
   24250    286.32861   -103.23098    120807.47   -34448.557    3495.0464   -37943.603    378.88528 
   24300     286.7543    206.37255     120698.6   -34455.008    3500.2426   -37955.251    379.20065 
   24350    286.15023   -6.3430466    120662.98   -34465.136    3492.8691   -37958.005    380.29822 
   24400    287.13374   -299.43353    120431.71   -34508.689    3504.8742   -38013.563    381.04348 
   24450    287.52568    74.156044    120104.05   -34466.933    3509.6584   -37976.592    380.74052 
   24500    292.50783    38.364233    119836.07   -34494.942    3570.4726   -38065.414    381.12647 
   24550    290.09138    9.2912543    119832.63   -34531.037    3540.9763   -38072.013    382.15687 
   24600    281.65326    126.00621    120032.14   -34559.684    3437.9772   -37997.661    383.60177 
   24650    295.11935   -344.86659    120202.23   -34545.356    3602.3499   -38147.706      385.339 
   24700    283.55058    67.681342       120094   -34560.522    3461.1367   -38021.659    386.15815 
   24750    291.23805   -198.73529    120137.82   -34494.605    3554.9732   -38049.579    387.04623 
   24800    284.34986   -124.38929     120162.4   -34536.017     3470.893    -38006.91    388.25264 
   24850    285.39213    449.31862    120167.25   -34503.119    3483.6153   -37986.734    388.76136 
   24900    288.98819   -113.14101    120288.36   -34551.656    3527.5105   -38079.166     389.5256 
   24950    280.87677    191.48742    120365.85   -34549.368     3428.499   -37977.867    390.79136 
   25000    290.95068    142.19895    120324.26   -34507.464    3551.4654   -38058.929    391.82375 
   25050    284.48176    6.6224601    120240.45   -34582.061     3472.503   -38054.564    391.85017 
   25100    290.32868    5.0899684    120155.74   -34571.879     3543.873   -38115.752    392.66536 
   25150    286.51498   -137.93376    120118.62   -34604.306    3497.3214   -38101.627    393.55774 
   25200    280.04123    278.06541    120032.98   -34681.016       3418.3   -38099.316     394.4401 
   25250    283.12547    -89.46289    119873.41   -34661.118    3455.9476   -38117.065     394.6274 
   25300    281.29389   -137.04568    119898.13   -34632.905    3433.5906   -38066.496    395.55704 
   25350    287.99472    89.362312    119916.32   -34521.219    3515.3837   -38036.602    395.96866 
   25400    281.06354    61.940176    119973.82    -34565.27    3430.7789   -37996.049    397.72993 
   25450    286.57201   -75.847594    120127.54   -34520.097    3498.0175   -38018.114    398.71724 
   25500    286.35864    -92.57831    120182.09   -34492.647     3495.413    -37988.06    399.19194 
   25550    292.32986    16.392262    119976.91   -34430.593    3568.3002   -37998.894    399.47161 
   25600    294.91115    130.14991    119947.36   -34360.804    3599.8086   -37960.613     400.3937 
   25650    286.57862   -66.200805    120180.83   -34411.979    3498.0982   -37910.077    401.98982 
   25700    284.94253  -0.41775993     120027.3    -34470.14    3478.1274   -37948.267    402.55928 
   25750     286.1692   -158.05128    120008.17   -34472.004    3493.1006   -37965.105    403.49317 
   25800    290.56988    751.16946    120026.85   -34355.366    3546.8172   -37902.184    404.28903 
   25850     292.9781    203.50846    120187.47   -34340.676    3576.2129   -37916.889    405.08197 
   25900    288.46545    214.07603    120395.85   -34345.877    3521.1297   -37867.007    406.11569 
   25950    286.88185    265.90292    120400.46   -34407.291    3501.7995   -37909.091    407.04794 
   26000    291.32242   -159.39798    120505.17   -34369.844    3556.0029   -37925.847    408.29009 
   26050    291.31075   -76.147155    120426.82   -34387.903    3555.8605   -37943.763    409.04951 
   26100    290.26303   -117.31748    120486.89   -34379.738    3543.0716   -37922.809     409.5631 
   26150    287.98163    119.91604    120608.02   -34367.226    3515.2239    -37882.45    410.28398 
   26200    285.80977    79.535832    120618.71   -34411.754    3488.7132   -37900.467    410.83547 
   26250    287.76572    252.52316    120807.25   -34451.436    3512.5884   -37964.024    411.85439 
   26300    287.84104   -422.36967    120874.18   -34472.325    3513.5078   -37985.833    412.37437 
   26350    287.52937   -308.25855    120683.08   -34469.724    3509.7035   -37979.428    412.63335 
   26400    285.94367   -86.807016    120544.31   -34491.868    3490.3478   -37982.216    413.25104 
   26450    291.05339    298.20825    120100.38   -34408.509    3552.7191   -37961.228    413.16858 
   26500    290.36312   -1.9728298     120150.4   -34419.768    3544.2934   -37964.062     414.6576 
   26550    292.85872    132.75958    120191.51   -34399.456    3574.7558   -37974.212    415.69391 
   26600      292.709   -234.11755    120091.84   -34394.238    3572.9282   -37967.167    416.25917 
   26650    291.82867   -526.00197    119903.55   -34410.334    3562.1825   -37972.517    417.01942 
   26700    290.55075    300.99513    120064.31   -34372.302    3546.5837   -37918.885    418.04762 
   26750    294.81025   -36.275418     120066.9   -34364.024    3598.5769   -37962.601    418.69429 
   26800    294.26932    104.17189    119924.74   -34430.248     3591.974   -38022.222    418.90346 
   26850    287.00324     173.0281    120092.05   -34443.942    3503.2813   -37947.224    419.80479 
   26900    293.05786   -12.240977    120102.21   -34391.021    3577.1865   -37968.208    420.71898 
   26950    294.97871   -59.337825    119933.05   -34380.409    3600.6332   -37981.042    421.18339 
   27000    291.52493    184.05114       120103   -34399.565    3558.4749    -37958.04    422.73493 
   27050    289.30494   -219.02863    120228.03   -34408.322    3531.3767   -37939.699    423.88569 
   27100      293.164  -0.94558745    120075.33   -34368.679    3578.4821   -37947.161    423.65418 
   27150    288.99552    350.04727    120213.67   -34377.908    3527.5998   -37905.507    425.02236 
   27200    290.41793   -323.46575    120153.01   -34387.895    3544.9624   -37932.858    425.36873 
   27250    293.58231   -73.827203    120087.01   -34353.438    3583.5882   -37937.026    425.55616 
   27300    292.75253    126.83516    120314.37   -34287.732    3573.4595   -37861.192    426.92069 
   27350    294.83974    143.12143    120499.73   -34290.435    3598.9369   -37889.372    428.04353 
   27400    293.88744   -152.62232       120330   -34332.597    3587.3126    -37919.91    428.37065 
   27450    291.21539   -412.90972    120374.77   -34356.588    3554.6966   -37911.285    429.00431 
   27500    293.08904   -61.701654    120146.14   -34426.224    3577.5671   -38003.791    429.50106 
   27550    286.93814   -38.519773    120309.46   -34500.031    3502.4867   -38002.518    430.19471 
   27600    286.67588    79.553261     120159.8   -34550.269    3499.2854   -38049.554    430.79784 
   27650    282.93138   -32.435249    120216.39   -34521.681    3453.5785   -37975.259    431.42366 
   27700    287.26399   -97.970799    120066.87    -34463.14     3506.464   -37969.604    432.03074 
   27750    290.39569    119.93363    120045.41    -34379.23    3544.6909   -37923.921     433.2728 
   27800    289.28221   -8.9262652    120352.83   -34384.169    3531.0993   -37915.268    435.17707 
   27850    294.83214   -20.588049    120421.96   -34414.538    3598.8441   -38013.382    435.80664 
   27900    281.81984   -61.330425    120587.21   -34471.621    3440.0106   -37911.631    437.14752 
   27950     289.7006   -58.397568    120583.83    -34463.08    3536.2063   -37999.286    437.61505 
   28000    284.93617   -43.325264    120504.66   -34511.509    3478.0498   -37989.558    438.19775 
   28050    281.08248   -260.94978    120624.43   -34520.593      3431.01   -37951.603     439.3659 
   28100    280.86756     205.5805     120715.4   -34479.957    3428.3866   -37908.344    440.60281 
   28150    288.83578    162.16918    120438.71   -34448.294      3525.65   -37973.944    440.84954 
   28200    287.71181   -336.93786    120332.39   -34466.644    3511.9304   -37978.575    441.99991 
   28250    287.47771    52.039139    120420.56   -34453.611    3509.0729   -37962.684    443.13774 
   28300    285.52821   -4.6269656    120660.31   -34459.271    3485.2765   -37944.547     444.4482 
   28350    284.12042   0.77882144    120648.53    -34425.87    3468.0923   -37893.963    445.68987 
   28400    286.44823   -296.98819    120200.42   -34450.174    3496.5065    -37946.68    445.74263 
   28450    286.50939    380.11992    120112.35   -34435.235    3497.2531   -37932.488    447.02016 
   28500    291.67848   -245.82525    120043.03   -34482.147    3560.3492   -38042.497    447.72885 
   28550    289.92843    208.74256    120277.81   -34492.694    3538.9873   -38031.681     449.5583 
   28600    286.35572    95.914519    120231.81   -34506.971    3495.3774   -38002.348    450.58412 
   28650    286.48966     136.3722    120189.37   -34494.624    3497.0123   -37991.636    451.06653 
   28700    288.78155   -25.297621    120126.79   -34502.785    3524.9881   -38027.773     451.5627 
   28750    288.68842   -184.12254    120136.05   -34515.737    3523.8513   -38039.588    451.59618 
   28800     287.8685   -64.394469    120274.69   -34530.463     3513.843   -38044.306    453.13685 
   28850    286.20962   -530.04445    120173.11   -34512.502     3493.594   -38006.096    453.88875 
   28900    291.16644   -37.063579    119829.98   -34520.997     3554.099   -38075.096    454.18678 
   28950    287.66346     544.2552    120258.17   -34516.828    3511.3402   -38028.168    455.79178 
   29000    286.37397    60.285648    120228.17   -34491.955    3495.6001   -37987.555    456.63485 
   29050    286.51977    154.73511    120309.51     -34481.7    3497.3799    -37979.08    457.84105 
   29100    288.03896    263.96762    120355.14   -34453.743    3515.9237   -37969.667    458.08046 
   29150    288.29638    340.31207    120431.84   -34398.323    3519.0659   -37917.389    459.53867 
   29200    286.20232    123.51216     120520.2   -34341.284     3493.505   -37834.789    460.38202 
   29250    291.19604    267.21119    120379.95   -34382.988    3554.4604   -37937.449    461.65873 
   29300    295.99437    85.623302    120630.01   -34362.054    3613.0308   -37975.085    463.28885 
   29350     292.3081    392.39711    120586.53   -34399.486    3568.0347    -37967.52    464.01863 
   29400    289.40006    212.04727    120665.86       -34411    3532.5379   -37943.538     465.2662 
   29450    293.19984   -36.104317    120621.41   -34350.453    3578.9195   -37929.372    465.84648 
   29500    288.90257   -311.25216    120562.84   -34369.268    3526.4652   -37895.733    466.95121 
   29550      291.545   -124.23971    120470.81    -34410.32    3558.7199    -37969.04    467.66497 
   29600    293.35452    36.974379    120344.48   -34383.732    3580.8076   -37964.539    468.60974 
   29650    291.46612    351.68433     120283.5   -34345.997     3557.757   -37903.754    469.90594 
   29700    291.11155   -138.91333     120317.2   -34441.947     3553.429   -37995.376     470.8191 
   29750    284.99261    21.663623    120365.94    -34487.84    3478.7386   -37966.578    471.83949 
   29800    287.91223    15.506354    120342.41   -34529.406    3514.3768   -38043.782    473.38217 
   29850    286.93639   -300.27165    120276.64   -34498.095    3502.4653    -38000.56    473.96806 
   29900    286.14168   -90.148244    120421.33   -34479.077    3492.7648   -37971.842    475.52573 
   29950    284.83284    7.4607199    120488.81   -34505.185    3476.7885   -37981.974    477.15783 
   30000    286.15713    321.03428    120574.61   -34512.985    3492.9534   -38005.938    478.04173 
   30050    283.24228       153.24    120536.94   -34467.979    3457.3735   -37925.352     478.8438 
   30100     293.2299    45.559359    120547.13   -34410.073    3579.2864   -37989.359    479.79673 
   30150    289.25012   -329.05517    120543.39   -34402.693    3530.7076     -37933.4    480.66409 
   30200    285.02642   -415.50338    120251.39   -34449.844    3479.1514   -37928.996    481.09846 
   30250    290.28767    111.56981    120230.46   -34432.365    3543.3724   -37975.737    481.30137 
   30300    284.75811    65.635349    120303.64   -34459.022    3475.8763   -37934.898    482.31319 
   30350    287.80764    106.08508    120479.17    -34391.87    3513.1001    -37904.97    482.82816 
   30400    288.74662   -30.169022    120376.61   -34435.358    3524.5617    -37959.92    482.86854 
   30450    285.48812   -105.50161    120371.06   -34568.493     3484.787    -38053.28    483.29906 
   30500    284.75349    3.8386738    120503.79   -34565.444    3475.8199   -38041.264    484.32156 
   30550    284.08054   -19.596809    120502.88   -34553.711    3467.6056   -38021.317    485.51105 
   30600    287.69309   -155.30396    120638.21    -34486.21    3511.7019   -37997.912    486.71692 
   30650     282.6444    500.15915    120738.07   -34472.668    3450.0755   -37922.743    487.80562 
   30700     281.4682     267.2972    120890.69   -34495.438    3435.7182   -37931.156    489.22175 
   30750    286.85098    19.118806    121153.77   -34450.385    3501.4228   -37951.808    490.44079 
   30800    286.22495   -258.44574    121005.98   -34435.713    3493.7812   -37929.494    490.55097 
   30850    288.73608    31.047636    120900.01    -34341.37     3524.433   -37865.803    491.21744 
   30900    289.71883    226.75341    120819.78   -34381.606    3536.4288   -37918.035    492.04936 
   30950    296.52037     161.0805    120972.04   -34369.232    3619.4513   -37988.684    493.35541 
   31000    289.76895   -371.56518    120948.64    -34404.75    3537.0407   -37941.791    494.08161 
   31050      291.993    -53.50187    120875.22   -34407.437    3564.1884   -37971.625    494.76818 
   31100      288.618   -80.785726    120828.96   -34417.279    3522.9917   -37940.271     495.6004 
   31150    293.49077   -73.669931    121021.81   -34404.752    3582.4708   -37987.223    496.23085 
   31200    288.50023   -180.36871     120983.5   -34417.656    3521.5541    -37939.21    496.79258 
   31250    289.57438    230.25827    121291.19   -34374.909    3534.6656   -37909.574    497.90119 
   31300    293.40282    118.77839    121330.05     -34311.8    3581.3973   -37893.197    498.93627 
   31350    293.15018   -66.808924     121423.5   -34331.671    3578.3134   -37909.985    500.02106 
   31400    282.87642    203.40083    121536.15   -34396.043    3452.9075   -37848.951    501.73852 
   31450    288.69816    60.519623    121520.69   -34378.514    3523.9702   -37902.484    502.61854 
   31500    294.96275   -246.42199    121226.68   -34339.264    3600.4384   -37939.703    502.39169 
   31550     287.9989   -283.34583    121044.28    -34370.62    3515.4348   -37886.054    502.96974 
   31600    290.90679    19.130586    120878.17   -34370.921    3550.9297   -37921.851    503.67569 
   31650    290.92145   -115.06598    120911.19   -34407.009    3551.1085   -37958.117    504.25664 
   31700    287.23997   -337.59709    120668.03   -34379.951    3506.1709   -37886.122    504.25603 
   31750    296.77038    8.4184211    120514.67   -34335.408    3622.5031   -37957.911    505.14485 
   31800    287.42029    233.06923    120783.85   -34377.039     3508.372   -37885.411    506.14455 
   31850     289.6394    -182.5311     120812.9   -34452.109    3535.4593   -37987.569    507.07896 
   31900    288.78007   -53.052109    120819.56   -34432.762    3524.9699   -37957.732    507.60071 
   31950    286.73409    160.37527    120772.74   -34451.061    3499.9959   -37951.057    507.78462 
   32000    290.03578    -298.0934    120633.31   -34412.774    3540.2977   -37953.072    508.26359 
   32050    296.63189   -66.010456    120597.89   -34405.358    3620.8126    -38026.17    508.63504 
   32100    285.75058    83.196273    120580.63   -34443.962    3487.9908   -37931.953     509.3319 
   32150    286.92356    86.024688    120485.46   -34458.221    3502.3087    -37960.53    510.17271 
   32200    288.09614   -496.19372    120239.58    -34559.07    3516.6217   -38075.692    510.41029 
   32250    285.47224     127.0095    120247.64   -34568.582    3484.5932   -38053.176    511.49109 
   32300     287.8732   -52.272789    120352.44   -34529.952    3513.9003   -38043.852    512.43359 
   32350    282.84848    88.473439    119989.67   -34556.887    3452.5666   -38009.454    512.14813 
   32400    287.18127   -63.912554    120067.29   -34550.677    3505.4544   -38056.132     513.0414 
   32450    288.45996   -40.909753    120033.17   -34519.957    3521.0627    -38041.02    513.98113 
   32500    290.45477    428.26895    120248.16   -34466.166    3545.4121   -38011.578    514.99943 
   32550    290.50896   -16.016262     120213.4   -34476.513    3546.0736   -38022.587    515.83737 
   32600    292.48554    151.38766    120337.45   -34417.742    3570.2005   -37987.943    516.91131 
   32650    290.12511    392.13971     120537.1   -34429.441    3541.3881    -37970.83    517.65227 
   32700    281.77053   -385.22773    120361.79    -34486.01    3439.4086   -37925.419     517.7925 
   32750    285.03815      112.258    120299.57   -34444.446    3479.2945   -37923.741    518.26537 
   32800    298.40319    63.280537    120337.17   -34372.515    3642.4338   -38014.949    519.52756 
   32850    289.77751    136.47581    120281.75   -34376.224    3537.1452   -37913.369    520.11674 
   32900    290.96146    15.906813    120104.39   -34436.589    3551.5969   -37988.186      520.751 
   32950    288.71485    22.040625     120083.8   -34420.044    3524.1739   -37944.218    521.52525 
   33000    292.62842   -216.31624    120030.73    -34429.65    3571.9445   -38001.594    522.55212 
   33050    290.89585   -73.406603       120127   -34461.268     3550.796   -38012.064    524.18208 
   33100    288.07806   -144.31427    119848.81   -34449.343     3516.401   -37965.744    524.88728 
   33150    288.41293    486.71728    119867.61   -34429.631    3520.4885    -37950.12    525.73357 
   33200    287.10186   -150.32864    120147.06   -34450.715    3504.4851     -37955.2     527.5014 
   33250    289.66938    98.474069    120199.44    -34453.92    3535.8252   -37989.746    528.42371 
   33300    289.53946    25.874925    120374.01   -34426.666    3534.2395   -37960.905    529.82656 
   33350    286.19302   -248.45303    120292.17   -34462.134    3493.3913   -37955.526    530.59017 
   33400    289.67847   -308.29273    120053.13   -34455.325    3535.9362   -37991.261    530.62814 
   33450    287.14575    244.34735    120017.53   -34509.341    3505.0208   -38014.361     531.3457 
   33500    285.89903    -227.6141    119910.64   -34518.094    3489.8028   -38007.897    532.00667 
   33550    291.57553    -49.11187    119837.96   -34485.699    3559.0925   -38044.792    532.90589 
   33600    287.44264      163.622    119845.27   -34511.285    3508.6447    -38019.93    533.83927 
   33650    289.88671   -197.80376    119819.73   -34486.719    3538.4782   -38025.197    534.71294 
   33700    291.25046     58.12778    119805.88   -34484.998    3555.1246   -38040.122    535.73439 
   33750    294.95148   -31.551551    120071.73   -34373.781    3600.3008   -37974.082    537.94841 
   33800    293.27715   -51.746754    120246.53   -34354.367    3579.8632    -37934.23    539.77619 
   33850    298.86774    217.76603     120430.5   -34354.524    3648.1043   -38002.628    541.13733 
   33900    292.74578   -446.18633    120666.48   -34320.741    3573.3771   -37894.118    543.60199 
   33950    292.56864    187.83538     120471.4   -34395.679    3571.2149   -37966.894    543.74078 
   34000    287.65028   -226.33217    120572.46   -34469.067    3511.1794   -37980.246    544.61632 
   34050    286.57606    281.61137    120488.85   -34443.527     3498.067   -37941.594    546.04565 
   34100    289.77688    111.07058    120453.18   -34444.624    3537.1375   -37981.761    547.06394 
   34150    288.66691   0.35400016    120276.03   -34507.375    3523.5887   -38030.964    547.39417 
   34200    287.87603    147.21822    120208.03   -34503.268    3513.9349   -38017.203    548.28243 
   34250    286.54868   -295.18088    120094.31   -34507.312    3497.7327   -38005.045    549.03226 
   34300    285.67807    295.41654    120447.69   -34544.466    3487.1057   -38031.572    550.58271 
   34350    282.41273   -197.60887    120654.45   -34516.574    3447.2476   -37963.822    551.91985 
   34400    288.65735   -3.8872084    120632.58   -34504.883     3523.472   -38028.355    552.17478 
   34450    284.04161   -140.85094    120708.11   -34474.534    3467.1304   -37941.664    553.30711 
   34500    289.95664     100.8358     120712.4   -34384.077    3539.3317   -37923.409    553.87202 
   34550    294.97672   -59.061425    120747.68   -34301.266    3600.6089   -37901.875     555.0083 
   34600    292.29052     101.0481    120836.92   -34335.257    3567.8201   -37903.077    555.87619 
   34650    293.22131    25.318351    120625.54   -34373.191    3579.1816   -37952.372     555.1818 
   34700    285.01891   -179.86443    120900.46   -34419.682    3479.0597   -37898.741    556.78514 
   34750    288.12258   -75.770662    120587.62   -34483.931    3516.9444   -38000.875     556.7103 
   34800    282.67822    120.89844     120710.8   -34472.884    3450.4883   -37923.372    557.60253 
   34850    287.52456    88.001919    120840.33   -34452.404    3509.6447   -37962.048    558.74762 
   34900    291.94354    22.445123     121002.8   -34435.234    3563.5846   -37998.819    560.49836 
   34950    282.51533    275.39552    120972.86    -34454.58       3448.5    -37903.08    561.02039 
   35000    287.56804    55.439201    120769.71   -34453.056    3510.1754   -37963.231    561.54328 
   35050    295.53089   -189.36339    120648.75   -34395.861    3607.3734   -38003.234    561.83548 
   35100    289.69728    217.28598     120581.4   -34427.363    3536.1658   -37963.529    562.14235 
   35150    287.00045   -29.932934     120414.2   -34433.666    3503.2472   -37936.913    562.50532 
   35200    289.31422    65.514323    120521.87   -34371.957    3531.4901   -37903.447    563.53671 
   35250     291.6683    270.27077    120610.36   -34389.564    3560.2249   -37949.788    564.64593 
   35300    285.26591    92.568325    120681.57   -34395.935    3482.0748    -37878.01    565.44029 
   35350    288.45974    -53.19432    120424.42   -34409.049      3521.06   -37930.109    565.76635 
   35400    291.16121   -128.94982    120332.18   -34439.725    3554.0352    -37993.76    566.48192 
   35450    289.25114   -148.00029    120249.01   -34433.181    3530.7201   -37963.901     566.9202 
   35500    292.87691   -185.91225    119977.12   -34454.435    3574.9777   -38029.413    566.90027 
   35550    291.86036    13.720879    120101.91   -34422.549    3562.5693   -37985.118     567.5572 
   35600    289.59526    28.828145    120261.24   -34435.456    3534.9206   -37970.377    568.81298 
   35650    286.55374    40.695949    120182.83    -34440.67    3497.7945   -37938.464    569.04885 
   35700    289.73786   -106.57355    119934.75   -34406.389    3536.6611    -37943.05    569.27944 
   35750     294.6224    17.557902    120097.06   -34346.103     3596.284   -37942.387    570.33247 
   35800    297.00967     53.12549    120040.17   -34280.445     3625.424   -37905.869    570.69171 
   35850    297.21538   -41.457866    120317.77   -34322.753     3627.935   -37950.688    571.98839 
   35900    295.91483   -128.85092    120165.47   -34398.237    3612.0598   -38010.297    572.27546 
   35950    290.93564    2.7946819    119975.42   -34456.842    3551.2818   -38008.124    572.77045 
   36000    286.78792    305.56073     120263.3   -34453.105    3500.6529   -37953.758     574.3719 
   36050    290.15701    54.147174    120238.65   -34452.385    3541.7774   -37994.163     574.6357 
   36100     287.6973    237.21162    120288.11   -34486.105    3511.7532   -37997.858     575.5806 
   36150    281.48589   -80.766944    120294.82   -34480.586    3435.9342    -37916.52    576.22983 
   36200     291.1445    70.720965    120237.02   -34451.865    3553.8312   -38005.696    576.75776 
   36250    286.16767   -268.22439    120119.96   -34535.175    3493.0819   -38028.257    577.66357 
   36300    291.56292    116.35233     120131.4   -34456.082    3558.9387   -38015.021    578.52173 
   36350    289.33596    44.891083     120364.5   -34487.132    3531.7554   -38018.887     580.4462 
   36400    286.25169   -297.83896     120521.2   -34481.368    3494.1075   -37975.475    581.62282 
   36450    282.40044    -203.0785    120294.26   -34515.305    3447.0976   -37962.402    581.99471 
   36500    289.87996    53.249413    120125.99    -34501.11    3538.3957   -38039.506    583.09497 
   36550    288.20837   -82.920935    119955.58   -34499.267    3517.9916   -38017.258    582.90395 
   36600    287.98544    51.126997    119807.51     -34490.3    3515.2704   -38005.571    583.46342 
   36650    289.91256   -125.67951    119826.24   -34507.878    3538.7936   -38046.672    583.96666 
   36700    285.82571   -35.154742    120000.53   -34531.399    3488.9079   -38020.307    585.46645 
   36750    288.38828    -465.9325    119951.38   -34553.498    3520.1877   -38073.686    586.13149 
   36800    283.55331    -128.0336    119929.57   -34593.292      3461.17   -38054.462    587.11281 
   36850    286.76832   -143.89628    119976.99   -34575.294    3500.4138   -38075.708      587.973 
   36900    287.11133    137.28471    120315.53   -34546.227    3504.6007   -38050.827    590.27056 
   36950    286.38161    364.63344    120441.04   -34544.146    3495.6934    -38039.84    591.53206 
   37000    287.48603   -187.08572    120546.95   -34523.036    3509.1744   -38032.211    593.16129 
   37050    280.12109    169.02594    120367.24   -34570.778    3419.2749   -37990.053    593.66839 
   37100    288.03299    205.13313    120351.09   -34544.438    3515.8508   -38060.289    594.83256 
   37150    290.88486   -80.833877    120422.08   -34539.801    3550.6619   -38090.463    596.23431 
   37200    285.31647    237.12605    120487.93   -34558.848    3482.6918   -38041.539    597.25404 
   37250    285.59903    -49.76748    120660.35   -34550.152    3486.1409   -38036.293    598.15203 
   37300     281.8122   -173.49262    120585.07   -34535.139    3439.9172   -37975.056    598.20025 
   37350    291.14635   -94.352127    120231.14    -34506.81    3553.8538   -38060.663    596.94502 
   37400    284.02584   -360.46256    120108.46   -34571.394    3466.9379   -38038.331    596.98628 
   37450    287.27456   -37.865642    120055.82    -34523.49    3506.5931   -38030.083    597.09505 
   37500     287.7894    -478.1975    119765.91   -34534.063    3512.8775    -38046.94    597.10073 
   37550     284.0934    418.71303    119654.74   -34549.946    3467.7626   -38017.709    597.51294 
   37600    288.81826   -74.899283    119903.86   -34554.276    3525.4361   -38079.712     599.1422 
   37650    284.56787   -180.26002    119930.43   -34609.631    3473.5542   -38083.185    600.29148 
   37700    282.60347   -106.09176    119735.45   -34664.802    3449.5759   -38114.378    600.50859 
   37750    282.90867    85.256279    119792.39   -34690.383    3453.3012   -38143.684    601.73028 
   37800    281.74511    67.195233    119642.19   -34711.141    3439.0984    -38150.24    602.49545 
   37850    278.82557   -337.89506    119865.33   -34653.843    3403.4612   -38057.304    603.63693 
   37900    284.58226   -97.402826    119942.99   -34586.707    3473.7298   -38060.436    604.65692 
   37950    288.22802    212.70055    119885.18   -34548.114    3518.2315   -38066.346    605.11171 
   38000    283.55116     172.5259    120069.13   -34509.263    3461.1437   -37970.406    606.31373 
   38050    286.98777    4.2373061    120057.79   -34540.693    3503.0925   -38043.785    606.60455 
   38100    285.41756    303.94597    120237.91   -34510.643    3483.9258   -37994.569    608.57625 
   38150    282.22445   -19.881455    120126.46   -34490.698    3444.9493   -37935.647    608.83609 
   38200    295.65596   -219.97841    120102.16   -34451.499       3608.9   -38060.399     609.0299 
   38250    289.95655    160.17871    120282.64   -34402.295    3539.3307   -37941.625     610.3337 
   38300    284.69199   -54.495008    120317.71   -34480.709    3475.0692   -37955.778    611.20554 
   38350    287.44323    43.025634    120524.13   -34396.107     3508.652   -37904.759    612.30154 
   38400    291.33242   -238.34104    120551.42   -34418.757    3556.1251   -37974.882     613.7448 
[...]
  190900    287.01289    51.454794    120733.42   -34368.358    3503.3991   -37871.757    3072.8329 
  190950    288.08699   -298.40159    120719.12   -34397.323    3516.5099   -37913.833    3073.8897 
  191000    286.98754    78.040018    120731.92   -34431.291    3503.0897   -37934.381    3074.1131 
  191050     286.7149    129.11454    120620.29   -34453.473    3499.7617   -37953.234    3073.4174 
  191100     286.0902     321.0807    120665.37   -34502.249    3492.1363   -37994.385    3075.3822 
  191150    282.72411   -144.84304    120504.71   -34520.577    3451.0485   -37971.625    3071.2791 
  191200    288.44219    447.39614    120578.37   -34478.623    3520.8457   -37999.469    3073.4319 
  191250    288.13037   -168.02509     120626.2   -34519.263    3517.0395   -38036.303    3074.0428 
  191300    291.94489    19.230105    120599.27   -34486.757    3563.6011   -38050.358    3074.8998 
  191350    289.69541   -203.84211    120535.67   -34488.319    3536.1431   -38024.462    3074.4079 
  191400    285.93515    151.55846    120728.82   -34438.235    3490.2437   -37928.478    3076.8389 
  191450    286.73443   -52.452989    120757.41   -34390.363         3500   -37890.363    3077.3263 
  191500    292.64519    105.60061    120561.61   -34441.063    3572.1493   -38013.213    3073.0748 
  191550    291.80219    281.41309    120857.49   -34376.199    3561.8593   -37938.059    3079.5183 
  191600    291.21137   -150.86666     120555.6   -34375.733    3554.6474    -37930.38    3076.1634 
  191650    296.02389   -33.927214    120532.67   -34417.636    3613.3911   -38031.027    3077.3701 
  191700    292.45239   -114.50531    120687.04   -34412.671    3569.7958   -37982.467    3081.7366 
  191750    290.02064    92.474138    120702.88   -34466.919    3540.1129   -38007.032     3083.989 
  191800     285.2712  -0.92908077    120592.42   -34477.109    3482.1393   -37959.249     3083.436 
  191850    287.18437    307.79853    120685.44   -34500.281    3505.4922   -38005.773     3084.985 
  191900    284.41538   -291.25937    120833.72   -34600.277    3471.6927    -38071.97    3088.2891 
  191950    288.67044    36.968041    120762.42     -34502.9    3523.6318   -38026.532     3087.565 
  192000     290.8611    131.36424    120688.62   -34505.069    3550.3719   -38055.441    3086.4016 
  192050    291.45999    315.11479    120948.05   -34443.403    3557.6823   -38001.085    3090.9842 
  192100     289.5933   -386.19042     120865.8   -34474.219    3534.8966   -38009.115    3088.6535 
  192150    283.39167   -68.678977    120839.84   -34496.049    3459.1969   -37955.246    3089.5436 
  192200    290.42772   -80.853947    120825.15   -34433.148    3545.0819    -37978.23    3090.7027 
  192250    290.81419    219.22139    120882.95   -34432.355    3549.7993   -37982.154    3092.2758 
  192300    290.93854   -105.29531    120846.48   -34451.083    3551.3171     -38002.4    3092.4054 
  192350    285.63256    15.168106    120867.64   -34519.483    3486.5501   -38006.033    3093.7399 
  192400    293.16269   -9.9161692    120720.98   -34468.695    3578.4661   -38047.161    3091.9517 
  192450    287.79006     178.2408    120594.97   -34493.605    3512.8855   -38006.491    3090.5893 
  192500    289.30764    244.21939    120638.01   -34470.471    3531.4098    -38001.88    3092.2818 
  192550    290.68089   -29.455738    120761.95   -34460.831    3548.1722   -38009.003    3095.6065 
  192600    291.65719   -159.07331     120645.9   -34458.133    3560.0893   -38018.222    3094.6523 
  192650    287.38164    135.96827    120667.75   -34411.668    3507.9002   -37919.568    3095.8568 
  192700    289.63976   -77.041795    120489.14   -34405.847    3535.4637   -37941.311    3094.7274 
  192750    289.86873     61.39632    120331.46   -34460.165    3538.2586   -37998.424    3092.1612 
  192800    286.02458   -196.33081    120549.71   -34496.783    3491.3353   -37988.118    3097.6348 
  192850    290.22363   -51.865457     120548.5   -34470.661    3542.5907   -38013.252    3097.8161 
  192900    285.42312    105.83692    120672.12   -34448.287    3483.9937    -37932.28    3100.3047 
  192950    289.97723   -126.53814    120549.92   -34435.328     3539.583   -37974.911      3098.16 
  193000     285.0446    157.59372    120585.15   -34451.117    3479.3733    -37930.49    3098.9318 
  193050    289.18955    242.48849    120640.56   -34412.719    3529.9683   -37942.687    3099.3672 
  193100    292.65308    170.55368    120741.53   -34370.716    3572.2456   -37942.961    3102.0884 
  193150    289.04812     69.92263    120715.94   -34396.979    3528.2419   -37925.221    3101.7298 
  193200    292.13249  0.057239365    121158.87    -34375.64     3565.891   -37941.531    3110.1649 
  193250    290.58716   -81.403221     120902.5   -34348.004    3547.0281   -37895.032    3106.4537 
  193300    289.82386   -94.031589    120877.08   -34332.743    3537.7109   -37870.454    3108.3451 
  193350    292.99096     92.95946    120928.76   -34412.056    3576.3699   -37988.426    3110.0645 
  193400    289.55419   -217.68526    120935.42   -34396.584    3534.4193   -37931.003    3112.0848 
  193450    290.57496    162.80125    120908.79   -34398.344    3546.8792   -37945.223     3112.016 
  193500    287.43127   -24.340752    121158.96   -34429.698     3508.506   -37938.204    3116.9523 
  193550    284.05534    115.77381    121149.96   -34436.792     3467.298    -37904.09    3118.6793 
  193600    290.32156   -291.08292    120940.35   -34428.289     3543.786   -37972.075    3115.1115 
  193650    286.13073    73.592643    120666.48   -34439.896    3492.6311   -37932.527    3110.3563 
  193700     286.4455    321.38302    120597.36   -34471.302    3496.4732   -37967.775    3109.6956 
  193750    284.72619    -150.9397    120586.71   -34473.167    3475.4866   -37948.653     3109.205 
  193800    289.65064   -69.387487     120574.5   -34458.445    3535.5965   -37994.042    3108.9006 
  193850    285.75936   -298.92163    120550.51   -34511.203     3488.098   -37999.301    3109.6043 
  193900    292.01669   -246.55638    120359.89   -34467.459    3564.4775   -38031.936    3107.1989 
  193950    285.77729    218.96707    120348.86   -34508.591    3488.3168   -37996.907    3107.7333 
  194000    286.27506     2.209259    120360.18   -34490.693    3494.3927   -37985.085    3108.6529 
  194050    286.86275   -31.601862    120467.28   -34564.001    3501.5665   -38065.568    3111.1629 
  194100    286.60089   -33.309514    120271.85    -34563.39      3498.37    -38061.76     3109.247 
  194150    287.51445   -128.59718    120307.51   -34483.587    3509.5213   -37993.109    3110.8078 
  194200    279.38849    643.85552    120260.94   -34509.174    3410.3325   -37919.506    3110.1908 
  194250     282.4774    17.614143    120389.75   -34526.582     3448.037   -37974.619    3112.4967 
  194300    287.65862    365.94153    120322.54   -34513.911    3511.2811   -38025.192    3112.6592 
  194350    292.23084   -54.502761    120152.22   -34528.135    3567.0916   -38095.226     3112.098 
  194400    286.29936    421.01738    120184.01   -34558.028    3494.6895   -38052.718     3114.048 
  194450    284.20926    85.039673    120321.28   -34542.892    3469.1767   -38012.068    3117.0526 
  194500    281.95825    386.93712    120347.56   -34508.282       3441.7   -37949.982    3117.9216 
  194550    285.97813    149.74409    120384.31   -34552.069    3490.7683   -38042.838    3119.1222 
  194600    289.04601    165.14597    120381.95   -34437.534    3528.2162   -37965.751    3120.6658 
  194650    291.01646    -368.1132    120305.63    -34442.34    3552.2684   -37994.608    3119.5347 
  194700    293.90764    308.43265    120232.04   -34417.856    3587.5592   -38005.415    3118.9996 
  194750     291.9987   -40.748659    120355.44   -34426.931    3564.2579   -37991.189    3122.5611 
  194800    291.15429   -101.49504    120443.19   -34407.942    3553.9507   -37961.892    3124.7112 
  194850    287.43994   -372.36578    120202.66    -34399.03    3508.6118   -37907.642    3121.2857 
  194900    290.80536    25.759275    119987.92    -34351.98    3549.6915   -37901.671    3118.3658 
  194950    289.26408   -169.25766    120090.48    -34372.29     3530.878   -37903.168    3121.6827 
  195000    289.75587   -312.61862    119928.68   -34438.656     3536.881   -37975.537    3119.0244 
  195050    293.63805   -16.533704    119833.57   -34390.755    3584.2686   -37975.023    3118.9195 
  195100    292.20208    273.47621    120076.03    -34379.48    3566.7405    -37946.22    3123.8637 
  195150    289.69126   -151.48414    120301.21   -34443.204    3536.0924   -37979.297    3127.8687 
  195200    287.19716    188.86849    120295.12   -34477.283    3505.6483   -37982.932    3128.5074 
  195250    290.98201   -10.172926    120232.89   -34463.785    3551.8477   -38015.632    3127.3092 
  195300    293.45194   -139.04675    120452.89   -34429.451    3581.9968   -38011.447    3132.2791 
  195350    287.52116     47.85532    120692.84   -34470.488    3509.6032   -37980.091     3137.917 
  195400     287.9946    64.590235    120435.18   -34504.119    3515.3822   -38019.502    3135.0452 
  195450    288.55311   -259.71527       120219   -34480.634    3522.1996   -38002.834    3132.8088 
  195500    284.90438    82.119458    120522.79    -34536.21    3477.6617   -38013.872    3137.8918 
  195550    293.15593   -238.16433    120352.93   -34467.985    3578.3836   -38046.368    3134.8911 
  195600    285.09186   -178.19569    120299.94   -34533.078    3479.9501   -38013.028    3134.2542 
  195650    288.36453    167.78176    120221.85    -34513.03    3519.8978   -38032.928    3132.5507 
  195700    287.78884   -170.61998    120207.24   -34519.119    3512.8707    -38031.99    3133.0154 
  195750    284.69898    -42.15375    120095.93   -34479.694    3475.1545   -37954.848    3132.2589 
  195800    290.47125   -279.54221     120210.8   -34430.404    3545.6132   -37976.018     3134.983 
  195850    289.65294   -231.29663    120330.31    -34462.32    3535.6247   -37997.945    3138.5517 
  195900    289.88083    362.92229    120353.79     -34465.9    3538.4064   -38004.306    3139.1781 
  195950    291.50379    52.129919    120344.69   -34409.543    3558.2169    -37967.76    3141.0471 
  196000    291.65043   -102.29643    120362.52   -34371.158    3560.0068   -37931.165    3142.0919 
  196050    290.58821   -210.56964    120373.39   -34459.888    3547.0409   -38006.929      3143.49 
  196100    286.61466   -116.84596    120351.74   -34523.456    3498.5381   -38021.994    3145.2632 
  196150    283.06272   -92.653843    120154.58   -34594.746    3455.1816   -38049.928    3141.5579 
  196200    280.76633    316.65108     120017.8   -34564.139    3427.1509    -37991.29    3140.4864 
  196250    284.27634   -160.51774     119967.5   -34542.184    3469.9956   -38012.179    3141.7856 
  196300    285.22267     194.2518    120122.54   -34486.828    3481.5469   -37968.375    3144.9802 
  196350     286.6428   -220.32234    120172.55   -34512.896    3498.8816   -38011.777    3147.3123 
  196400    291.01608    195.00557    120212.16   -34466.127    3552.2637   -38018.391    3148.7054 
  196450    292.71314   -80.323472    120261.71   -34497.382    3572.9786   -38070.361    3149.8851 
  196500    288.68522   -29.379075     120213.1   -34527.208    3523.8122    -38051.02    3148.2283 
  196550    292.55066    24.620015    120353.52   -34470.522    3570.9954   -38041.517    3153.2896 
  196600    290.59474    35.985854    120668.58   -34470.845    3547.1206   -38017.966    3159.2348 
  196650    291.73002   -290.34135     120407.6   -34449.449    3560.9784   -38010.427    3155.8313 
  196700    284.09316    212.11494    120554.42   -34512.282    3467.7597   -37980.041    3159.0649 
  196750    286.67614   -197.88521    120480.22   -34438.039    3499.2886   -37937.327    3157.7365 
  196800    292.12824     45.98942    120475.58   -34428.172    3565.8391   -37994.011    3158.4756 
  196850    293.15762   -318.28516    120482.53   -34419.065    3578.4042   -37997.469    3158.9928 
  196900    286.10954   -33.531713    120119.66   -34471.863    3492.3724   -37964.235    3153.9081 
  196950     285.2143   -168.07617    120165.51   -34491.842    3481.4448   -37973.287    3155.3491 
  197000     287.2793   -181.90086    119878.96   -34504.773     3506.651   -38011.424    3150.8848 
  197050    286.19593    162.67455    119701.17   -34563.808     3493.427   -38057.235    3149.6034 
  197100     282.3143    159.07485    119908.41   -34577.861    3446.0461   -38023.907    3154.5784 
  197150    285.64093    20.267095    119681.18    -34573.76    3486.6524   -38060.412    3150.7587 
  197200    286.32305   -32.957122    119781.75   -34588.598    3494.9786   -38083.576    3152.9458 
  197250    290.70953   -227.64337    119715.44   -34551.624    3548.5218   -38100.146    3151.9924 
  197300    287.72377    7.9720062    119789.97   -34583.595    3512.0764   -38095.671    3154.4521 
  197350    293.84841   -31.308325    119831.19   -34560.897    3586.8363   -38147.733    3155.6184 
  197400    284.09234    45.145023    119954.19   -34576.342    3467.7496   -38044.092    3157.0809 
  197450    286.03142     -162.319    119759.68   -34587.428    3491.4189   -38078.847     3153.959 
  197500    285.59817    506.87115    119863.64   -34561.276    3486.1304   -38047.407    3156.2569 
  197550    287.52326    53.123265     120080.7   -34485.743    3509.6288   -37995.372    3159.1541 
  197600    285.64881    15.426513    120093.28   -34466.185    3486.7485   -37952.933    3159.9168 
  197650    299.74567   -63.962112    120080.69    -34408.41    3658.8207    -38067.23    3160.9617 
  197700    290.51795   -261.12558    120334.47   -34449.764    3546.1833   -37995.948    3166.1105 
  197750    287.17866   -262.87167    119852.09   -34465.927    3505.4226   -37971.349    3158.6697 
  197800    290.19009   -256.68844    119857.42   -34485.571    3542.1813   -38027.753    3160.4526 
  197850    285.15701    109.80555    119967.78    -34533.67    3480.7454   -38014.415    3162.9025 
  197900    293.30386   -7.4154874    119997.54   -34483.067    3580.1893   -38063.256    3164.0109 
  197950    288.81476   -344.41517    119885.99   -34467.677    3525.3934    -37993.07    3162.5639 
  198000    286.27015     490.4641    119954.88   -34516.361    3494.3328   -38010.694     3164.286 
  198050    285.44053      79.3812     120153.3    -34480.45    3484.2061   -37964.656    3168.4448 
  198100    290.67782    160.56635    120055.34   -34490.222    3548.1347   -38038.357    3167.8982 
  198150    287.85697    -249.8217    120046.74   -34505.843    3513.7023   -38019.546    3168.8745 
  198200    289.05234    121.99138    120013.64   -34502.395    3528.2934   -38030.689     3169.292 
  198250    288.03338   -55.573417    120116.77   -34501.045    3515.8555     -38016.9    3173.3035 
  198300    290.49767    38.033582    120139.12    -34509.72    3545.9358   -38055.656    3175.4905 
  198350     281.3638   -9.2012761    120236.53   -34570.168    3434.4439   -38004.612    3178.3077 
  198400    283.04511    -128.8033    120311.94    -34636.47    3454.9667   -38091.437    3179.9582 
  198450    283.58243    279.30911     120246.3   -34577.549    3461.5254   -38039.074    3179.0508 
  198500    286.20385    -279.6068     120265.9   -34577.391    3493.5236   -38070.915    3180.7551 
  198550    290.10332   -18.328022    120296.02   -34523.209    3541.1221   -38064.331    3182.3863 
  198600    288.10071    416.41776    120251.76   -34551.335    3516.6774   -38068.012    3182.0632 
  198650    284.40858   -70.084716    120538.05    -34503.85    3471.6097    -37975.46    3187.5099 
  198700    284.43637   -84.537046    120584.78   -34495.249     3471.949   -37967.198    3188.6521 
  198750    289.15267    218.12663    120529.12   -34464.832    3529.5181    -37994.35    3189.3926 
  198800    285.42228    29.039856    120505.67   -34459.059    3483.9834   -37943.043    3188.8159 
  198850    286.90178    -44.92634    120579.89   -34487.813    3502.0429   -37989.856    3190.9286 
  198900    284.92787   -55.618747    120754.49   -34477.752    3477.9484     -37955.7    3194.9156 
  198950    287.12592   -108.05108    120766.72   -34457.673    3504.7788   -37962.452    3194.9371 
  199000    291.51085   -171.61614    120625.74   -34452.416    3558.3031   -38010.719    3194.0943 
  199050    291.29973    156.95721    120776.85   -34493.881     3555.726   -38049.607    3198.0934 
  199100    287.08672   -79.280086    120827.33   -34480.045    3504.3002   -37984.345    3199.2285 
  199150    285.54278    166.61847    120855.23   -34483.517    3485.4543   -37968.971    3200.2618 
  199200    282.51626   -36.315752    121081.84   -34501.895    3448.5114   -37950.406    3204.5419 
  199250    288.23195   -350.31452    120961.11    -34478.01    3518.2794   -37996.289    3202.9701 
  199300    288.14936     553.3814    121164.17   -34444.526    3517.2713   -37961.798    3207.5736 
  199350    291.61507    -58.65905    121141.93   -34338.217    3559.5752   -37897.792    3208.4156 
  199400    294.74644   -59.121437    121042.23   -34328.893     3597.798   -37926.691    3206.6705 
  199450    288.69332    -58.21665    120973.17   -34379.367     3523.911   -37903.278     3205.773 
  199500    290.64471    147.16288    121142.06    -34312.82    3547.7306   -37860.551    3208.7685 
  199550    294.34274   -443.67668    121110.84   -34374.462    3592.8702   -37967.333    3209.0792 
  199600    286.69095    115.92058    120991.06   -34366.126    3499.4693   -37865.595    3207.2043 
  199650    290.42753   -224.64266    120922.11   -34347.618    3545.0796   -37892.697    3206.4552 
  199700    289.79052    355.08158    120985.32   -34329.632     3537.304   -37866.936    3208.5926 
  199750     291.9542   -27.527151    121094.69   -34323.159    3563.7148   -37886.874    3212.2567 
  199800    293.29624    350.23684    121203.79   -34290.413    3580.0962   -37870.509    3214.9444 
  199850    289.02495   -205.47679    121156.62   -34351.887    3527.9591   -37879.846     3214.367 
  199900    287.24001   -222.04911    121155.62   -34431.164    3506.1714   -37937.336    3215.2154 
  199950      285.152    464.20162    121203.52    -34428.81    3480.6843   -37909.495    3216.5368 
  200000    292.16258    195.00012     121357.1   -34369.775    3566.2584   -37936.034    3218.6959 
Loop time of 293.105 on 12 procs for 200000 steps with 4096 atoms

Performance: 294.775 ns/day, 0.081 hours/ns, 682.349 timesteps/s
99.7% CPU use with 12 MPI tasks x no OpenMP threads

MPI task timing breakdown:
Section |  min time  |  avg time  |  max time  |%varavg| %total
---------------------------------------------------------------
Pair    | 250.47     | 255.48     | 260.22     |  17.4 | 87.16
Neigh   | 7.9105     | 7.9824     | 8.1462     |   2.5 |  2.72
Comm    | 18.874     | 23.609     | 28.538     |  58.0 |  8.05
Output  | 0.34738    | 0.3703     | 0.61526    |  12.1 |  0.13
Modify  | 4.0291     | 4.3568     | 4.4983     |   7.5 |  1.49
Other   |            | 1.303      |            |       |  0.44

Nlocal:    341.333 ave 360 max 331 min
Histogram: 1 1 5 2 0 2 0 0 0 1
Nghost:    956.333 ave 970 max 932 min
Histogram: 1 0 1 0 1 2 1 1 3 2
Neighs:    0 ave 0 max 0 min
Histogram: 12 0 0 0 0 0 0 0 0 0
FullNghs:  10089 ave 10944 max 9512 min
Histogram: 1 1 1 4 2 1 1 0 0 1

Total # of neighbors = 121068
Ave neighs/atom = 29.5576
Neighbor list builds = 14391
Dangerous builds = 0

undump              1
unfix               2
unfix               3
unfix               4




################################################
#######         Run Simulation         #########
################################################

reset_timestep      0
log                 log.run_${NAME}
log                 log.run_ice_289K_1atm_ML
