LAMMPS data file via write_data, version 29 Oct 2020, timestep = 800000

4175 atoms
1 atom types

-0.09387776789155922 50.093877767894654 xlo xhi
-0.09387776789155922 50.093877767894654 ylo yhi
-0.09387776789155922 50.093877767894654 zlo zhi

Masses

1 18.015

Atoms # atomic

3111 1 47.13489622413549 23.405352908589226 13.300802005640177 0 0 0
2091 1 3.089892309996817 2.3689732715453142 0.6683558092406265 0 1 1
4151 1 8.980181378271574 2.937344100708892 3.8055973186620857 0 1 1
2582 1 13.614797796830329 24.514171837239388 0.4503566442904601 0 0 0
2826 1 17.019999765717884 1.794858164912572 2.7071973986586104 0 1 0
3293 1 47.795393474389925 6.374870356805793 1.5545717436971067 -1 1 0
2755 1 4.264579951637771 6.458170745085385 0.18593027068571555 0 0 0
4152 1 35.24419202828656 24.31885421965429 14.166806946496385 -1 0 1
2871 1 19.431378633354537 12.287520578254806 0.2603816129723371 1 0 1
651 1 33.57914447140148 1.7473531956760724 1.0655263903564212 -1 1 0
1540 1 17.226020926893042 0.5419307015489524 5.173454977150055 0 -1 1
1217 1 38.651280335680156 2.1139921181681105 1.9518210307232087 0 0 1
606 1 43.25327952772862 1.1566184276189573 2.3407477604438665 0 0 0
2069 1 41.10683193618985 1.1234197367866574 0.5645319588113175 0 0 1
168 1 0.026178877945478005 2.3647747630312015 4.124077307323694 1 0 0
80 1 17.192537564504505 1.9297783950032632 13.994138775697408 0 1 0
2699 1 7.372462838246145 15.870303713849408 0.055482375261803774 1 0 0
3613 1 10.604150001196944 5.06118109533294 3.5977350775963637 0 1 0
3700 1 14.559332191926142 3.344178674575889 3.6066531547922036 1 0 1
3587 1 12.538186152038502 4.573905743227763 1.8359161555900936 0 1 1
2866 1 17.009783003344275 4.720309317409359 2.078035130683138 1 1 0
1523 1 19.68719915472538 4.047833878879173 2.473044784546618 0 0 1
3626 1 25.092048407052882 3.4320006390128928 2.322839982771579 -1 1 0
3092 1 2.7010594525645892 0.767914891322564 11.43071839127439 1 1 1
1098 1 26.236806782586005 5.791142850092465 4.010467023243548 -1 0 1
342 1 29.84087346312628 4.102656740768523 0.7547525151256689 0 0 0
3490 1 36.671168815017694 2.7678952370990375 3.7894537451219077 -1 0 0
2926 1 38.395732793542805 6.700397872163469 3.4251022408819862 0 0 0
101 1 33.66212104506991 23.23811679547853 16.079400510911732 0 0 -1
2099 1 42.03652247113651 5.274111304383713 3.147868626111334 -1 1 1
3532 1 44.26382044778343 3.733224337608547 2.3205671714452927 0 1 2
2740 1 46.39113825946916 5.100139877046633 3.445784545718491 -2 0 0
1169 1 49.189728427634236 4.1097060663661775 0.8469171655845689 0 0 1
1702 1 1.0772128949737245 7.395918916810634 1.3378516820620616 0 0 1
3394 1 2.4832695911265485 8.934980098843372 3.2703091601796155 0 0 0
292 1 4.9523250122575355 7.675679835713922 2.558122402471348 1 -1 0
3723 1 31.35048366117402 1.27605898742852 10.730410558964001 0 1 0
3798 1 39.23778909186906 24.766693661879668 15.395411808501848 -1 0 1
3604 1 41.55410973083312 19.133787245538283 0.4955187012421728 0 1 0
3721 1 19.79049467193841 0.6960897420193396 14.052610577156928 0 1 0
2960 1 20.768674606587656 8.225673686281688 1.596790549174797 0 1 1
1822 1 23.334031112951724 6.006955597302785 3.3123447144195484 -1 0 0
1197 1 28.46861801687556 6.184781090565 2.231438063635762 0 0 0
2983 1 28.85925547845591 8.833244930591198 1.7782041842879355 0 0 0
1755 1 32.96665858010259 6.711458052432552 2.2373538179249697 0 1 1
1155 1 4.507373625854492 0.22629847510387685 7.432658256760749 0 0 0
588 1 36.64754820013276 6.364390465701433 1.1290089124509726 -1 0 0
2124 1 41.98002753754183 7.830325214031386 2.2620538235986856 0 0 0
74 1 44.068990085314155 9.171118854293368 1.2633307249210368 0 0 0
757 1 36.273549327109066 15.145657926172245 1.1418024420940793 0 0 0
2920 1 5.383784192080476 12.137760744778742 2.4575039210346765 1 0 1
30 1 31.309713217856157 -0.048458552995902404 6.1337139150369016 1 0 0
3844 1 30.64167200984368 24.725426821606618 3.2398672709390803 -1 0 1
1855 1 6.797433029324296 9.665756486437157 2.3158682890260383 -1 0 1
3683 1 8.839244526815252 9.956567440692725 0.32764398174886467 1 1 1
2862 1 10.30926995170618 12.148268477112254 1.02533014509409 0 1 1
2233 1 13.575080378714011 9.056298760172291 1.9951806496205506 0 1 0
2266 1 13.164874281998342 11.443179968006728 0.8671846578181442 1 0 1
2552 1 16.52685179882176 8.789053425601367 1.3859662941104753 1 1 0
2785 1 17.809125370472415 11.843171526161555 3.0670726535578283 1 0 0
165 1 24.656171713520962 2.103405229930044 -0.019709240129737668 -1 0 1
2401 1 22.137848360285645 11.774991170447638 1.712008722579284 0 1 0
2196 1 23.58483971748605 7.8375318920571 1.125963258044172 0 -1 0
3668 1 0.6243145861605617 0.849333028427892 8.033302025934391 1 1 1
89 1 34.69563082441988 0.6638150488868795 3.210639988444921 0 0 0
2453 1 35.99375541423062 9.410040182158218 3.9692858370845805 0 0 0
322 1 37.720980896730964 10.752223130387142 5.29696889206643 0 0 0
3571 1 40.13813757055951 11.776868691532421 2.6630369746402334 -1 0 1
3656 1 39.90889825756753 9.108978693653341 3.9254655490294956 0 0 1
2096 1 44.838634142156906 12.661001279045868 2.5640864182416263 0 0 1
324 1 17.99776607582505 0.5944970937441968 0.31405296766654955 0 1 0
2192 1 49.86419974906643 10.334916804723305 2.470399934596886 0 0 0
1908 1 8.662651883349044 0.019935109024187783 2.594398420105524 0 0 1
4065 1 42.16313283559917 0.6943686157324729 8.562633878634665 0 1 1
3285 1 9.311855231168503 14.89117283433921 1.6364722698666958 -1 0 1
3161 1 13.92351428132076 13.756668583954578 2.8665580365570924 0 1 1
3046 1 16.42482127430609 14.949002501923506 3.3716193223451945 0 1 1
1643 1 25.965580002244472 24.672425366148996 2.040472373593369 0 0 0
189 1 49.86555928128156 3.1270949305070745 16.023044614795733 -1 0 0
2899 1 30.890296548316947 13.865345976764159 2.439601162623154 1 0 0
3504 1 46.961326649792426 12.65972890038145 -0.034974448557745015 -1 1 0
3403 1 32.646676467370355 11.446442424945792 2.833592853846769 -1 1 1
1527 1 34.1916476633469 12.408152847131221 0.6069562946731535 0 0 2
2894 1 36.62271105823312 11.23630769353546 1.258422451139543 0 0 1
2546 1 2.4560985517229637 15.451689586810856 0.3040275398158743 0 0 0
1833 1 38.01030519685693 13.491328529283125 2.6810861568074693 0 0 0
45 1 39.59837105962252 15.976889066827752 2.0034524081895095 0 0 0
2836 1 23.48323868757355 0.4886954432806401 16.083848498595366 0 1 1
1244 1 48.6415586667125 13.532053734147729 2.2933825483373527 0 1 1
3126 1 37.981003196731336 2.2033653624636416 12.253144039025255 -1 0 0
1314 1 30.61747493135781 19.84851614819339 0.019097545374936437 1 -1 0
1274 1 12.181201836495474 15.876424649881283 2.0498073819845337 0 0 1
144 1 12.163028847014587 18.290317224991124 3.4312896434730686 1 1 0
3335 1 16.98503894757041 15.731788985851589 0.7903649889715084 1 1 1
1071 1 22.03677984104348 14.934533600405835 1.6041125578332274 0 0 0
1830 1 13.745293644799899 20.15582661193824 16.543870146767993 0 0 0
1956 1 24.701356843467014 18.173344414743994 0.9307305324850657 -1 0 1
1954 1 28.120519771484435 17.753747819734482 1.9996413562656228 0 0 1
3189 1 32.19975885751036 17.907357627018758 1.4326259161674626 0 0 0
890 1 37.002677148543654 17.530132004385994 1.990384129978513 0 0 0
4003 1 42.67949347865802 18.103527181488047 2.7208094205720332 0 0 1
399 1 45.28890137674465 17.522737416468527 2.6003388193076304 0 0 0
2595 1 0.25474274816253095 24.867828682812206 5.303813423512334 1 0 0
2062 1 48.575209156580854 16.270002195782872 0.5530068059420532 -1 0 1
2742 1 0.00205478806350691 19.236478471407963 2.290573667706934 0 0 0
4058 1 6.521206110838568 18.61135144947946 0.8605929039397031 1 1 1
373 1 8.642953935293065 20.346385200043166 1.7155201279948842 1 0 0
3620 1 12.89945633836773 19.819689030349185 1.1658810457827609 0 1 1
3826 1 16.911297874131886 18.497756841164335 1.148696924598481 0 0 1
3231 1 20.239614339223728 20.430668024985252 1.6196475423944636 0 1 0
2988 1 24.460558980706796 20.869261092286532 2.0052614462084444 0 0 0
360 1 27.348131252803665 20.289810412781502 2.9821038700179825 0 0 0
2258 1 29.706591530342102 22.776696571435565 1.1159030170331339 1 0 0
3479 1 34.618081727742904 21.40172729935992 1.7287939262809902 0 0 0
2093 1 36.99020769921931 20.127170765858413 0.9736388097506086 0 0 1
3811 1 38.167569216864166 21.681979960937316 2.7091396951936777 0 0 1
1094 1 34.76294936778727 4.205502324349541 0.4249477036212038 1 -1 0
453 1 1.0629790963184638 13.302966089844228 1.3349849937039486 0 0 0
3180 1 49.14060556750306 22.073063784348488 1.867715922039569 -1 0 0
1580 1 46.292309850163065 20.27725836039618 1.6294690349189376 0 0 0
3631 1 0.9487076805902668 24.052187198756375 1.3335748601080746 0 0 1
1795 1 2.34767320600762 21.700604036586483 0.17753757517751073 1 0 1
1211 1 34.084275728349155 0.31510491428336007 15.300897504014554 0 0 1
357 1 10.603325255317127 22.366356800162393 13.971272882131489 0 0 0
3091 1 24.212932383373204 0.15356754674557288 12.745156595563524 -1 1 1
2276 1 13.137090850941373 22.411730664327415 2.413030260080335 0 1 0
1860 1 47.14793642131434 0.3692043041226476 6.088376590409846 0 0 1
2557 1 22.191948707127644 22.211316266973913 1.0900743848132857 0 0 0
3846 1 2.2004192220845273 18.218531789449482 0.19368475568414922 1 1 1
2123 1 26.921395994693427 22.16463492752831 0.8338853158193463 0 1 -1
811 1 19.228461512689666 16.842444316361153 16.372780005586527 0 0 0
3628 1 43.784923816169936 23.741673542724527 14.681841098646702 0 0 0
2713 1 34.67968312690007 23.90225225428645 2.916767565930525 0 0 0
791 1 37.38735093747805 24.381901142659224 2.072493661889087 -1 0 1
131 1 41.942880518280575 22.617767857291714 0.5651211114450749 1 0 0
4068 1 46.03806315476716 23.654563296725847 1.8479461637438266 -1 0 1
2655 1 14.836352817617913 0.20104683035916293 6.720102839129228 0 1 -1
4145 1 49.9412058358389 -0.027140961668962488 5.583571149072283 -1 0 1
2575 1 2.671471189629898 1.5589359570070738 3.491554085281331 0 1 0
1648 1 4.986302042384721 1.8960250503998153 5.154060325143157 0 1 2
4043 1 10.909589769642901 1.1996986153947005 5.21714901629059 1 0 1
3897 1 13.465011658955117 0.7912696139487411 4.336976175371143 0 2 0
3146 1 35.04697450068731 18.560735888280117 16.258587140310354 0 1 0
672 1 8.9684324526437 7.032799417644509 2.454472560190034 0 0 0
1669 1 20.851636172234535 2.0718951775862093 4.185221309671804 -1 1 0
3081 1 19.240320042663946 1.578516405693385 6.437317909653976 0 1 0
1083 1 23.56071432238143 2.5832321890518757 4.536164355467998 1 0 0
1788 1 27.381778060380764 1.54903222261516 3.4165838166209466 0 1 1
2652 1 31.225393849701014 2.624217505894589 2.5345868007987704 0 0 0
2002 1 33.253210371201845 1.6982388200698624 5.2558116432459245 0 0 0
3104 1 37.39703796657517 2.429322894818742 6.534502097174052 0 1 0
3257 1 40.01070502420016 1.218314001626046 5.09330697624398 0 0 0
819 1 42.86680536065316 1.3490841795116733 5.2971871371119015 0 0 0
1983 1 44.62367491548774 3.5534781940259768 6.589695062085532 0 0 1
1297 1 48.757863756307245 1.5217010381716827 1.8679561081001852 -1 0 0
915 1 47.25254322623775 2.936947757607892 5.290033050516783 -1 0 1
2825 1 1.1183342773941125 5.010928570182443 5.143720455573006 1 1 1
112 1 4.868712205266442 6.400421173954719 6.327869651816168 0 0 0
1875 1 7.052225862962526 3.780874570965798 5.069911526094879 0 0 0
3005 1 14.42601022597911 4.274132880373272 6.423651294299397 1 0 1
2691 1 15.80983907033205 7.597227974994289 5.6827488650796285 0 1 0
2903 1 27.820484292243552 3.932287192381973 5.308958577928376 0 1 1
3222 1 30.169077319261895 5.667731060415852 4.744882266231105 -1 0 1
1551 1 32.49429293385009 4.3445420349682 4.32212379657751 0 0 1
1181 1 35.1915994943258 5.156447752611437 3.637214121106954 1 0 1
1654 1 36.11454042178177 6.980270297116187 5.519800844886132 -1 0 1
2029 1 39.66303314796512 4.274699958700542 4.050448806526222 1 -1 1
83 1 38.35069356541487 5.142638064191638 6.4852874470309745 0 0 0
3339 1 43.709241806547595 6.008915738883147 5.580867498456016 0 1 1
970 1 46.207037925322496 7.481166786585704 5.289730261830763 -1 1 1
237 1 0.8801544497895627 7.756878823975839 5.300529589008629 0 0 0
3401 1 6.940180094088197 6.497947898199263 4.572784858459503 0 0 0
2916 1 12.335178457513623 6.015528423241083 5.657622034880758 1 0 1
1393 1 13.150671499301104 8.117554051082472 4.4064603010025305 1 1 0
4015 1 17.438666146782722 7.068986765666372 3.543954247580685 1 0 1
4059 1 19.889398918193926 5.9435080321833444 6.510667102231868 1 1 0
3554 1 20.207444247630573 6.548148906508407 3.5799362148412777 -1 1 1
3038 1 24.578207840195365 10.36392140981842 1.4961577242737232 -1 1 0
3598 1 22.368789491091597 5.706977821788947 7.833930261473964 0 1 1
1943 1 23.532681734294982 7.604546789495872 5.734416765636697 0 0 1
3526 1 26.3601728340375 8.276393180673512 5.574355151035546 0 1 1
522 1 30.201286826020315 8.699996039067864 5.155566559811681 -1 1 -1
1347 1 36.65252037773173 10.463965774208459 7.791661786506447 0 0 0
2841 1 41.39495017132066 9.658065144079758 6.188715752654978 0 0 1
1732 1 45.40294058589454 9.655943298466084 3.7459622358265503 0 0 1
1107 1 48.890631705338436 7.712775200138821 3.5298841708681308 0 0 0
1827 1 2.6996056834154434 11.607850484964956 2.711863520274067 0 0 0
2017 1 9.15722684738663 9.396204974621645 4.295639545027164 1 1 1
2006 1 13.877928777109227 10.412233955922332 5.587365590208303 -1 0 0
2704 1 16.71493823003702 10.462678115984085 4.933524590425666 0 1 -1
3718 1 20.452961904739208 10.31569511605748 3.216713165557817 1 0 0
3861 1 21.214015189632867 9.37719301780702 5.69001058547331 0 1 1
2834 1 24.093046036454513 13.089907627441777 5.184242530335853 0 0 1
1321 1 26.756616448966067 9.86543212153254 3.2636692889100565 0 0 0
3150 1 31.387764612227734 8.941404302170575 2.7851895702626575 0 0 0
1850 1 34.116799422241584 11.056897935055838 5.064195388450197 0 0 1
2949 1 37.24985860490128 13.292050579683922 5.110613239745993 0 1 1
2961 1 43.44132865480577 11.08147862089081 5.183597233654424 0 0 1
2462 1 47.44235696995149 11.502752900721996 3.9741975426712433 0 0 0
3758 1 1.4684888651976378 15.211964378011155 5.74836931929941 1 0 1
2432 1 2.5721314716037287 12.770797098825192 5.350247499188032 1 0 -1
1584 1 5.548040065322803 14.421147804565836 3.95485650055151 0 0 1
85 1 8.24881663000852 14.637046687822394 4.204529795098515 0 -1 0
1241 1 9.786680173823806 12.012486861664705 3.8373186519046936 0 0 1
2838 1 12.303087487549089 12.59669851564133 4.828280496799367 0 0 0
1872 1 18.684442201550862 13.923051407225023 4.7448724071642046 -1 0 1
527 1 17.978385338339766 12.076301479519126 6.696374632352189 0 0 0
2140 1 21.571102755779606 13.862587398334533 4.146182328227092 0 0 0
3521 1 26.575567692340112 14.09290280111035 3.5185414860707684 0 1 1
1453 1 28.94237939311978 13.739568082678028 4.503177109713283 0 0 1
1910 1 33.232867016453355 14.97965342927385 4.143260986699797 -1 0 0
4041 1 32.56897217367593 15.825349868665077 6.8716145433514155 0 1 0
1307 1 34.86724281936725 13.479571096309975 6.081296667284524 1 0 1
3310 1 39.37930874378324 13.656422693282277 6.8881388465095865 0 0 0
815 1 42.05800348141551 13.270556485255472 4.008693953809464 -1 0 0
3442 1 41.77727745160797 15.030292471183369 6.1086801629871355 0 0 1
4148 1 44.36384294582439 14.794247340419085 6.8903069694369865 1 1 0
3682 1 48.66683190001734 15.243723864474163 4.608547141319698 0 0 0
319 1 0.5316947699400159 16.267334087615357 2.985479877913421 1 0 0
1225 1 3.5508141776762416 16.44868240769228 3.5969725415744263 0 0 1
1442 1 5.272517713320403 18.481999159684097 3.2965723122570063 1 0 1
3912 1 8.952135822144175 17.064231423250767 5.647832016083673 1 0 1
3460 1 6.384847609202282 17.563598733296235 6.275977307326418 0 1 0
537 1 14.365601706846771 18.68907244010959 5.173953620765999 0 -1 0
3961 1 15.943778511352289 16.275221353363285 5.622011460829846 1 0 1
2548 1 19.544768214813562 19.69375485611887 4.361334512842264 1 0 1
851 1 24.410877610259245 17.05938471614888 5.764596758194974 0 0 1
419 1 25.93391048878309 16.702215118976966 3.169300421884539 0 0 0
469 1 30.344281028263037 17.182841615608435 5.912044467170127 0 0 0
3453 1 30.28811040967743 16.590179181029225 3.2570817117092052 -1 2 0
974 1 31.578796872126492 19.63552863785742 6.237332697066427 0 0 0
845 1 35.137833136619136 17.23991251023268 4.13428430584379 -1 0 0
2116 1 40.39841517597678 17.072328767636666 4.604412086966247 1 0 0
2049 1 45.9735391499858 16.242053730270527 5.02652838616329 0 0 1
2620 1 0.9956940626115502 20.432636870080962 5.135273759674433 0 1 0
1886 1 2.9299017492286423 20.146331839835117 2.716114912094692 1 1 1
3530 1 3.552787172411463 22.109872003922394 4.901117894645411 1 0 2
3393 1 6.966807204852835 20.408541990461085 4.827031583767201 1 0 0
708 1 9.955546293760273 19.426127584209656 4.344750270013334 0 -1 0
1893 1 10.530030963414845 20.27378653668294 6.959059721674887 0 0 0
1062 1 14.61038803896628 23.42536249224665 6.053870633149357 1 0 0
3174 1 16.729453291772785 19.68720663948371 3.587328749812446 0 0 0
3113 1 21.93936313713135 17.97557416548603 1.881022342298982 0 0 0
3347 1 19.774805170249536 22.061110856634276 5.685910966416342 1 0 0
607 1 22.040727126314927 17.87543669797029 4.920466825925513 0 1 0
632 1 24.577449413288665 21.80879034815226 4.781288148571203 -2 -1 0
2616 1 27.00468859629495 21.422131366465766 5.423551460111295 0 1 0
33 1 30.057171136929963 20.545140866284875 2.9528176109088395 -1 0 0
3267 1 33.45617137818904 19.513472171372076 3.697211963465078 0 1 1
2654 1 34.77481266059807 21.15754488637159 5.548152211032152 0 -1 0
4081 1 37.50424975524584 21.081943947419877 5.3820166194966195 0 0 1
435 1 38.84145784598407 18.79185578473612 6.066213329470556 0 0 0
3767 1 41.844795328592284 19.957425443173403 5.127519805903061 -1 0 0
3364 1 44.68398606577507 20.485754634556137 4.045954482825599 -1 0 0
3313 1 48.938071483468136 18.398965078388176 5.054239370159791 -2 0 0
3523 1 46.416024866249984 19.010859330798493 5.974889418687344 0 0 1
3237 1 2.513265967468952 24.320572878136154 3.8592152155600803 0 0 0
1494 1 6.066989443217408 22.860893080119716 3.8354736885935274 1 0 1
116 1 7.303882040769435 22.799833334493705 1.3972232850570108 0 0 0
3249 1 9.34892012762612 24.2344535052785 4.065354749480119 0 1 1
3040 1 12.053831884380216 24.037608911764067 4.341498299210854 0 1 1
2229 1 15.633644472076277 22.1995043667775 3.5022657780102953 0 0 0
1913 1 19.737066876062894 24.15396027550415 3.7586237581973627 1 0 0
3060 1 21.785384215516448 24.966509476729694 13.719564192644278 0 0 0
749 1 22.48082037106903 23.025423976357324 6.342072887220108 0 -1 0
1157 1 34.8174777482085 8.781573523431105 1.1640067571478803 -1 -1 0
3246 1 27.76894030790239 0.02216639627279389 10.737878962625068 0 1 0
3748 1 8.396700846280428 3.0790103856565416 0.9759513675065938 0 0 0
1656 1 29.09823054925698 23.06532867591173 7.2072762346669155 0 0 0
3219 1 30.75154003143785 22.344925559256172 5.181154108215642 -1 1 0
2493 1 33.096469266180165 23.70876812590856 5.46781096737545 -1 0 0
1556 1 40.896432776695804 21.516218964476508 2.726666517840668 0 0 1
4153 1 42.03342712861547 23.1833242046828 4.7967027733568806 0 0 1
999 1 46.77152833027118 21.998673455673337 5.844547857907672 0 1 1
2417 1 44.81536284430902 23.660327817885584 4.275038090862541 0 1 0
2520 1 49.18318830219168 22.40683222263882 4.511846587218736 0 1 1
1457 1 12.154301107586527 24.064592358499223 15.710297840788046 0 -1 1
3864 1 24.570209442625803 24.59057600275922 4.325680349656253 0 0 0
3739 1 3.138866069831507 2.1793720838287536 9.08247370356188 1 0 0
982 1 6.930815991960225 0.942288066524616 9.144809016708752 1 0 0
2810 1 42.30878951044161 15.299200421231575 1.9552592696173372 0 0 0
2765 1 11.033048160579002 1.779207446524156 7.797821809525322 0 0 0
2648 1 13.594159838554557 2.4408325500012693 8.255957033443417 0 1 0
3581 1 11.081984462174624 2.7387173996213314 0.05429962394431559 -1 1 1
414 1 48.486726839546705 19.135278685630002 0.04275990963213608 0 0 0
162 1 29.908592668509954 1.604843095490546 8.113357035836742 0 0 0
896 1 34.1491155829532 1.600992290753735 10.214420533913485 0 1 0
1524 1 39.31193133700506 1.087583307828049 8.200411459311102 0 2 1
2904 1 11.235217602989152 24.718045579064018 8.131882449428439 1 1 0
2833 1 43.16147804534451 3.0741537365714917 10.194364846630313 0 1 1
2133 1 47.54374237308285 2.128569570226164 9.991934544721467 0 1 0
3777 1 45.60441762794912 3.7892864993708884 9.332274305915448 0 1 1
592 1 -0.08121758297251347 3.222806086936562 9.291859010478323 0 0 0
750 1 3.392810645802654 4.271358791960811 6.551009552947259 2 0 1
3695 1 2.389264971283723 5.167187346276595 9.338542048227204 1 0 1
130 1 6.372675887459227 6.696598020809006 8.739263186129126 0 0 0
1649 1 5.341597044264682 3.9804368891624913 9.929406614992786 1 0 1
3932 1 7.251642483050188 3.4071854564632957 8.032352788605952 1 1 0
2863 1 6.649519114115391 5.630199215631278 11.919194800208158 0 1 0
2869 1 9.934577933019131 4.074453957965158 8.732433029281186 1 0 0
3610 1 16.221750265790053 6.170872535972953 8.141501985930242 0 1 1
1771 1 18.193672165402514 3.9827747512566676 7.6397194134525 0 -1 1
3893 1 22.017408480802732 7.339438727259781 9.82248793274506 0 1 0
2984 1 23.433646036724653 3.501545889854507 7.120211016795234 0 1 0
4121 1 26.250814875724767 3.37051687147392 7.611714187654349 0 1 0
2494 1 29.84875944418503 4.2544807362281984 7.494543748762623 1 0 0
3323 1 34.55778142382793 2.9017397076472617 7.603809890458449 0 0 0
2647 1 38.83598211550152 3.323437641968779 9.73048241656137 0 0 0
3518 1 40.23845084792143 5.831155762554233 8.68350193191743 -1 0 1
3016 1 46.20106494310309 6.882893328442622 9.75209104565837 0 1 0
3291 1 49.03361133669354 4.408166862662168 6.789377834571288 0 1 0
3714 1 47.96181741311993 7.0166537491969 7.5424243933987425 1 0 1
714 1 2.7592995773292266 8.080342533939698 7.4611815320230574 1 0 0
3481 1 2.5246565306425595 8.033217641105722 10.442344130797624 1 1 0
3512 1 8.227732328007448 8.219002675499372 6.581963803827016 1 1 1
3090 1 10.29027056965699 6.798749486002034 7.531027870576537 0 1 0
3989 1 13.055118109668804 7.072427706292948 9.000342810244803 1 0 0
2183 1 17.938304916586862 6.975575826433454 11.744134913763528 0 1 0
2234 1 17.475147255111935 8.552796895985024 9.398014477157048 0 1 0
354 1 25.184417658798917 7.076821872132312 8.30861092689254 0 0 0
4020 1 33.82495387211452 7.132897463739491 6.899381474620206 0 0 1
1257 1 32.2465067168562 9.254198564118562 6.711464841274402 -1 0 0
1404 1 35.5498713116412 8.085477268742888 8.70292870764693 1 0 1
4171 1 38.16303333810137 7.274644581538378 9.971310664677869 0 0 1
3432 1 42.05888813085383 7.400661003408226 7.477630779727781 0 0 0
1502 1 44.01732058574039 8.348948737269732 9.517675740088125 0 0 0
657 1 49.56461573912624 9.270077214834483 7.355952988608115 0 0 0
3663 1 2.097613795280385 10.937183683157121 7.465367409218399 1 1 1
236 1 4.584846287412635 11.414375893384307 8.948707354605169 1 0 1
1609 1 7.736109104557245 10.55946376201684 8.550177612418679 0 0 1
1597 1 13.871027819485906 9.775458392170156 8.372148393355644 0 -1 1
1003 1 15.820923875231895 10.448976260578977 10.335009336166797 0 0 0
3480 1 18.785775636155464 8.826047620506063 6.83307097289504 1 1 0
49 1 20.993271879357238 11.246208305460078 7.803121269983593 0 0 0
936 1 24.41722912912963 10.731959384718786 6.475709993748302 0 -1 0
2828 1 27.028708036678108 11.036060983539778 7.246158802067862 1 0 1
2264 1 28.529227443877136 11.102689866445456 5.057011148637504 0 1 1
832 1 34.96307299925144 12.477398954137849 9.14662258708052 0 0 0
2430 1 36.747429178194096 12.390881243069128 11.18542041273744 -1 0 -1
3330 1 38.2994119864733 10.01352080823437 10.230583334940555 -1 0 0
2354 1 39.76613451703929 11.121276214060433 7.925485821644063 0 0 0
526 1 41.557533068077035 11.684318791889792 10.33918591958798 0 0 0
2605 1 45.18580963585664 12.067970496022303 7.1785289927315405 0 0 0
1438 1 0.501291809051253 12.284796591177313 9.324199688087639 0 0 0
2445 1 48.13396160146192 11.60108930185231 6.65643453798857 -1 0 0
3360 1 1.7893658377812707 14.322503318720774 10.79728316451042 0 1 1
1289 1 4.924583361230407 13.382537339980932 6.575248129836234 0 0 1
4 1 7.616077573211798 11.92393623064419 5.931491253955231 0 0 -1
3810 1 7.849486644834668 13.94015438174399 8.291465327730135 0 0 1
2335 1 12.112431807599691 11.519978930891968 9.48063806781493 0 1 0
3572 1 12.055711180666954 13.769689466630094 7.296424123754152 0 0 1
3359 1 14.829214734852945 14.499654745139082 7.443267112108458 -1 1 0
63 1 16.58986162125646 12.662712647391842 8.813913173481074 0 0 0
3818 1 18.679508484131613 14.004940585666697 10.02270519723894 0 0 0
556 1 18.259418734964477 17.965435330967022 6.299953149582896 0 0 0
3254 1 20.31168016840994 15.949528946263975 6.149112639403432 0 1 0
3149 1 23.94766206580169 14.78269238880031 7.250481210380086 1 0 0
3805 1 25.970747650464702 14.257367358741035 9.693535044271076 0 0 0
4174 1 28.078004902059945 13.959458040956264 7.471755530778128 0 1 0
334 1 30.8794311659599 14.117467161223162 8.316807576012344 1 0 0
2786 1 35.445967560149455 15.419807698046661 8.211372092625325 0 0 0
3023 1 38.28111067750824 15.469111598299035 8.8051402940786 0 1 0
1389 1 41.06740591714389 14.267331683848798 11.231991005229066 0 -1 1
2672 1 46.81711587093994 14.047847658433014 11.37061667065759 0 0 0
2999 1 49.39959944343819 13.76678205243073 7.297631141251665 0 1 0
2225 1 1.7553200001365679 16.18185777586912 8.391201143063077 1 1 0
3908 1 49.95827980504323 18.273890352185035 7.736717130264213 -1 0 1
3776 1 4.4968031198963665 15.65029925172245 7.70769971368938 1 0 0
4109 1 5.881607180578323 15.48469875564732 9.996480588710526 0 0 1
2113 1 9.983558510591086 15.482183243504124 7.890893541973004 0 0 0
4116 1 14.897573526703816 19.939589858637948 7.966934202126717 0 0 1
3066 1 17.322296152721634 16.59711832690356 10.637230073655543 0 1 0
1849 1 17.421293739265433 18.74292066055087 8.786044608981442 1 0 1
554 1 22.635490106680134 17.025814860953993 8.649543721894705 0 0 0
3488 1 26.644369567567203 18.956319201353132 7.159515629081765 0 1 0
111 1 28.48713088031801 16.752204826862513 8.04743661489366 -1 0 0
2447 1 31.07079827682782 19.312823180160745 9.142676782386147 -1 0 0
912 1 34.278992127758926 19.140201896493345 7.882574874865222 0 -1 1
3590 1 33.48146244165021 17.070685363781443 9.711753657181987 -1 1 0
1690 1 36.38934618186731 17.3730749449197 6.581806928214904 0 -1 0
1532 1 39.55685726186253 17.87947427417251 8.540637782147158 -1 0 1
73 1 41.76910286703759 16.074134739412766 8.950871758442732 0 0 0
2426 1 44.241740852010224 16.628558399979806 9.593787292755957 0 1 0
4172 1 48.01168800902339 17.9837863886255 9.353847591198988 0 0 1
3993 1 46.9715504799086 15.276665420612838 9.077833053056406 0 1 1
1950 1 1.3627425399572695 20.554250791330862 8.063895094318895 1 0 0
4164 1 6.7069558911897795 20.737246099472767 7.765902478600007 0 0 1
1350 1 8.27425820951126 21.544226024551918 10.1034287055216 0 -1 0
1121 1 10.7826091851882 18.01108926074538 8.849697823853376 0 0 0
3781 1 12.963753025283323 22.081809481527333 10.663860892776876 0 0 2
1890 1 17.164718392162705 21.94882467369599 7.333468141986693 1 0 0
3957 1 20.521322839677744 18.72627045736923 8.37939504003286 0 0 1
3131 1 23.175692063623313 19.839309879853243 7.08017478392816 1 0 0
1987 1 28.615871036090894 20.659793164646516 8.511389262153514 1 0 0
4139 1 32.525323602778755 21.101641762346134 11.146834931767183 0 0 0
1100 1 34.40039538426774 21.440677737058085 9.350302186279704 0 -1 0
2250 1 42.52628184413912 18.987730262742563 7.819080546786558 0 0 0
107 1 45.385342986314384 19.16890796743395 8.690236194994663 0 -1 1
2300 1 46.973003402834095 20.243228879322437 11.357100739780295 0 0 0
1909 1 3.9037650670737487 21.896161918016226 7.411733310201119 1 0 0
662 1 3.897773718538213 24.236903439910307 8.76380260119644 0 0 0
783 1 8.539092307924257 22.69074598501925 6.30838959077952 0 0 1
2972 1 22.43687612216831 24.460928003282767 2.3660828353867855 0 0 0
1816 1 33.02749949640241 20.627963781233035 16.52806409573949 -1 0 1
359 1 12.783355773212381 22.32479821033007 7.614615346901277 1 -1 1
2969 1 19.02962993282011 24.000812256526235 8.468014935282657 1 0 0
3096 1 18.58176716047866 24.323379124072947 11.362877231681262 1 0 0
2573 1 25.14988331907432 22.370090353783475 8.205929270879775 0 0 1
4173 1 16.385207706196816 20.865209722730395 16.30863521057146 0 0 0
2366 1 30.7124164909695 24.486812939584713 9.022967423500784 0 0 0
594 1 33.24816674291171 23.691478118106126 8.155738114805493 0 -1 0
1206 1 43.515570006375455 9.122596278523881 16.464156747117876 -1 0 0
1841 1 37.95008541636322 23.358505991266068 6.907084200640767 -1 -1 1
473 1 4.888928675763687 23.02745841098884 14.68356002648833 0 0 0
1362 1 40.71934897251421 23.242885443568365 7.244530866900234 -1 0 0
1703 1 46.395834958917604 23.023193904355875 8.58517670587643 0 -1 1
1695 1 49.60665073858574 22.476229899988965 8.895683140167169 -1 0 0
2752 1 0.6360921221862209 2.4042023414905747 12.287240297343242 1 1 0
2827 1 33.401568530614185 15.227567852431934 1.0321580000604573 0 1 1
2427 1 4.962649398939518 2.2776050069839022 12.168024306466473 0 0 0
2072 1 36.75574945784547 4.684912065021172 14.990737210076604 0 0 1
3664 1 14.072767907496381 1.4379721043885847 11.114567998106963 0 0 1
1353 1 11.812373111550418 2.16655027934815 12.251171821826139 1 0 0
1323 1 19.689891648447084 1.411490718978531 11.53960174514026 0 0 0
2543 1 22.674786356827866 1.231837626804446 8.51227130142325 1 1 0
3754 1 22.3594093224541 1.6859091373635953 11.134968764163894 0 0 0
3837 1 27.157820423243574 0.8049362829027801 7.923061950713766 0 1 0
2038 1 26.50010974835141 1.4347413392638266 13.77339417816592 0 0 0
4144 1 27.517173400166083 2.711335543693503 11.527961880147776 0 1 1
4101 1 32.590339433155364 4.8665886139341 7.488392484396463 0 1 0
1126 1 35.44095887266589 0.8426391168254038 12.57764981842118 -1 1 1
3354 1 39.83947963756448 4.631957502594938 13.77894520826758 -1 0 0
1180 1 44.3068319669554 1.8313374894910879 12.703592405017455 1 0 0
520 1 7.667666642337112 24.15261223093224 12.985403059064266 0 0 -1