LAMMPS data file via write_data, version 29 Oct 2020, timestep = 800000

4175 atoms
1 atom types

-0.6404481807190123 50.6404481807153 xlo xhi
-0.6404481807190123 50.6404481807153 ylo yhi
-0.6404481807190123 50.6404481807153 zlo zhi

Masses

1 18.015

Atoms # atomic

3930 1 9.83055262817625 13.701936162693526 -0.41078623234219114 0 0 1
2731 1 4.677789703831188 1.0850475650674745 2.3712925830617726 1 1 0
2721 1 41.49998921315116 24.510987910249202 14.863700768742687 0 0 0
190 1 6.778237706827674 1.660224172678252 0.8682397310358716 1 0 0
1912 1 32.849908351128875 11.797258554793432 -0.5519075333821865 0 0 1
1405 1 13.764350533686097 0.5882665586026554 2.0543326481200204 0 0 1
487 1 32.001009436997045 2.5201318033993227 -0.15828595693973374 0 0 0
805 1 18.834492765272824 1.3073807771811927 0.053564169976520914 0 0 1
75 1 26.670867561307848 0.8312524795880989 3.071598040704972 0 0 0
3909 1 31.101153410368035 -0.074140989013601 3.595872927561845 0 1 1
3668 1 35.55800781711931 0.6792549818405127 2.6853681363438295 0 1 1
420 1 36.51991991051625 1.305820653130563 0.35256729159455436 0 0 0
1513 1 39.220719088279786 2.155766218711271 1.0731982865463503 0 0 1
3671 1 9.533547449186123 -0.15242562375800028 7.338257527092673 0 1 1
597 1 44.357391608351406 2.1473218495049524 1.5063786685148415 0 0 0
3541 1 42.98978097436003 0.19399851410207525 2.6143040982417425 0 1 1
2285 1 47.53100412329482 -0.20402993958114624 1.8872297946813616 -1 1 0
564 1 49.85423550388036 1.2621389105602414 1.1450146706929676 -1 0 0
1969 1 0.4854363800761097 0.4404302276477734 -0.3136149851549127 0 0 1
1994 1 3.5770684039630405 4.894861324541825 0.7947263976926746 1 0 1
1591 1 5.951204854064011 4.129838017629318 -0.1419617750197671 0 0 1
2345 1 9.371158048248324 4.739193273620292 2.115588223558315 0 1 0
134 1 11.17609089350974 4.285341516384055 0.10816542441823995 0 0 0
2578 1 13.181505751635244 3.521597940548469 2.0616320712317253 0 1 0
336 1 15.782283748982454 4.148984978941072 1.0540759448922437 0 0 0
1032 1 35.557843971582216 22.55948130401754 16.43878337202544 0 0 0
155 1 20.88672054185699 2.973095671600183 0.4709588376589855 0 0 0
97 1 21.951829287066463 3.0586071088550466 2.7354627816004156 0 0 0
501 1 24.29901243064291 4.34930272557102 2.2271075330471657 0 0 0
434 1 26.852474772586685 2.9601965784334503 1.1753720820803488 0 0 0
1331 1 31.44129181365745 2.36511562216875 2.50952231924984 0 0 1
1549 1 35.037983860866724 5.2950394714420295 1.714087466094674 0 0 1
1271 1 29.574280041441398 -0.3381787294215428 8.044094624960765 0 0 0
1766 1 42.545064252435424 4.15683546900835 1.0883571687933289 0 0 1
81 1 50.00288113416792 24.731374815785074 12.800802315131559 -1 0 0
2062 1 47.8367002165005 5.045744992678226 1.9935436549633305 0 0 1
1561 1 -0.24662582700094454 7.458716308267089 1.0430227414643267 1 0 1
494 1 3.0660932538717733 7.773435887131532 1.1478439009772035 0 0 0
32 1 5.659650086698454 8.222667176967352 2.5607972514353157 0 0 0
2005 1 7.285734511706879 6.3523053195800046 1.320811413607268 0 0 1
2353 1 8.858441540714525 8.00997153339854 0.1282987586018236 0 1 0
61 1 12.915063444395125 8.114341147359587 0.7299282555293858 0 0 0
682 1 16.66066196646149 8.348203898571287 1.8402226302309765 0 0 0
2421 1 1.0218436466862555 -0.1237087348121394 4.0817851618561125 1 1 0
1811 1 18.024070249083085 5.860069472581141 1.6264936613239178 0 0 1
1945 1 21.395340206454314 7.420510592995166 0.05490123150989856 0 0 1
2112 1 23.815496833458983 6.510135144285935 0.40157609180681075 0 0 0
2041 1 24.813542688394524 8.739766647092521 1.7038650097289816 0 0 1
587 1 28.430793087558612 5.436656792307323 1.7639300003712775 0 0 0
1710 1 27.674871340635637 8.187917049700502 1.439645898651401 0 0 1
3750 1 30.49273503425899 5.832350678208495 0.12177671421640279 0 1 1
305 1 32.47710029015686 6.570335386458639 1.888732406198705 0 0 0
76 1 33.545016628705774 9.29083946072385 2.3742636129266614 0 0 0
600 1 23.24449792029814 -0.5289864007691641 -0.2751423515978809 0 0 0
51 1 40.03977542923158 7.4835722003781555 1.69438106061662 0 0 0
1939 1 49.113231315072284 3.5537156364444265 -0.11135225755017786 0 0 1
2898 1 25.996499930305347 7.3506587206181075 15.845140298199695 0 1 0
462 1 45.99377730904743 7.181417613574723 1.5849652721402103 0 0 0
1746 1 49.28923975659928 9.358180276332213 0.31419834956164094 -1 0 1
409 1 2.0580301558589977 11.624771948794042 2.24707679859976 0 0 0
458 1 3.7233341337010533 11.559536356460672 -0.40715479971083013 0 0 0
972 1 44.86695686991568 -0.1597691565527044 16.004086326140612 0 0 0
136 1 6.496109564634385 10.642640590832277 2.4465603312789037 0 0 0
289 1 6.568932663322015 11.205366183374883 -0.11314009008107428 0 0 0
439 1 9.007271310795664 9.713435564668213 2.4875398186660367 0 0 0
365 1 13.478275827639338 10.54012398835772 -0.2460314916368464 0 0 0
2632 1 12.953718225570265 11.876645643430127 1.876178845806559 0 0 0
2068 1 16.41601990033317 10.721687970725409 -0.015852736330596806 0 0 1
2021 1 22.179957659085236 12.06232975761962 2.087111448649491 0 0 1
654 1 21.513189709989504 9.253965128270066 2.1441611986635136 0 0 0
1419 1 25.092603668426907 11.669630901983865 1.2935722958957747 0 0 1
66 1 29.408731851056363 10.296191640982816 2.3417914210784003 0 0 0
242 1 31.395723824400662 9.839170973091656 0.7682164987122457 0 0 0
253 1 36.27656453526644 9.39848648968934 1.837547461032036 0 0 0
2017 1 39.38121383052516 10.236025173360929 0.7007570699627215 0 0 1
2067 1 43.10545455543842 10.671399444864413 0.969179326049358 0 0 1
1931 1 48.896253258785094 11.228409201803263 2.356835106718888 0 0 1
477 1 -0.3085461075587869 12.856867060922841 1.4239211304594415 0 0 0
2470 1 6.947206647932155 24.63303653467098 3.0521465681212763 0 0 0
482 1 40.75552642359932 0.08787560980933884 1.0326414797287933 0 0 0
238 1 10.345059350885728 12.323170767339521 2.1561110156238232 0 0 0
112 1 14.496401776044712 13.991331457483954 1.750869587590881 0 0 0
338 1 17.040561875850536 13.17097244785844 1.6070332784994141 0 0 0
2361 1 18.99203540388897 14.80305003562149 0.3955331164900453 0 0 0
1950 1 20.816693460298424 12.796445943573392 -0.15719690302656192 0 0 1
1602 1 26.383340268743897 13.693397501680753 2.7421992929892154 0 0 1
350 1 25.724063573653567 14.989157588666355 0.3091557991813816 0 0 0
691 1 29.750082370711095 14.928423919278723 0.8123932764119515 0 0 0
625 1 34.536437194963554 12.549171526337874 1.8105903727823338 0 0 0
419 1 34.29032813835441 14.961039588419588 0.5905782068172609 0 0 0
275 1 37.19829679348973 12.098677424406631 1.4485012170853273 0 0 0
647 1 21.142429220771856 24.640127711737872 5.405722042645094 0 0 0
162 1 41.21846493279528 12.8008191716648 0.9392738471462987 0 0 0
1423 1 43.133615050474766 14.287348286752222 2.190458330236155 0 0 1
701 1 45.668164995382256 14.240498134714622 2.093357477405143 -1 0 0
1705 1 50.471095225423994 15.528428286315926 2.6661221449355246 0 0 1
520 1 -0.45232818935052016 18.04530448154293 1.4071702692068824 0 0 0
1797 1 3.5267672503282403 16.747204229298482 1.563648223431259 1 0 1
2260 1 6.254848770877084 15.863297725440077 1.6976854406635962 0 0 0
2462 1 7.625953017079324 18.10934085737248 0.8276917049113066 0 0 0
78 1 10.693677217216994 17.650170655501586 0.9315899386727804 0 0 0
1567 1 22.08370079425606 19.652772544279006 0.7954556008804783 0 0 1
247 1 23.77655985910345 16.240034719324143 1.8797089445836486 0 0 0
271 1 28.089920448796423 16.63798035777244 -0.15572173816110807 0 0 0
1425 1 32.0417799221893 16.22102379334288 1.5302589265563955 0 0 1
1435 1 36.09707952288806 17.194665888952787 1.9109740165793858 0 0 1
2565 1 39.855096268457956 17.14415173222254 0.2999501492896596 0 0 0
2394 1 42.44812575016105 16.350065123312493 0.36450133051358824 0 1 0
443 1 48.2099053712866 18.509424997636096 2.566592614695969 0 0 0
2054 1 1.3960509657660438 20.28034609350742 2.075022169400901 0 0 1
1935 1 1.1772019201301418 22.372578250862066 0.44035486782115485 0 0 1
209 1 4.002627065123418 19.319289653604635 1.2544762771231814 0 0 0
1414 1 13.713166859244925 -0.30543478167336713 -0.3487372867875782 0 0 1
128 1 24.084378644907318 24.49405348140779 5.423265040124964 0 0 0
2186 1 11.573600266507395 20.44165058246567 0.9457825718153385 0 0 0
2633 1 15.456572072620599 19.697620474677834 0.22367191800351915 0 0 0
2432 1 18.316327052567985 20.180495043203106 0.20050552572358016 0 0 0
230 1 19.625006755877454 19.117574849425733 2.1991562417511483 0 0 0
2000 1 24.580242987526663 21.443246143544886 0.8240573843890671 0 0 1
424 1 24.93289676550146 18.850858611747462 2.0187714486271533 0 0 0
1934 1 27.763776407781084 18.66791082021503 2.155318583470779 0 0 1
1851 1 46.28813652079647 13.380567704990666 -0.4717725727853719 0 0 1
646 1 30.895776627015316 21.15398551084131 0.6761198302766993 0 0 0
183 1 32.536743155204086 18.84376059932061 -0.05607705473898894 0 0 0
3626 1 35.21266981458924 19.313642919873303 0.409791462896425 -1 0 1
174 1 36.70429496588845 21.131372568731333 2.298144662425777 0 0 0
3841 1 40.18889180041802 19.844359309921675 -0.11723535782897021 0 0 1
283 1 39.33654210717414 21.013036282302796 2.328346969389516 0 0 0
377 1 43.925187425995055 18.571471182066002 1.3861975525767747 -1 0 0
139 1 46.535756931049924 19.392022610750185 0.4521102191542301 -1 0 0
2559 1 50.28057134028685 23.842287617381647 0.4077833548733172 -1 0 0
1553 1 2.9658036112784947 24.1115222945631 1.380682833042152 1 0 1
323 1 5.436277301115852 23.107842398124216 1.4532147926536458 0 0 0
1680 1 9.542250584069539 22.17268701490192 1.2965146359190958 0 0 1
2342 1 16.232857818190208 23.217833826946762 2.6079340657409844 0 0 0
2709 1 14.189772800116819 23.891570285200316 0.2179941586480859 0 0 0
2193 1 18.77969561771345 22.755200855942103 1.1053347238944453 0 0 0
2571 1 23.160344816919633 23.545846158844746 2.3668268269796604 0 0 0
1972 1 14.753179041648993 6.4708064165940975 -0.06209919697384303 0 0 1
46 1 48.08968189808889 23.009510003700377 13.78235567662532 0 0 0
1886 1 32.90332458519823 22.609605070581992 1.7930254573186062 0 0 1
438 1 35.591730703895365 23.443515065193203 1.3104504538059472 0 0 0
1573 1 41.013503147152775 23.66796279872247 -0.06473309856029308 0 0 1
602 1 40.308505843364834 23.582213894182804 2.610500405452979 -1 0 0
4172 1 44.85201841830443 24.02331893238776 2.554377369966183 0 0 1
463 1 37.86269422486139 14.207428964906747 16.024359110442614 0 0 0
1836 1 46.83024870115503 22.28192919489983 0.6998526203509647 0 0 1
175 1 49.554064714414686 24.474835850612333 3.273660731578596 0 0 0
1850 1 0.6591622629737228 2.4004514147200027 2.900817272264351 0 0 1
2268 1 42.27968702979107 8.269142213987449 0.030854397272358502 0 1 0
39 1 8.254504973161678 1.773251092737512 5.724133520220043 0 0 0
204 1 35.263638090022994 24.783627168054554 8.0443713126893 0 0 0
591 1 8.621736032761076 2.158284624798079 2.812997061972629 0 0 0
465 1 10.893306190817654 0.23675343438209473 2.788214310332058 0 0 0
771 1 43.51012155576172 22.8719311058545 15.155447952331269 0 0 0
2955 1 16.176484392624527 0.5163873776053678 3.7199074767814535 0 1 1
3650 1 22.039603537282744 0.30239971640221797 3.663864131881157 0 1 1
3588 1 26.49729944449019 1.974652045521799 5.4685137868599725 0 1 1
58 1 30.491675492214714 1.200594122130758 5.97891220206394 0 0 0
621 1 34.13638472092209 2.8579236061319078 3.4546388037524114 0 0 0
2366 1 33.497770536705026 1.3062503061593624 5.7937791482099215 0 1 0
1538 1 39.354763748892054 22.948138562732915 14.130114225641423 0 0 1
3760 1 39.3570836364509 1.245951876414765 5.194046390519442 0 1 1
360 1 41.9625121950188 0.8940265420392408 5.151243308210036 0 0 0
379 1 46.90293431239415 0.9318042525086256 4.375602265090286 -1 0 0
156 1 49.55920880295249 -0.07042093732174493 4.749998462275985 0 0 0
594 1 -0.04332150300954196 4.009939885079329 5.173264258879889 1 0 0
1410 1 3.4404267828820103 3.473684998163945 3.0606563935255617 0 0 1
407 1 4.818047407835281 4.789668267472553 5.126898216716771 0 0 0
48 1 12.433770865585128 2.587895034069129 7.500117782574005 0 0 0
2807 1 14.807814538741358 4.1055164487895635 5.358759947434326 0 1 0
2716 1 16.70898572390168 3.3094360863635957 3.7037637446630765 0 1 0
11 1 18.80366782335848 5.305985053755742 4.37823807530158 0 0 0
1426 1 21.47609290129383 5.066975133364636 4.708365423219102 0 0 1
2529 1 24.766102590536114 4.326268940135208 5.102159009145399 0 0 0
2793 1 29.9063224052537 4.470227810055323 3.8273884503975246 0 1 0
126 1 28.915767747632326 3.2888567207537367 6.006134839500062 0 0 0
582 1 35.270635894522826 4.183263944663689 5.8745546319454 0 0 0
1240 1 36.78914453182782 5.372645498699331 3.911073281692932 0 0 0
393 1 41.11636864595061 5.550961411520506 3.227843095865711 0 0 0
232 1 39.06378089615637 3.709928508802191 3.5607022634537833 0 0 0
2040 1 45.982901147498936 3.404514848414186 3.1957220781117064 0 0 1
2133 1 45.3093467793134 3.402030824549553 5.809501255795989 0 1 0
3643 1 5.164461051064141 7.481807483232231 5.333017997734935 0 0 1
1667 1 10.71265414058607 6.063239343417048 4.554116065477641 0 0 1
627 1 9.480080452296171 8.503927792235988 5.092376141358839 0 0 0
135 1 13.350944628396977 5.7534227613045354 3.8404953692754242 0 0 0
1961 1 14.286516860423443 8.142743275157528 3.310968056154537 0 0 1
976 1 16.269622692616945 8.423315790847766 5.748967442895386 0 0 0
3 1 18.741972685629598 7.847740117841434 5.114410696928702 0 0 0
489 1 22.13900271129541 7.805771323258599 4.573267471960404 0 0 0
67 1 24.69613651027146 8.886745693042371 4.433232296449879 0 0 0
521 1 26.102687001073683 6.794964494324991 5.561175486817634 0 0 0
663 1 28.820341386053986 7.476354166890838 6.294527795554642 0 0 0
798 1 31.241130960513193 6.898672181390079 4.300250673082557 0 0 1
3898 1 33.257298677760694 6.165881548956856 6.022909150988549 0 1 1
1674 1 37.90300224430997 7.98717894868663 3.604941394699475 0 0 1
2365 1 42.543993558100986 7.0436411986817395 5.252501341757638 0 1 0
1764 1 44.860702850809716 7.882287708794047 4.1901246431527355 0 0 1
256 1 49.89212961783871 6.020553896408406 3.578333955300125 0 0 0
502 1 48.66821799296879 7.229308035781897 5.968055423980242 -1 0 0
194 1 1.3133640366870152 9.198650388693691 3.057972328169698 0 0 0
2502 1 2.732029187812688 9.23504075543164 5.7074158349014334 0 1 0
1742 1 13.351715755431213 10.490088604536153 4.1531436487085225 0 0 1
245 1 11.411578215084425 10.252843530142224 6.052775416372917 0 0 0
3390 1 15.688896108851946 11.608979533813224 5.482444455984522 0 1 0
638 1 18.934173265572124 9.524345350194615 3.096612213983493 0 0 0
422 1 18.17148171004892 12.035751502265239 3.935989171206411 0 0 0
1930 1 24.55951026350583 11.121883436808277 5.806574027035993 0 0 1
910 1 30.233273458656825 9.935856565587114 4.768074846033241 0 0 1
548 1 33.054248750516436 10.596292147919984 4.868791046070384 0 0 0
655 1 38.401505260466266 9.704325498721348 5.588187838466675 0 0 0
645 1 42.83255898685061 11.199422152790104 5.800000454660779 0 0 0
1854 1 44.04979729984704 10.291250222367037 3.367579832141333 0 0 1
226 1 46.16895984063033 11.782488830123489 3.472370251460675 0 0 0
54 1 49.759102947181916 9.245076100158954 4.20117870346606 0 0 0
384 1 0.48275140334047806 15.86513829961368 5.0866612144390295 1 0 0
637 1 3.5368236888094753 13.232086792163576 4.385433478362301 1 0 0
623 1 6.165512870655848 12.760626863835634 4.561668159229569 0 0 0
340 1 7.46130257801777 15.186855932681071 3.9076120509300587 0 0 0
549 1 10.112310511469254 14.253596832112496 4.183250624713028 0 0 0
3942 1 19.910630727129057 13.027646547415685 5.925163741592605 0 0 1
2237 1 22.8992583060106 14.371232872091593 3.476946877011769 0 1 0
363 1 20.884980133207637 15.430066469863213 4.82108223860775 0 0 0
399 1 24.88225771347645 13.976136970462434 5.301625000055973 0 0 0
411 1 29.08288575123092 13.108324952881697 2.6905635192166533 0 0 0
413 1 29.611200622003608 13.303215056478539 5.4509152461507036 0 0 0
538 1 31.929323332760667 15.01194249418084 5.728498997927073 0 0 0
653 1 33.67835492974206 13.445751410778271 4.501009894089183 0 0 0
237 1 38.20606855173895 12.4733053409458 5.170426766370541 0 0 0
583 1 38.86135596565394 13.66167016161724 2.6458744829317458 0 0 0
1653 1 42.28255238683238 15.38748614094073 4.6883718672450385 0 0 1
840 1 46.90850707261185 15.236459925477785 5.699238325826248 0 0 0
346 1 46.88692262731243 12.412401422579972 6.095805799880648 0 0 0
171 1 3.2143196938622003 16.035524699438685 4.338009470059387 0 0 0
3676 1 7.14835038460595 17.11388309215815 6.122328634363459 1 0 1
1877 1 11.508720253046553 16.711739057621962 3.415402228699892 0 0 1
286 1 13.981323449254146 15.876146884314682 3.6040715494277773 0 0 0
86 1 15.014135000182696 18.351972129302226 2.665965482231579 0 0 0
554 1 17.119904548786533 17.55909731554863 4.112714073273171 0 0 0
2085 1 19.431832756043487 16.436094040787207 2.8798647150376806 0 0 1
285 1 27.570564314066825 15.415070151885125 5.315314972000135 0 0 0
1712 1 28.273246333359065 18.06784468727113 4.6886473501479005 0 0 1
688 1 32.31919681683968 17.257082528623016 4.233146551251981 0 0 0
2673 1 34.920041334035524 17.91912672901426 4.4998206473772795 0 0 0
121 1 38.64963874385262 16.320000391660514 2.5218699079248847 0 0 0
1865 1 40.134285364290925 17.331663091623764 4.750403069308152 0 0 1
267 1 44.3515820224812 16.379618947519223 6.09823247565713 0 0 0
394 1 47.80827485855562 16.008218061827527 3.303672318352883 0 0 0
2325 1 1.1300315315895075 21.29119455205399 4.6303776455560754 0 0 0
110 1 3.5993268570397623 21.102156720953793 5.333775513359448 0 0 0
1371 1 5.3737822255123655 21.018319914154706 3.0511478948961406 1 0 0
2073 1 11.440481026873863 18.733680211646266 5.3905908974241985 0 0 1
2740 1 8.095194251418253 20.33424282832561 2.797423972397451 0 0 0
118 1 8.693369104759126 19.4137124901776 5.4148136261433395 0 0 0
1577 1 12.839225133998795 20.09593575770963 3.572585724702548 0 0 1
705 1 17.339901204254833 20.302828656271668 5.252806761469601 0 0 0
560 1 20.007149297960325 20.779299975779686 4.536342563008032 0 0 0
2780 1 24.269121299929402 19.702730040368497 4.761569806791006 0 0 0
2489 1 29.50964113419414 20.74556687507027 3.105721712349316 0 0 0
138 1 30.912726659057387 19.2862849110133 5.648080093991724 0 0 0
1583 1 34.910480257870915 20.642655244130758 4.315242086946718 0 0 1
1750 1 40.70731450492361 20.002413276212675 4.5861402463336125 0 0 1
229 1 43.40552442340573 19.97349351746528 3.5902790358501875 0 0 0
1704 1 45.1373012739558 19.07914337161331 5.524163124293142 0 0 1
707 1 47.689373210750276 20.277496506605097 4.602146770573787 0 0 0
359 1 50.020594453433596 19.985206113160636 6.061115499897534 0 0 0
2316 1 0.4139093122508124 23.99364624423214 4.7018586464352845 0 0 0
2689 1 4.085768466177096 -0.6110303500575563 13.43778808068855 0 1 0
2135 1 8.99940677433131 24.10975910393241 4.993670372157244 0 0 0
3512 1 10.837331139259982 23.89194833673871 3.1708763479180884 1 0 1
2485 1 12.812867435240642 22.499192460675165 5.006510269484871 0 0 0
1773 1 15.716150772452522 22.429498476944932 5.079296948474548 0 0 1
448 1 20.847797739169067 22.98217504221051 3.447883524181914 0 0 0
626 1 6.092327572555138 0.1260341123276365 4.435014073332582 0 0 0
3874 1 25.266261743709777 22.103068278907266 3.78614390716026 0 0 1
132 1 27.906973572023624 22.686741654026946 3.364163840288639 0 0 0
2 1 32.20074339754198 21.578208904104375 4.358025340211229 0 0 0
262 1 37.100040326020675 23.753683096646373 6.51944659064588 0 0 0
3182 1 37.00300756324239 24.23627923335587 14.39610945963405 0 0 0
1521 1 42.71709217932239 22.784512837741506 3.8289043523363278 0 0 1
1648 1 42.313831351544664 24.21541826934556 6.190915810774889 0 0 1
496 1 47.249506939661295 23.008763464669933 4.008609632406547 -1 0 0
380 1 0.49501173406262833 1.8118816102651198 7.925133647702152 0 0 0
484 1 5.050073979980756 -0.23832475292627364 8.871804607172844 0 0 0
704 1 7.7216800259494995 0.16305628008517126 9.744363091043855 0 0 0
1455 1 7.143679950745557 14.154425807378662 -0.30737821494138623 0 0 1
198 1 11.548656290840837 0.6102897116937458 9.289536819086614 0 0 0
265 1 15.27621453669018 2.110111077050689 7.516359038749032 0 0 0
3975 1 16.83231656984747 0.30407942044510927 6.378117660730188 0 1 1
1406 1 19.21328953633803 1.4821760406464088 7.180745997837132 0 0 1
2445 1 25.623691214495167 18.4439897053273 16.408208621324924 0 0 0
1775 1 21.61931118603728 0.7173818421979992 6.244119956277332 0 0 1
69 1 26.19097846859003 2.2321156929242543 9.63090107157465 0 0 0
2162 1 26.99500671213023 0.557926768109962 7.8824640509954165 0 1 0
208 1 41.61830966831887 -0.2738324333589041 8.92247955771014 0 0 0
441 1 31.627840066321077 0.15106812741407838 9.614209659496678 0 0 0
571 1 32.75305713359947 2.3013423866781486 8.17486082794585 0 0 0
1399 1 44.75980377556194 18.902585737598223 16.152384042450272 -1 0 0
2787 1 39.223873790358525 1.2653825773465734 9.49375853196063 0 1 0
31 1 16.375805548079374 24.678619265995827 6.810845147151233 0 0 0
368 1 43.067944463042465 1.943753076110605 9.179087620939875 0 0 0
2278 1 44.53645409306052 0.9960991709360156 6.992189035471515 0 1 0
4 1 47.14016679877655 1.2294773272294997 8.138009608343388 -1 0 0
464 1 49.295718629435974 2.386713805519311 6.5594736364034265 0 0 0
55 1 2.205386710595626 3.7177794798365413 8.771366477861738 0 0 0
1607 1 2.1793421594257882 5.206264512582318 6.4863355730356345 0 0 1
2286 1 4.745121454037911 2.686174897904578 8.675721992317282 0 1 0
2425 1 6.729411277528557 3.600117894118645 6.934034920238087 0 1 0
343 1 8.615979789145301 5.009249392726944 8.721570672540446 0 0 0
670 1 10.905411992364447 5.019727338350872 7.28770397346754 0 0 0
225 1 18.776910276198187 4.42724388497548 7.052251306890189 0 0 0
619 1 21.083012094084715 4.627717600848876 8.506301897005168 0 0 0
303 1 22.471797375272107 3.403714094389845 6.627304829435136 0 0 0
2744 1 29.346026122223765 5.213401044603974 7.845243618998927 0 1 0
281 1 31.959755449025607 4.853726692066643 8.168237911420569 0 0 0
403 1 36.78380663397988 4.233718857535869 8.006283019563817 0 0 0
2359 1 39.3632452426607 2.900791909247984 7.4143850696939335 0 1 0
2904 1 41.675326548668565 4.008543120436974 8.381568137801366 0 1 0
608 1 43.65192212852277 5.376546118149023 6.972793792546948 0 0 0
293 1 46.88212322218229 4.905392806807299 9.614805038603395 0 0 0
652 1 47.70971695346738 4.529474712351986 6.826315694014915 0 0 0
453 1 1.4237602567170167 7.5363598862675545 7.666489182664495 0 0 0
37 1 7.271168794176861 8.779532770152764 6.748960769811424 1 0 0
686 1 7.625097690428817 7.608410032344516 9.151356845338338 0 0 0
421 1 12.833170476816978 6.487617283047854 8.59981443629614 0 0 0
492 1 17.31150588940449 5.9647959687197325 8.560218014583853 0 0 0
466 1 15.27371862121365 6.310769311560337 6.950970359218317 0 0 0
1619 1 18.36992432686812 8.671892507815336 8.372714849642833 0 0 1
802 1 22.184847083418457 7.18888903115362 8.597385213234114 0 0 0
449 1 20.848859561670608 9.077722350733305 6.679173357072989 0 0 0
1820 1 24.987310311974586 6.704265861771615 8.052115670083845 0 0 1
629 1 34.17225303744374 9.036295813663529 6.8132629299244245 0 0 0
23 1 37.31520597128179 6.563073736071343 9.163781056857733 0 0 0
2454 1 36.83105524887923 8.882754750507171 7.532017538936632 0 1 0
310 1 40.924214642137876 9.260219840443089 6.194849635973355 0 0 0
468 1 46.13073959501114 8.426199904966474 6.57030736554961 -1 0 0
145 1 45.02911289318055 6.859849162847006 8.727222184318233 -1 0 0
940 1 49.88762969539477 7.841944400820349 8.209397425574767 -1 0 0
57 1 1.518530286998041 11.054739644696946 9.357755574068795 0 0 0
388 1 2.2848179199350493 11.84667401896612 6.599008719434522 1 0 0
328 1 6.642546317765019 11.540641697204101 6.940448915414059 0 0 0
610 1 12.367070020079806 9.1242195948593 8.48049509557756 0 0 0
1631 1 16.468630345730663 10.692086821944 8.240829458673597 0 0 1
662 1 22.04486655415248 11.509425593764394 6.967771487512945 0 0 0
576 1 26.09911569734071 11.144377120538527 8.015527711186492 0 0 0
114 1 28.970322028622753 11.821351884598357 7.557231631311115 0 0 0
60 1 29.717118396183107 9.393136871199495 8.357236321615996 0 0 0
2538 1 32.28645220206955 9.262498746886543 8.898633108338952 0 0 0
601 1 32.80376740293753 11.80062632646965 10.12911099627747 -1 0 0
317 1 36.83205074803129 11.340828334338996 9.038928238592783 0 0 0
337 1 40.93744320792944 9.12961201091552 9.05224000945675 0 0 0
642 1 45.06125476471479 10.871559331490023 7.363535124555103 -1 0 0
222 1 50.00895861978508 10.402344782596616 8.607465213012642 0 0 0
254 1 49.38246543771824 11.141527759301235 6.111553204778608 -1 0 0
1996 1 -0.20560066524986065 13.363845964297951 6.500537378186762 0 0 1
325 1 4.232690487719082 12.445555990661306 8.48496021922853 0 0 0
1649 1 4.0529798545497515 15.337874568467331 8.917306353958622 1 0 1
38 1 8.628717670938403 13.003943986718722 8.037898537201333 0 0 0
352 1 10.821271277757802 12.886217411053748 6.633238155567118 0 0 0
233 1 14.233563714877128 14.14973122065178 6.072279141181124 0 0 0
181 1 12.654360290362908 14.486197362633362 8.220354803001989 0 0 0
1497 1 18.512489489509008 14.761683836637019 7.726180649597408 0 0 1
854 1 30.983302941300135 15.94299408335214 8.323562743013673 0 0 0
1478 1 30.50407568147042 13.295100933981626 9.41258182490029 0 0 1
1139 1 34.8592574575164 13.18261924191619 8.87185850901131 0 0 0
192 1 35.60202077206902 13.536520352463226 6.182910944508601 0 0 0
201 1 40.6939844296586 13.259382620959238 5.841662733658897 0 0 0
675 1 41.024308630450676 13.501006775195592 8.658475164903136 0 0 0
432 1 49.899263623136044 14.294610385809724 8.941487978495212 0 0 0
648 1 1.5346125236961146 18.388274765031284 8.783376774346891 0 0 0
297 1 -0.5150188670767109 17.361975149913892 7.27328276356879 0 0 0
616 1 4.49806699677193 17.03967211009208 6.6216381821669 0 0 0
1159 1 8.334141175945717 15.658772041351344 8.248391934645486 0 0 0
947 1 10.949233428705226 16.572886684441325 9.050401659154343 0 0 0
2755 1 12.488525755899783 18.63759846806122 7.999844511382971 0 0 0
2071 1 15.120652518377605 17.662229787035592 8.365088109237123 0 0 1
133 1 16.295637393661927 15.932968183613522 6.643761364390278 0 0 0
1243 1 20.05994301860161 16.810003246865776 8.96113667538307 0 0 0
3577 1 21.57193043053516 17.293520546549825 6.814260029414605 0 0 1
270 1 24.089385144561703 16.173259057682767 7.1249634046235855 0 0 0
562 1 26.00916128689987 17.653230476087025 8.58271621821638 0 0 0
2338 1 27.7899039074008 15.398678802095723 8.111769496724277 0 0 0
243 1 32.83827435224874 17.809593971437703 9.619469263052936 0 0 0
574 1 35.18198723985053 16.72209602409082 9.044252721552038 0 0 0
1891 1 36.12021801105361 16.225139676976198 6.285373470400866 0 0 1
65 1 38.64691238228208 17.132713061906916 7.206687327853542 0 0 0
559 1 39.933257289607916 15.770520090391884 9.126840221239151 0 0 0
331 1 44.20461554565599 16.638976148897957 8.908757085417012 -1 0 0
63 1 48.31851462226927 16.242474987664647 7.819124333469006 0 0 0
335 1 3.572518198424909 19.60755950951602 7.556879686837545 0 0 0
276 1 8.636314294632145 22.034916496194707 6.677944714479585 0 0 0
301 1 12.578830871874649 21.108012775291094 9.112818024631016 0 0 0
656 1 16.708059557265834 20.003481015300753 7.854945861596292 0 0 0
2287 1 15.26220534269418 21.817745705018332 9.64003414363453 0 0 0
2788 1 21.99558638888899 19.865133098007593 6.318867623335522 0 0 0
182 1 22.62105637776225 21.683532521594735 8.524316826615937 0 0 0
589 1 26.61472307620435 19.4517642378527 6.368270211436438 0 0 0
611 1 29.079710764372873 18.092889325504405 9.356931262107548 0 0 0
556 1 30.999586580959193 19.526257899425268 8.370660437197039 0 0 0
2738 1 33.84966803398585 20.870931105835506 8.612031432934945 0 0 0
381 1 35.9905047548144 21.228299839841913 6.950963691117235 0 0 0
1788 1 37.66639448753062 19.31525149984724 8.310549984715037 0 0 1
2231 1 40.163332704368365 20.26494090622038 7.316932704114806 0 0 0
669 1 42.14281588792671 20.018951389863318 9.325352970236295 0 0 0
488 1 44.47785631396693 20.567591576477167 7.941473160187295 0 0 0
402 1 46.77951102269647 20.05015669872115 9.509311744560403 0 0 0
871 1 49.20826421725938 21.005714504291227 8.492167232819641 0 0 0
196 1 1.588841476593224 1.7767796258736377 16.321035028711634 0 0 0
154 1 4.377655361747276 23.31804079418217 6.8000283413679625 0 0 0
2805 1 2.380357548821057 24.04930159422127 8.576948913988492 0 0 0
41 1 6.45253784249223 22.49693528096684 8.372782738694859 0 0 0
2023 1 11.341449426512531 22.82268216989733 7.286057166337723 0 0 1
552 1 36.36455848525111 7.109010119464077 0.11445709195212028 0 0 0
1162 1 15.345567468531152 24.633132639084156 9.268217126703156 0 0 0
2478 1 19.74982301824168 22.001650278401453 9.170667824358368 0 0 0
2439 1 19.124649523051783 24.225462490107883 7.422953715064198 0 0 0
2194 1 24.50220567427663 23.503335573620724 7.8536807905168065 0 0 0
555 1 27.089308810906914 22.197002132524155 7.702692445624951 0 0 0
252 1 28.916734152313964 23.662412352439045 6.070213244319132 0 0 0
1430 1 31.555371377580805 23.77292890175895 5.77595659524769 0 0 1
622 1 43.72622023909517 22.95104397478526 0.22510750740288554 -1 0 0
2355 1 32.452822824210685 23.538301650905424 8.359844787052461 0 0 0
986 1 40.021550657680834 23.11045085643263 7.1611760613316635 0 0 0
277 1 44.46803910403313 23.38491782505053 7.776416084065509 0 0 0
357 1 46.85969307338905 24.325465726973547 6.583944051943237 0 0 0
2699 1 49.130948263651845 23.88856055334787 8.061357690215956 0 0 0
72 1 0.6630979323428488 0.4179288937462573 10.379608826795804 1 0 0
131 1 0.3094113743563536 2.6725155964392786 12.094362244839763 1 0 0
264 1 7.974658976015471 3.024958287134265 10.518862382783649 0 0 0
2496 1 11.274923305349136 0.689532898529766 14.512213094385691 0 1 0
1376 1 10.117539767689152 1.1615824753118926 11.793896514617117 0 0 0
2210 1 12.880689304263495 2.1983867365877847 12.135711976997792 0 1 0
620 1 17.20528268469192 0.9361198416306638 11.254389518641233 0 0 0
321 1 15.045462733585055 2.5059344905149996 10.472597399046249 0 0 0
677 1 19.652907128638645 1.0550175628092717 9.969531971838299 0 0 0
389 1 23.23310988533566 1.661756270499779 9.74521906315314 0 0 0
2752 1 23.906119271985887 0.5149262488179238 12.32771844526966 0 1 0