
# Create simulation box of size 50 x 50 x 50 Angstrom
#
lattice	            sc 1
Lattice spacing in x,y,z = 1.0000000 1.0000000 1.0000000
region 	            all block 0 50 0 50 0 50 units box
create_box          1 all
Created orthogonal box = (0.0000000 0.0000000 0.0000000) to (50.000000 50.000000 50.000000)
  1 by 2 by 3 MPI processor grid

# fill box with 4175 randomly distributed atoms
#
create_atoms        1 random 4175 63782 all
Created 4175 atoms
  create_atoms CPU = 0.001 seconds
mass                1 18.015

# Define potential
#
pair_style          sw
pair_coeff          * * ML_mW.sw mW
Reading sw potential file ML_mW.sw with DATE: 2019-02-27

# Run minimization
#
minimize            1.0e-8 1.0e-8 10000 1000
WARNING: Using 'neigh_modify every 1 delay 0 check yes' setting during minimization (../min.cpp:187)
Neighbor list info ...
  update every 1 steps, delay 0 steps, check yes
  max neighbors/atom: 2000, page size: 100000
  master list distance cutoff = 6.0032907
  ghost atom cutoff = 6.0032907
  binsize = 3.0016454, bins = 17 17 17
  1 neighbor lists, perpetual/occasional/extra = 1 0 0
  (1) pair sw, perpetual
      attributes: full, newton on
      pair build: full/bin/atomonly
      stencil: full/bin/3d
      bin: standard
Per MPI rank memory allocation (min/avg/max) = 4.255 | 4.258 | 4.261 Mbytes
Step Temp E_pair E_mol TotEng Press 
       0            0    7792709.3            0    7792709.3    5898794.3 
     630            0   -45180.336            0   -45180.336   -154.07449 
Loop time of 1.14208 on 6 procs for 630 steps with 4175 atoms

99.2% CPU use with 6 MPI tasks x no OpenMP threads

Minimization stats:
  Stopping criterion = max force evaluations
  Energy initial, next-to-last, final = 
      7792709.32924461  -45180.0188663597   -45180.336116598
  Force two-norm initial, final = 2.0191930e+08 4.9721331
  Force max component initial, final = 1.0948746e+08 0.73126211
  Final line search alpha, max atom move = 0.053306038 0.038980685
  Iterations, force evaluations = 630 1000

MPI task timing breakdown:
Section |  min time  |  avg time  |  max time  |%varavg| %total
---------------------------------------------------------------
Pair    | 0.87996    | 0.98462    | 1.0605     |   6.3 | 86.21
Neigh   | 0.023799   | 0.024487   | 0.025149   |   0.3 |  2.14
Comm    | 0.036999   | 0.11327    | 0.2189     |  18.8 |  9.92
Output  | 0          | 0          | 0          |   0.0 |  0.00
Modify  | 0          | 0          | 0          |   0.0 |  0.00
Other   |            | 0.0197     |            |       |  1.73

Nlocal:        695.833 ave         704 max         685 min
Histogram: 1 1 0 0 1 0 0 1 0 2
Nghost:        1494.17 ave        1515 max        1468 min
Histogram: 1 1 0 0 0 0 1 1 1 1
Neighs:        0.00000 ave           0 max           0 min
Histogram: 6 0 0 0 0 0 0 0 0 0
FullNghs:      19997.0 ave       20462 max       19320 min
Histogram: 1 1 0 0 0 0 0 2 0 2

Total # of neighbors = 119982
Ave neighs/atom = 28.738204
Neighbor list builds = 26
Dangerous builds = 0

# Add velocity/set timestep
#
velocity            all create ${TEMP} 120598 rot yes dist gaussian
velocity            all create 215 120598 rot yes dist gaussian
timestep            5.0

# Define output
#
compute	            1 all msd
thermo	            100
thermo_style        custom step temp press vol etotal ke pe c_1[4] density

# Neighbor lists
#
neigh_modify        delay 0 every 1 check yes

# Set fixes
#
fix                 1 all momentum 10 linear 1 1 1 rescale
fix                 2 all nve
fix                 3 all temp/csvr ${TEMP} ${TEMP} 500.0 928347
fix                 3 all temp/csvr 215 ${TEMP} 500.0 928347
fix                 3 all temp/csvr 215 215 500.0 928347
fix                 4 all press/berendsen iso ${PRES} ${PRES} 1000.0 modulus 20000
fix                 4 all press/berendsen iso -250 ${PRES} 1000.0 modulus 20000
fix                 4 all press/berendsen iso -250 -250 1000.0 modulus 20000

# Run 0.5 ns equilibration
#
dump                1 all custom 1000 eq.${NAME}.dump id type x y z vx vy vz
dump                1 all custom 1000 eq.liquid_density_MLmW.dump id type x y z vx vy vz
run                 100000
Per MPI rank memory allocation (min/avg/max) = 3.506 | 3.508 | 3.511 Mbytes
Step Temp Press Volume TotEng KinEng PotEng c_1[4] Density 
     630          215    824.17143       125000   -42505.327    2675.0087   -45180.336 2.7295415e-33   0.99914793 
     700    137.19732   -214.92577    125693.08   -41682.011    1706.9955   -43389.007   0.25100009   0.99363857 
     800    167.61255   -359.84133    125847.45   -40935.668    2085.4188   -43021.087   0.57547268   0.99241975 
     900    186.24671     28.62598    125810.77   -40526.438    2317.2631   -42843.701   0.94486268   0.99270909 
    1000    198.63653   -89.366295     126097.3   -40262.744    2471.4161    -42734.16    1.3260275   0.99045337 
    1100    206.72594   -147.49036    126207.52   -40080.578    2572.0637   -42652.641    1.6764472   0.98958837 
    1200    208.76789   -286.68887    126173.66    -40123.02    2597.4694   -42720.489    2.0709318   0.98985392 
    1300    210.69552   -277.26823    126396.33   -40092.851    2621.4528   -42714.304    2.4323743    0.9881101 
    1400    209.82658   -173.77354    126313.57    -40118.64    2610.6415   -42729.282     2.781808   0.98875753 
    1500    208.55567   -326.81511    126465.45   -40065.482     2594.829   -42660.311     3.139551   0.98757007 
    1600    219.45879   -98.336114    126511.74   -39983.384    2730.4845   -42713.869     3.410948    0.9872087 
    1700    215.49258   -239.77765    126755.06   -40009.307    2681.1374   -42690.445    3.8854668   0.98531363 
    1800     214.6659   -248.50631    126732.62   -40108.341    2670.8519   -42779.193    4.2171688   0.98548809 
    1900     215.2865   -371.11915    126869.69   -40116.361    2678.5734   -42794.935    4.5709045   0.98442343 
    2000     219.6687   -229.93558    127015.52   -40088.875    2733.0963   -42821.971    4.9205703   0.98329313 
    2100    220.64581   -261.81038    127176.63   -40071.711    2745.2533   -42816.965    5.2819628   0.98204753 
    2200    216.51496   -247.76347    127158.91    -40134.81    2693.8577   -42828.668     5.601249   0.98218435 
    2300    216.92113    -170.8225    127356.01   -40130.818    2698.9112   -42829.729    5.7852956   0.98066431 
    2400    220.40718   -481.16778     127427.3    -40155.66    2742.2843   -42897.944    6.0077187   0.98011563 
    2500    217.15271   -173.83382    127735.96   -40121.373    2701.7926   -42823.165    6.3131524   0.97774732 
    2600    220.93236   -248.64555    127760.49    -40078.77    2748.8186   -42827.588    6.4733871   0.97755961 
    2700    219.31466   -15.622906    127794.57   -40123.643    2728.6913   -42852.334    6.7788521   0.97729888 
    2800    219.64615   -436.56798    127644.55   -40126.254    2732.8157    -42859.07      7.07959   0.97844751 
    2900    217.52145   -104.73151    127617.26    -40205.08    2706.3803   -42911.461    7.3534607    0.9786567 
    3000    211.93286    -365.7471    127625.02   -40256.558    2636.8478   -42893.406    7.6577757   0.97859719 
    3100    217.42706     -267.602    127664.04   -40232.732     2705.206   -42937.938    7.8542446   0.97829814 
    3200    215.22551   -325.34229    127706.31   -40284.183    2677.8146   -42961.998     8.053654   0.97797431 
    3300    215.73816   -208.17218    127803.76   -40273.429    2684.1928   -42957.622    8.2422612   0.97722859 
    3400    215.99928   -219.20778    127863.41   -40323.349    2687.4416   -43010.791    8.3896267    0.9767727 
    3500    215.15371   -315.97028    127794.37   -40366.362    2676.9212   -43043.283    8.5376073   0.97730041 
    3600    215.10054   -126.72767     127991.3    -40414.18    2676.2596   -43090.439    8.9281538   0.97579671 
    3700    212.78433   -376.93008     128049.6   -40465.768    2647.4416    -43113.21    9.1736064   0.97535243 
    3800    209.62721   -298.29008    128048.09   -40414.827     2608.161   -43022.988     9.195709   0.97536393 
    3900    213.39868   -317.40904    128189.95   -40452.897    2655.0853   -43107.982    9.5139691   0.97428454 
    4000    216.21062   -146.86493    128387.06   -40448.562    2690.0711   -43138.633    9.6472027   0.97278875 
    4100    214.90583   -441.85154    128405.85   -40458.549    2673.8371   -43132.386    9.8557821   0.97264641 
    4200    214.38792   -277.15709     128305.4   -40463.824    2667.3933   -43131.217     10.13234   0.97340794 
    4300    212.52844   -280.55309    128341.94   -40453.574    2644.2578   -43097.832    10.403865   0.97313079 
    4400     217.6354   -69.952028    128352.66   -40452.606    2707.7981   -43160.404    10.519376   0.97304953 
    4500    215.50936   -276.04791    128688.77   -40459.246    2681.3461   -43140.592    10.685668   0.97050809 
    4600     212.7726   -181.79047     128506.5   -40520.267    2647.2957   -43167.563    10.898919   0.97188459 
    4700    214.74066   -150.92203    128683.29    -40456.38    2671.7821   -43128.162    10.995715    0.9705494 
    4800    215.32295   -284.42385    128658.94   -40518.867    2679.0269   -43197.894    11.214626   0.97073307 
    4900    217.58416   -289.70288    128681.69   -40404.647    2707.1606   -43111.808    11.290145   0.97056146 
    5000    221.08598   -207.08634     128781.6   -40381.529    2750.7299   -43132.258    11.472318    0.9698085 
    5100    219.07085   -121.96368    128916.66   -40453.855    2725.6578   -43179.513    11.708626   0.96879251 
    5200     216.0442   -246.93894    129076.66   -40520.259    2688.0005    -43208.26     11.94547   0.96759159 
    5300    216.03998   -262.65963    129138.01   -40494.629     2687.948   -43182.577    12.094433   0.96713194 
    5400    215.68688   -254.57312    129108.69   -40529.728    2683.5549   -43213.283    12.226512   0.96735152 
    5500    213.82965   -300.79286    129137.41   -40542.632    2660.4474    -43203.08    12.371772   0.96713644 
    5600    215.97209   -363.07808    129008.39   -40547.009    2687.1034   -43234.113    12.377013   0.96810366 
    5700    211.55549   -115.23502    129076.41   -40545.579    2632.1525   -43177.732    12.574028   0.96759347 
    5800    212.65165   -215.25057    129200.71   -40582.777    2645.7908   -43228.568    12.745084   0.96666258 
    5900    216.60353   -168.85873    129285.66   -40611.521    2694.9598   -43306.481    12.940713   0.96602742 
    6000    213.52276   -40.378049    129162.89   -40628.514     2656.629   -43285.143    13.061184   0.96694566 
    6100    217.28524   -296.83401    129425.31    -40569.21    2703.4415   -43272.652    13.309962   0.96498508 
    6200    211.57473   -285.92133    129527.09   -40634.835    2632.3919   -43267.227    13.508862    0.9642268 
    6300    215.89453   -226.02517    129577.19   -40622.446    2686.1384   -43308.585     13.63085   0.96385398 
    6400    217.23188   -281.17866    129600.47   -40598.309    2702.7776   -43301.087    13.730244   0.96368084 
    6500    218.26569   -120.81323    129595.48   -40558.871    2715.6402   -43274.511    13.843516   0.96371795 
    6600    215.95277   -383.63553    129473.72   -40620.843    2686.8631   -43307.707    13.963531   0.96462424 
    6700     213.0127   -173.17278    129596.55   -40680.439    2650.2829   -43330.722    14.009087   0.96370996 
    6800    215.62095   -196.44976    129625.66   -40602.644    2682.7345   -43285.378    14.142624   0.96349357 
    6900    216.68581   -227.12225    129516.53   -40551.787    2695.9834    -43247.77    14.195069   0.96430539 
    7000    216.29616   -175.36874    129335.67   -40547.972    2691.1355   -43239.107    14.246241   0.96565389 
    7100     216.8551   -144.31951    129437.45   -40566.523    2698.0897   -43264.613    14.444754   0.96489458 
    7200    215.66984   -228.28285    129528.38   -40617.843    2683.3428   -43301.185    14.586767   0.96421719 
    7300    214.90994   -312.06349    129700.91   -40679.821    2673.8882   -43353.709    14.752447   0.96293459 
    7400    208.18292   -412.91095    129628.62   -40710.048    2590.1913   -43300.239    14.775326    0.9634716 
    7500    212.45958   -387.98523    129725.93   -40685.701    2643.4011   -43329.102    14.858797   0.96274888 
    7600    209.99347   -399.50863    129530.39   -40767.015     2612.718   -43379.733    14.984083    0.9642022 
    7700     215.3372   -283.65806    129508.04   -40652.582    2679.2041   -43331.786    14.948321   0.96436862 
    7800    214.52044   -221.12985    129444.31   -40631.697    2669.0421    -43300.74    15.097378   0.96484344 
    7900    212.17539   -268.72345    129390.54   -40675.699    2639.8653   -43315.564    15.181175   0.96524438 
    8000    211.99651   -119.20939    129610.28   -40633.341    2637.6396    -43270.98    15.345222   0.96360789 
    8100    211.74904   -269.23189    129640.77   -40705.002    2634.5606   -43339.563    15.442032   0.96338131 
    8200    211.10618   -371.38398    129528.51   -40731.965    2626.5623   -43358.528    15.509189   0.96421619 
    8300    210.94216   -286.18211    129667.04   -40720.113    2624.5215   -43344.634    15.654792   0.96318609 
    8400    212.68212   -98.839362    130074.71   -40691.523    2646.1699   -43337.693     15.81005   0.96016739 
    8500    217.90159   -183.53127    130101.68   -40646.432    2711.1101   -43357.543    15.842444   0.95996831 
    8600    215.47386    -273.4713    130117.08   -40676.226    2680.9045   -43357.131    16.137174   0.95985471 
    8700    217.42825   -121.24134    130092.63   -40676.608    2705.2208   -43381.829    16.300311   0.96003514 
    8800    214.23302   -196.60195    130261.02   -40727.879    2665.4661   -43393.345    16.319538   0.95879406 
    8900    217.80444    -129.3193    130153.64   -40822.805    2709.9013   -43532.706    16.466727   0.95958508 
    9000    211.62374   -168.64142    130248.31   -40777.338    2633.0017   -43410.339    16.571279   0.95888761 
    9100    212.81927   -368.88383    130563.75   -40852.487    2647.8763   -43500.363    16.703282   0.95657092 
    9200    217.00922   -194.49947    130653.74   -40783.337    2700.0073   -43483.344    16.711672   0.95591209 
    9300    213.25663   -307.53777    130406.75   -40858.331    2653.3179   -43511.648    16.869974    0.9577226 
    9400    217.24287   -198.10958     130428.8   -40831.724    2702.9143   -43534.638    17.001523   0.95756065 
    9500    210.34304    -202.1866    130375.96   -40856.827    2617.0673   -43473.894     17.08126   0.95794877 
    9600    214.92564   -295.31511    130537.83   -40824.846    2674.0835    -43498.93    17.105277   0.95676091 
    9700    216.06328   -377.50448    130358.97   -40767.116    2688.2379   -43455.354    17.183642   0.95807366 
    9800    216.12247   -216.59326    130368.55   -40841.177    2688.9743   -43530.151    17.421125   0.95800321 
    9900    213.58297   -351.43482    130385.87   -40926.133    2657.3782   -43583.511    17.388892   0.95787598 
   10000    211.38612   -51.414844    130332.89   -40933.047    2630.0452   -43563.092    17.421146   0.95826534 
   10100    210.59733   -155.42761    130336.98   -40896.875    2620.2312   -43517.107    17.491145   0.95823527 
   10200    210.47425   -290.77092    130540.41   -40940.815    2618.6998   -43559.515    17.605516   0.95674198 
   10300    212.70713   -255.38634    130584.97     -40932.3     2646.481   -43578.781    17.690567   0.95641549 
   10400    215.51867   -192.68184    130615.02   -40881.311     2681.462   -43562.773    17.787577   0.95619546 
   10500    214.46217   -238.41274    130752.48   -40871.547    2668.3172   -43539.864    17.870575   0.95519025 
   10600    219.20566   -392.04942    130515.04   -40821.074    2727.3352    -43548.41    17.940873   0.95692793 
   10700    217.94589   -443.46326    130279.46   -40815.849    2711.6612    -43527.51    18.130757   0.95865833 
   10800    220.13462    -156.8614     130358.7   -40793.118    2738.8931   -43532.011    18.233312   0.95807565 
   10900    217.52209   -171.81351       130406    -40814.37    2706.3884   -43520.758    18.354419   0.95772809 
   11000    216.84744   -251.84503    130479.41   -40796.518    2697.9944   -43494.512    18.446467   0.95718928 
   11100    212.08695   -220.29592    130595.75   -40828.005    2638.7649   -43466.769    18.669751   0.95633658 
   11200    214.84309    6.3738287    130786.18   -40819.188    2673.0565   -43492.245    18.728026   0.95494414 
   11300    216.51339   -164.23937    131080.68   -40813.208    2693.8382   -43507.046    18.791179   0.95279861 
   11400    214.13911   -226.16923    130858.18   -40817.324    2664.2976   -43481.621    19.058691   0.95441868 
   11500    213.03283   -169.35108    130879.23   -40853.892    2650.5334   -43504.425    19.172409   0.95426519 
   11600    214.43035    -259.4091    131016.07   -40876.667    2667.9213   -43544.589    19.306256   0.95326848 
   11700    219.78086   -164.38573    131138.84   -40797.667    2734.4917   -43532.159    19.332878   0.95237606 
   11800     214.7974   -241.72814    131212.13   -40877.889     2672.488   -43550.377     19.40832   0.95184411 
   11900     218.9043   -196.06262    131113.01   -40909.968    2723.5857   -43633.554    19.471138   0.95256371 
   12000    216.16583   -300.80114    130957.95   -40921.478    2689.5139   -43610.991    19.506777   0.95369156 
   12100    214.17448   -121.33225    130852.23    -40886.92    2664.7378   -43551.658    19.497453   0.95446207 
   12200    214.87109   -329.32235    130682.43    -40887.02    2673.4049   -43560.425     19.55599   0.95570221 
   12300    216.55201    -317.9561    130494.38   -40905.774    2694.3188   -43600.092    19.843645   0.95707944 
   12400    216.13162   -327.72922    130721.86   -40885.598    2689.0882   -43574.686    19.829592   0.95541394 
   12500    211.99269   -187.95896    130795.35   -40978.401    2637.5921   -43615.993    20.025847   0.95487717 
   12600    216.40029   -154.80102    130934.65   -40890.177    2692.4311   -43582.608    20.131714   0.95386124 
   12700    214.45047   -264.02993    131084.78   -40868.076    2668.1715   -43536.248    20.289261   0.95276882 
   12800    218.19946   -155.74025    131130.64   -40842.712    2714.8161   -43557.528    20.227642   0.95243562 
   12900    215.43081   -233.98499    131129.87   -40915.062    2680.3688   -43595.431    20.481945   0.95244118 
   13000    218.33728   -263.72462    131152.25    -40869.44    2716.5309    -43585.97    20.439445   0.95227865 
   13100     218.7409   -259.00113    131279.84   -40879.843    2721.5527   -43601.396    20.587359   0.95135314 
   13200     218.7865   -248.12482    131331.45   -40804.521      2722.12   -43526.641     20.79308   0.95097933 
   13300    219.62145   -281.95313    131293.35   -40850.389    2732.5083   -43582.897    21.053132   0.95125528 
   13400    214.05963   -229.39024    131350.46   -40934.488    2663.3088   -43597.797    21.033385   0.95084166 
   13500    215.62184   -162.07635    131455.96    -40974.29    2682.7456   -43657.036    20.963519   0.95007857 
   13600    212.68699   -236.93848    131517.94   -41004.986    2646.2305   -43651.216    21.019707   0.94963085 
   13700    210.55599   -316.68504    131431.26   -41010.826    2619.7168   -43630.543    21.056392   0.95025709 
   13800     214.2218   -288.23076     131184.9   -40922.565    2665.3265   -43587.892    21.150937   0.95204167 
   13900    216.08206   -160.41939    131175.64   -40955.937    2688.4716   -43644.408    21.256431   0.95210884 
   14000     215.8553   -256.04698    131234.79   -40938.649    2685.6503     -43624.3    21.370952   0.95167972 
   14100    213.59155   -264.50077    131352.28   -40940.007    2657.4849   -43597.492    21.372797   0.95082847 
   14200    215.88185   -218.75933    131567.16   -40970.095    2685.9806   -43656.075    21.503895   0.94927555 
   14300    212.67569   -254.49191     131521.8   -41027.537      2646.09   -43673.627    21.701512   0.94960295 
   14400    213.00841   -297.72341    131555.03   -41007.507    2650.2296   -43657.736     21.76938   0.94936312 
   14500    212.45165   -293.53304    131582.45   -40946.508    2643.3024    -43589.81    21.988731   0.94916527 
   14600     216.5523   -390.42785    131454.64   -40968.373    2694.3223   -43662.695     22.09062   0.95008811 
   14700    215.49356    -305.7478    131525.17   -41019.643    2681.1496   -43700.792    22.094651   0.94957861 
   14800    211.19123   -190.75104    131494.17   -41066.724    2627.6205   -43694.344    21.999508   0.94980247 
   14900    208.70491   -337.01905    131688.27   -41123.191    2596.6858   -43719.877    21.852401   0.94840255 
   15000    209.01452   -250.12727    131638.25   -41127.353     2600.538   -43727.891    22.009597   0.94876293 
   15100    208.65765   -460.80058    131515.94   -41158.694    2596.0978   -43754.792    22.090224   0.94964531 
   15200    211.40663   -300.22266    131427.82   -41087.534    2630.3004   -43717.835    22.176938   0.95028201 
   15300    214.36037    -229.1254    131269.63   -41093.595    2667.0505   -43760.646    22.203452   0.95142717 
   15400     211.6055   -190.66613    131384.66   -41075.435    2632.7747    -43708.21    22.317003   0.95059414 
   15500    216.59093   -217.93962    131487.75   -41044.994     2694.803   -43739.797    22.466541   0.94984887 
   15600    215.06005   -283.00893    131339.55   -40987.248    2675.7559   -43663.003    22.492083   0.95092067 
   15700    209.27213   -288.44275     131144.4    -41064.21    2603.7431   -43667.953    22.717545   0.95233568 
   15800    209.45279   -248.18715    131144.89   -41063.654    2605.9909   -43669.645    22.717238   0.95233211 
   15900    211.44383   -368.93269    131289.69   -41096.812    2630.7632   -43727.575    22.713019   0.95128178 
   16000    216.14778   -163.18345    131523.97   -41045.184    2689.2893   -43734.473    22.831217   0.94958727 
   16100    215.90324   -122.04315    131457.89   -40989.121    2686.2468   -43675.368    22.912497   0.95006461 
   16200    215.82611   -346.87553    131617.64   -41048.672    2685.2872   -43733.959    22.929744   0.94891152 
   16300    215.50575   -303.98095    131642.17   -41082.204    2681.3012   -43763.505     22.85926   0.94873466 
   16400    216.90379   -286.63122    131730.25   -40999.947    2698.6955   -43698.643    22.870284   0.94810029 
   16500    219.40401   -187.51519     131836.2   -41004.798     2729.803   -43734.601    23.116234    0.9473384 
   16600    219.78408   -165.80887    131722.21   -40999.664    2734.5318   -43734.196    23.185516   0.94815819 
   16700    210.79545   -286.70376    131600.78   -41035.388    2622.6962   -43658.084    23.243626   0.94903305 
   16800    214.03004   -444.35516    131463.13    -41027.56    2662.9406   -43690.501    23.327774   0.95002675 
   16900    216.52253   -259.30263    131558.07    -40983.92    2693.9519   -43677.872    23.304432   0.94934116 
   17000    214.71266   -293.42302    131594.29   -41002.395    2671.4337   -43673.829    23.382475    0.9490799 
   17100    217.56133   -288.06852     131529.7   -40923.832    2706.8766   -43630.709    23.437265   0.94954595 
   17200    217.64264   -218.51327    131617.55   -40950.869    2707.8882   -43658.757    23.443159   0.94891215 
   17300    217.44124   -57.187975    131696.91   -41014.679    2705.3824   -43720.061    23.455935   0.94834032 
   17400    212.88698   -304.02093    131810.33   -41040.072    2648.7187   -43688.791    23.652033   0.94752431 
   17500    219.38767   -197.18896    131768.79     -41045.5    2729.5997     -43775.1    23.635504   0.94782304 
   17600    216.38076   -294.44173    131806.47   -41032.843     2692.188   -43725.031    23.737498   0.94755204 
   17700    215.44073   -148.25464    131954.76   -41051.587    2680.4923    -43732.08    23.876418   0.94648722 
   17800    215.05025   -332.26269    131819.85   -41058.258     2675.634   -43733.892    23.757821   0.94745586 
   17900    215.73988   -170.41059    131823.04   -41023.973    2684.2143   -43708.187    23.868643   0.94743295 
   18000    214.27618   -294.59874    131841.72   -40958.954    2666.0031   -43624.957    23.944163   0.94729868 
   18100    214.88975   -176.29101    131923.47   -41050.064     2673.637   -43723.701     24.00081   0.94671171 
   18200    218.30073    -142.6191    131898.49   -41047.836    2716.0761   -43763.912    24.075971   0.94689097 
   18300    221.49513   -124.43818    131979.33   -40970.199    2755.8206   -43726.019    24.165716   0.94631101 
   18400     219.2992    -487.1874    131971.23   -41041.834     2728.499   -43770.333      24.3472   0.94636909 
   18500    217.48228   -251.92239    131977.66   -41010.638     2705.893   -43716.531    24.351528   0.94632296 
   18600    216.90743   -196.63709    131884.52   -41067.069    2698.7407    -43765.81     24.58436   0.94699126 
   18700    217.84442   -260.13982    131898.41   -41045.095    2710.3988   -43755.494    24.593182   0.94689159 
   18800    221.33993   -220.05613    131895.49   -41027.706    2753.8895   -43781.596    24.545449    0.9469125 
   18900    216.20648    -276.8316     132001.5   -41078.159    2690.0196   -43768.178    24.463012   0.94615206 
   19000    218.03818    -249.5252    132040.37   -41058.706    2712.8094   -43771.515    24.628924   0.94587352 
   19100    211.69503   -205.82958    132105.34   -41128.902    2633.8887    -43762.79    24.834432   0.94540833 
   19200    218.42241   -104.40014     132106.5   -41111.675    2717.5901   -43829.266    24.835573   0.94540008 
   19300    213.52886   -287.18956    132337.16   -41047.025     2656.705    -43703.73    24.870569   0.94375223 
   19400    216.61925   -289.19782    132175.17   -41052.875    2695.1553    -43748.03    24.849076   0.94490889 
   19500    217.83496   -197.55678    132347.57   -41041.089    2710.2811    -43751.37    24.980417   0.94367799 
   19600    214.69163   -414.94765    132309.51   -41076.673     2671.172   -43747.845    25.104356   0.94394944 
   19700      221.485   -122.00502    132153.51     -41057.5    2755.6945   -43813.194    25.189845   0.94506373 
   19800    216.38415    -218.0259    132126.52   -41093.477    2692.2302   -43785.707    25.282018   0.94525677 
   19900     214.0369   -262.91992    132092.72   -41105.328     2663.026   -43768.354    25.428006   0.94549866 
   20000    212.42503    -286.0366    132231.77   -41143.021    2642.9712   -43785.992    25.515365   0.94450441 
   20100    215.40091   -342.13189    132379.67   -41094.878    2679.9968   -43774.875    25.793917   0.94344919 
   20200    213.51325   -257.03127    132294.49   -41139.864    2656.5108   -43796.375    25.771169   0.94405662 
   20300    214.49575   -192.45231     132363.6   -41164.661    2668.7349   -43833.396     25.63948    0.9435637 
   20400     212.1665   -156.59144    132372.74   -41169.151    2639.7546   -43808.906    25.847472   0.94349857 
   20500    214.70643   -167.02058    132301.15   -41151.906    2671.3562   -43823.262    25.926581   0.94400909 
   20600    214.73235    -45.11017    132362.47   -41192.464    2671.6787   -43864.143    26.028663   0.94357178 
   20700    213.40352   -25.796571    132444.07   -41136.864    2655.1456    -43792.01    26.161328   0.94299046 
   20800    216.26692   -153.74484    132286.82   -41146.483    2690.7716   -43837.255    26.154303   0.94411134 
   20900    211.53322   -279.60053    132345.49   -41180.192    2631.8754   -43812.067    26.070925   0.94369281 
   21000    206.91055   -231.63974    132343.71   -41267.532    2574.3606   -43841.893    26.088846   0.94370555 
   21100    210.54035    -242.0327    132393.37     -41275.3    2619.5223   -43894.823    26.237413   0.94335157 
   21200    211.70262    -181.1866    132504.65   -41248.257     2633.983    -43882.24    26.327731   0.94255933 
   21300     209.2449   -211.08629    132583.53   -41255.853    2603.4043   -43859.257    26.495961   0.94199852 
   21400    211.61675   -193.95825    132612.02   -41201.324    2632.9147   -43834.238    26.610235   0.94179617 
   21500    213.37689     -294.986    132606.21   -41183.795    2654.8141   -43838.609    26.500601   0.94183739 
   21600    213.73062   -306.93868    132667.54   -41143.655    2659.2153   -43802.871    26.711993   0.94140201 
   21700    213.93821   -286.41396    132539.36   -41118.369    2661.7981   -43780.167    26.759169   0.94231246 
   21800    212.78095   -192.78298    132493.71   -41105.572    2647.3995   -43752.972    26.867194   0.94263716 
   21900    215.23015   -245.14823    132369.07   -41124.293    2677.8723   -43802.165    26.938649   0.94352471 
   22000    214.40399   -203.17459    132464.58   -41168.277    2667.5932    -43835.87    26.941837    0.9428444 
   22100    212.88859   -185.99602     132474.3   -41120.873    2648.7388   -43769.612    26.910531   0.94277525 
   22200    215.03042   -253.43386    132500.91   -41157.256    2675.3872   -43832.644    26.872829   0.94258591 
   22300    216.89323   -170.62759    132467.98   -41138.785    2698.5642   -43837.349    27.009725   0.94282024 
   22400    217.56601   -314.58944    132564.36   -41107.673    2706.9348   -43814.608    27.018328   0.94213474 
   22500     213.7089   -184.06633    132738.69   -41122.337     2658.945   -43781.282    27.278604    0.9408974 
   22600    215.99788   -281.03093    132572.93   -41103.426    2687.4243    -43790.85      27.3516   0.94207388 
   22700     217.2798   -309.58377    132605.51   -41113.486    2703.3737    -43816.86     27.39011   0.94184238 
   22800     217.7015   -203.29473    132459.19   -41097.201    2708.6205   -43805.821    27.268754   0.94288281 
   22900    217.00423   -169.36429    132603.16   -41143.158    2699.9452   -43843.104    27.411961   0.94185905 
   23000    219.03968   -302.30609    132724.23   -41131.451      2725.27   -43856.721    27.645556    0.9409999 
   23100    211.16596   -105.09494    132739.43   -41231.303     2627.306   -43858.609    27.437105   0.94089215 
   23200    217.02236    -187.6338    132929.32   -41178.551    2700.1708   -43878.722    27.466226   0.93954813 
   23300    212.18322   -357.58278     132704.6   -41216.763    2639.9626   -43856.725    27.672916   0.94113911 
   23400    218.97464   -218.71367    132685.66   -41148.726    2724.4608   -43873.186    27.655196   0.94127347 
   23500    213.25489   -130.77156    132743.74   -41187.045    2653.2962   -43840.341    27.841341   0.94086163 
   23600    217.70398   -354.09731    132790.05   -41161.637    2708.6514   -43870.288    27.863891   0.94053351 
   23700    211.93099   -244.80225    132892.89   -41190.636    2636.8244   -43827.461    27.741512   0.93980567 
   23800    210.33785   -298.42673    132710.02   -41245.359    2617.0027   -43862.362    27.767587   0.94110069 
   23900    214.44511   -263.61515    132581.82   -41251.324    2668.1049   -43919.429    27.883426   0.94201067 
   24000    215.54797   -229.61934    132488.31   -41180.743    2681.8265   -43862.569    28.009551   0.94267555 
   24100    213.26036   -436.75442    132502.32   -41170.777    2653.3644   -43824.141    28.020896   0.94257588 
   24200    211.86408    -322.2427    132509.22   -41235.469    2635.9919   -43871.461    28.008688   0.94252682 
   24300    214.44058   -219.16353    132487.47   -41214.319    2668.0485   -43882.368    28.125153   0.94268152 
   24400    211.94291   -224.36556    132570.49   -41247.488    2636.9728   -43884.461    28.268036   0.94209119 
   24500     217.3442   -266.84678    132552.72   -41204.749     2704.175   -43908.924    28.242829   0.94221751 
   24600    212.53976   -309.66767    132667.72   -41191.359    2644.3986   -43835.757    28.413026   0.94140076 
   24700    210.43221   -155.21473    132607.94   -41207.453    2618.1768    -43825.63    28.464973   0.94182516 
   24800    213.73061     -192.682    132540.89   -41199.583    2659.2151   -43858.799    28.491243    0.9423016 
   24900     216.7909   -276.82145    132445.81   -41146.996     2697.291   -43844.287    28.550763   0.94297805 
   25000    217.42139    -209.8221    132614.22   -41127.537    2705.1354   -43832.673    28.758692   0.94178055 
   25100    215.69686   -285.43446    132288.07   -41135.254     2683.679   -43818.933    28.749532   0.94410243 
   25200    211.40322   -354.93958    132519.59   -41189.263     2630.258   -43819.521    28.793859   0.94245306 
   25300    213.32761   -139.36404     132481.1   -41182.565     2654.201   -43836.766    28.802961   0.94272682 
   25400    212.32555    -208.7859    132475.71   -41173.181    2641.7335   -43814.914    28.898956   0.94276524 
   25500    217.33469   -322.48504     132548.5   -41134.913    2704.0567   -43838.969    28.955019   0.94224749 
   25600    215.40098    -368.4875    132463.02   -41220.047    2679.9978   -43900.045    29.018582   0.94285551 
   25700     211.5368   -333.67726    132526.78   -41238.223    2631.9199   -43870.143     29.03248    0.9424019 
   25800    211.43005    -301.6019    132462.92   -41228.912    2630.5918   -43859.503    29.000863   0.94285625 
   25900    216.00526   -165.66058    132357.38   -41177.917    2687.5161   -43865.433    29.001146   0.94360809 
   26000     216.9689   -319.63515    132282.67   -41115.493    2699.5056   -43814.999    29.114136   0.94414101 
   26100    211.20347   -422.77447    132077.27   -41181.182    2627.7727   -43808.955    29.231662   0.94560927 
   26200    215.63821   -195.76882    132131.79   -41166.498    2682.9493   -43849.447    29.262998   0.94521907 
   26300     213.9023   -409.97241    132146.28   -41140.722    2661.3513   -43802.074    29.200218   0.94511545 
   26400    215.41904   -148.48747    132289.38   -41132.463    2680.2224   -43812.685    29.340588   0.94409311 
   26500    215.46041   -57.937205    132359.56   -41196.145    2680.7372   -43876.883    29.393052   0.94359252 
   26600    217.82891   -223.08936    132491.94   -41249.116    2710.2057   -43959.322    29.532525   0.94264975 
   26700    211.50147   -306.55955    132623.77   -41268.809    2631.4804    -43900.29    29.557043   0.94171274 
   26800    216.45923   -268.44139     132656.2   -41216.767    2693.1644   -43909.931    29.738134   0.94148253 
   26900    213.66125   -189.46506    132534.03   -41215.131    2658.3522   -43873.483      29.8271   0.94235037 
   27000    212.76337   -434.37316    132456.89   -41248.026    2647.1808   -43895.206    29.889616    0.9428992 
   27100    215.44189   -311.32019    132431.76   -41257.041    2680.5067   -43937.548     29.77793    0.9430781 
   27200    213.39366   -269.61097    132486.41   -41271.273    2655.0229   -43926.296    29.779441   0.94268908 
   27300    210.02979   -144.82124    132430.45   -41300.316    2613.1699   -43913.486    29.726795   0.94308743 
   27400    214.44399   -221.16891    132436.23    -41243.07     2668.091   -43911.161    29.719722   0.94304625 
   27500    218.88107   -272.49391    132504.56   -41179.657    2723.2967   -43902.953    29.999983   0.94255994 
   27600    212.65041   -241.49114    132558.35   -41207.321    2645.7754   -43853.096    30.069071   0.94217745 
   27700    214.12815   -307.51352    132585.84   -41210.104    2664.1613   -43874.265    30.082098   0.94198211 
   27800     216.9663   -247.17051    132458.42   -41146.053    2699.4733   -43845.527    29.870121    0.9428883 
   27900    215.73981   -289.55942    132262.16   -41158.188    2684.2134   -43842.402    29.839232   0.94428744 
   28000    215.51267   -211.05205    132345.89   -41183.343    2681.3873    -43864.73    29.935871   0.94369001 
   28100    215.68448   -176.91652    132407.49   -41168.109    2683.5249   -43851.634    30.093028   0.94325098 
   28200    217.14041   -244.79841    132472.31   -41224.608    2701.6395   -43926.248     30.09007   0.94278938 
   28300    209.99388   -472.26466    132656.22   -41214.166    2612.7231   -43826.889    30.143623   0.94148233 
   28400    212.71129   -354.38213    132705.92    -41262.93    2646.5329   -43909.463    30.084919   0.94112976 
   28500    209.29487   -126.32111     132712.8   -41280.255    2604.0261   -43884.282    30.039557   0.94108097 
   28600    215.70578   -99.616609    132780.41   -41231.474      2683.79   -43915.264    30.236606   0.94060177 
   28700    213.96011   -338.97614    132971.45   -41234.254    2662.0706   -43896.325    30.392732   0.93925042 
   28800    219.20493   -239.74853    133064.48   -41202.975     2727.326   -43930.301    30.401754   0.93859374 
   28900    218.01455    -50.94397    132831.89   -41172.467    2712.5155   -43884.983    30.231682   0.94023725 
   29000    213.02547   -303.34533    133031.05   -41250.334    2650.4418   -43900.776    30.408188   0.93882961 
   29100    217.13642   -190.85488    133106.92   -41200.699    2701.5898   -43902.289    30.463924   0.93829449 
   29200    211.99731   -138.82813    132994.91   -41166.142    2637.6496   -43803.791    30.558902   0.93908473 
   29300    212.40092   -191.19321    132969.13   -41228.485    2642.6713   -43871.156    30.549081   0.93926679 
   29400    213.88288   -210.42232    132950.73   -41288.815    2661.1096   -43949.924    30.595048   0.93939681 
   29500      211.213   -76.900803    132969.03   -41318.417    2627.8913   -43946.308    30.770948   0.93926754 
   29600    216.54761   -67.461494    132926.44   -41242.486     2694.264    -43936.75    30.702717   0.93956848 
   29700    211.46697   -141.83565    132994.36   -41283.499    2631.0512    -43914.55    30.779693   0.93908864 
   29800    214.22583   -265.20456    133176.72   -41263.782    2665.3766   -43929.159    31.012977   0.93780271 
   29900    214.81929    -230.4791    133275.73    -41283.09    2672.7603    -43955.85     30.86956   0.93710605 
   30000    213.42904   -246.88241    133258.65   -41265.473     2655.463   -43920.936    30.828769   0.93722613 
   30100    213.39283    -248.5015    133223.23    -41264.64    2655.0125   -43919.652    30.863777   0.93747535 
   30200    212.12288   -226.04279    133194.11    -41262.18    2639.2119   -43901.392    31.012362   0.93768031 
   30300    213.57078   -226.68954    133042.49   -41230.265    2657.2265   -43887.491    31.041865   0.93874891 
   30400    211.52795   -64.791796    132958.99   -41202.312    2631.8098   -43834.122    31.035914   0.93933847 
   30500    212.03329   -135.67906    132883.24   -41211.739    2638.0972   -43849.836    31.045667   0.93987394 
   30600    218.27085   -165.80426    132842.56   -41216.654    2715.7044   -43932.359    31.098235   0.94016173 
   30700    213.07191   -326.57461    132822.28   -41238.219    2651.0196   -43889.239    30.834303   0.94030531 
   30800    216.60659   -332.97144    132877.18   -41178.813    2694.9978   -43873.811    31.102004   0.93991679 
   30900    213.70676   -253.45864    132711.47   -41297.393    2658.9183   -43956.311    31.274964   0.94109038 
   31000    210.43443   -275.34283    132667.42   -41338.372    2618.2044   -43956.576      31.3082   0.94140288 
   31100    214.25575   -262.78731    132494.81   -41331.759    2665.7488   -43997.508    31.182485   0.94262928 
   31200    211.19871   -166.56648    132552.83   -41326.519    2627.7135   -43954.232     31.18363   0.94221668 
   31300    213.49977   -252.08475    132631.93   -41277.277     2656.343    -43933.62    31.124558   0.94165476 
   31400     212.2039   -176.37452    132710.87   -41234.171      2640.22   -43874.391    31.225106   0.94109463 
   31500    212.19878   -352.24984    132475.99   -41281.096    2640.1563   -43921.252    31.281291   0.94276323 
   31600    220.74977   -194.62929    132657.87   -41213.038    2746.5468   -43959.585    31.303024   0.94147062 
   31700    212.19801    -256.6686    132683.07   -41241.339    2640.1467   -43881.486    31.491488   0.94129183 
   31800    219.45138   -298.54001    132738.49   -41173.268    2730.3924    -43903.66    31.441277   0.94089881 
   31900    215.19721   -351.34217     132742.9   -41162.853    2677.4624   -43840.315    31.645863   0.94086756 
   32000    217.85732   -159.16399    132539.54   -41157.352    2710.5592   -43867.911    31.627354   0.94231115 
   32100    218.55244   -222.74891    132682.71   -41165.785    2719.2079   -43884.993    31.808146    0.9412944 
   32200    219.02491    -260.1034    132845.41    -41165.13    2725.0863   -43890.217    31.845425   0.94014153 
   32300    219.90628   -328.89741    132778.47   -41154.539    2736.0522   -43890.592    31.857258   0.94061554 
   32400    213.31943   -272.67586    132891.96   -41221.164    2654.0992   -43875.264    31.865709   0.93981222 
   32500    213.74901   -210.65206    132831.79   -41224.739    2659.4441   -43884.183    31.958342   0.94023797 
   32600    215.89959   -337.49379    132714.82   -41168.167    2686.2014   -43854.368    31.923127   0.94106669 
   32700    212.68841   -280.21229    132616.22   -41225.654    2646.2482   -43871.902    32.178646   0.94176634 
   32800    214.33513   -253.35474    132581.59   -41255.811    2666.7364   -43922.548    32.250746   0.94201234 
   32900     215.1071   -119.21885    132650.85   -41250.902    2676.3413   -43927.243    32.294257   0.94152048 
   33000    217.53664   -233.35836    132744.89   -41298.958    2706.5694   -44005.527    32.351155   0.94085345 
   33100    215.32602   -375.07906    132737.27   -41233.238    2679.0651   -43912.303    32.313332   0.94090751 
   33200    212.39948   -218.31823    132503.74   -41282.023    2642.6533   -43924.677    32.219158   0.94256576 
   33300    215.66209   -311.84192    132564.12   -41207.009    2683.2463   -43890.255    32.391779   0.94213648 
   33400    212.05999   -169.43069    132561.08   -41278.667    2638.4294   -43917.097    32.366672   0.94215804 
   33500    214.79936   -287.46563     132566.4   -41239.201    2672.5124   -43911.714    32.479236   0.94212028 
   33600    210.16458    -163.6508    132432.32   -41212.782     2614.847   -43827.629    32.772885    0.9430741 
   33700    213.10815   -187.64591       132346    -41200.06    2651.4705    -43851.53    32.745238   0.94368923 
   33800    214.58693   -306.69901    132428.41   -41198.798    2669.8694   -43868.667    32.562435   0.94310191 
   33900    216.63363   -276.60842    132534.92   -41213.131    2695.3343   -43908.465    32.675465   0.94234404 
   34000    217.22183   -227.72478    132408.63   -41190.254    2702.6525   -43892.907    32.743886   0.94324285 
   34100    211.99203   -154.19293    132350.33   -41215.368    2637.5839   -43852.952    32.769475   0.94365832 
   34200    214.03023   -269.67966    132420.74   -41216.495    2662.9429   -43879.438    32.783431   0.94315658 
   34300     210.6666   -240.07537    132478.48   -41262.509     2621.093   -43883.602    32.973984   0.94274548 
   34400    216.03825   -194.05937    132833.24   -41202.557    2687.9265   -43890.483    32.950693   0.94022773 
   34500    216.51891    -207.0208    132730.35   -41236.661    2693.9069   -43930.568    33.109607   0.94095656 
   34600    213.49995   -326.24916    132696.68   -41225.158    2656.3452   -43881.503    33.310117   0.94119531 
   34700    214.76539   -331.79865    132746.29    -41305.83    2672.0897    -43977.92     33.19748   0.94084352 
   34800    216.30422   -208.92997    132843.82   -41289.257    2691.2357   -43980.493    33.327475   0.94015281 
   34900    212.65296   -139.88884    132812.63   -41304.505    2645.8071   -43950.312      33.3584   0.94037363 
   35000    211.51993   -112.14793     132709.7   -41359.467    2631.7101   -43991.177    33.164038   0.94110299 
   35100    214.03619    -248.7101    132916.95   -41294.061    2663.0171   -43957.078    33.222591   0.93963553 
   35200    215.17119    -215.2779     132917.4   -41304.322    2677.1386   -43981.461    33.367128   0.93963233 
   35300    216.22215    -365.8825    132947.12   -41297.738    2690.2147   -43987.953    33.419702   0.93942228 
   35400    214.72389   -321.56375    132859.69   -41326.996    2671.5735   -43998.569     33.47317   0.94004052 
   35500    216.15083   -191.41007    132737.51   -41237.661    2689.3273   -43926.988    33.396188   0.94090576 
   35600    212.47135   -205.16755    132822.44   -41281.161    2643.5475   -43924.709    33.471081   0.94030416 
   35700    217.94838   -336.23894    132687.56   -41246.704    2711.6922   -43958.396    33.541252   0.94125996 
   35800    213.03519   -268.67244     132708.6   -41282.367    2650.5628    -43932.93     33.51803   0.94111078 
   35900    217.41071   -352.08961    132618.91   -41239.533    2705.0025   -43944.535    33.513672   0.94174723 
   36000    214.40127   -335.94373    132638.74   -41195.461    2667.5594    -43863.02    33.820889   0.94160642 
   36100    215.10824   -326.48595    132593.55   -41220.506    2676.3555   -43896.862    33.764815   0.94192732 
   36200     216.0693   -232.77844    132751.81   -41251.133    2688.3129   -43939.446    33.679493   0.94080446 
   36300    213.85496    -275.0477    132581.49   -41306.251    2660.7622   -43967.013    33.547093   0.94201303 
   36400    213.04096   -423.63959    132448.89   -41249.845    2650.6346   -43900.479    33.431069   0.94295614 
   36500    211.21714   -339.71316    132527.91   -41217.193    2627.9428   -43845.135     33.56391   0.94239391 
   36600    211.91935   -249.09258    132552.47   -41329.798    2636.6796   -43966.478    33.858579   0.94221924 
   36700    211.76304   -334.42089    132764.08   -41271.869    2634.7348   -43906.604    34.028584    0.9407175 
   36800    213.81442   -395.78968     132669.4   -41272.724    2660.2579   -43932.982    33.970225   0.94138883 
   36900     213.4639   -29.093372    132737.89   -41291.523    2655.8967    -43947.42     33.96587   0.94090312 
   37000    217.66769   -171.29691    132931.65   -41229.316    2708.1999   -43937.516    33.886759   0.93953161 
   37100    213.69457   -248.72405    132853.87   -41214.108    2658.7668   -43872.875    34.086458   0.94008172 
   37200    214.45386   -291.06278    132724.27   -41276.746    2668.2138   -43944.959    34.254956   0.94099965 
   37300      213.857   -195.18147    132897.06   -41262.845    2660.7876   -43923.633    34.374534   0.93977615 
   37400    213.59429   -206.23568     132864.3   -41289.738     2657.519   -43947.257     34.32033   0.94000792 
   37500    213.70003   -321.65545    132921.59   -41295.615    2658.8346   -43954.449    34.313466   0.93960278 
   37600    217.18789   -329.07831    132797.02   -41259.266    2702.2303   -43961.497    34.199704   0.94048415 
   37700    216.01176   -278.78469    132747.21   -41272.856     2687.597   -43960.453    34.331349   0.94083704 
   37800    207.56524   -249.75709    132798.57   -41371.931    2582.5062   -43954.437    34.454895   0.94047319 
   37900    212.10475   -143.13199    132841.36    -41325.86    2638.9863   -43964.846    34.493807   0.94017022 
   38000    214.58029    -91.42212       132857    -41296.98    2669.7868   -43966.766    34.339816   0.94005956 
   38100    217.97508   -162.50179    133067.22   -41246.729    2712.0244   -43958.754    34.717589   0.93857447 
   38200    213.79923   -242.34518    133073.69   -41266.552    2660.0689   -43926.621    34.632697   0.93852878 
   38300    215.17106   -181.58552    133050.91   -41206.452     2677.137   -43883.589    34.771436   0.93868946 
   38400    214.93666   -280.52678    132762.19   -41267.009    2674.2206    -43941.23    34.775409   0.94073085 
   38500    210.18124    -289.8902    132910.82   -41279.779    2615.0542   -43894.833    34.909828    0.9396789 
   38600     215.1508   -72.828911    132927.63   -41241.153     2676.885   -43918.038    34.792899   0.93956006 
   38700    213.52202   -330.30232    132991.61   -41250.333    2656.6199   -43906.953    34.636933   0.93910803 
   38800    215.70947   -292.64826    132890.43   -41280.381    2683.8359   -43964.217     34.73552   0.93982305 
   38900    216.49982   -146.22743    132961.65    -41245.35    2693.6693   -43939.019    34.976494   0.93931964 
   39000     214.4674   -135.20364    132990.43    -41292.86    2668.3823   -43961.243    35.126492   0.93911638 
   39100    217.47763    -270.9024    132852.09   -41251.297    2705.8352   -43957.132    34.890827    0.9400943 
   39200    215.58519    -284.2217    132890.89   -41278.283    2682.2896   -43960.573    34.966059   0.93981979 
   39300     214.1306   -320.18095    132933.81   -41268.798    2664.1918    -43932.99    34.972336    0.9395164 
   39400    216.81714   -233.69142    132917.02   -41223.329    2697.6174   -43920.946    35.182135   0.93963503 
   39500    215.90759   -175.22851    132784.46   -41198.503    2686.3009   -43884.804    35.027352   0.94057313 
   39600    210.06158   -409.79585    132848.28   -41233.047    2613.5654   -43846.613    35.314939   0.94012129 
   39700    214.99255   -437.38706    132859.65   -41180.259    2674.9161   -43855.175    35.229361   0.94004082 
   39800    216.81583   -321.96428    132735.23   -41231.912    2697.6011   -43929.513    35.363055   0.94092197 
   39900    214.89153   -112.12909    132909.99   -41268.285    2673.6592   -43941.944    35.513093   0.93968474 
   40000    209.47311   -485.55296    132824.47   -41284.287    2606.2437   -43890.531    35.570611   0.94028978 
   40100    217.80725   -192.26495    132966.27   -41188.022    2709.9363   -43897.958    35.696931   0.93928703 
   40200    218.58894   -290.62791    132945.89   -41210.474     2719.662   -43930.136    35.760264   0.93943102 
   40300    213.78858   -264.32602     132952.9   -41192.188    2659.9364   -43852.125    35.637812   0.93938146 
   40400    220.43384   -252.57163    132748.27   -41103.904     2742.616    -43846.52    35.675525   0.94082955 
   40500    219.61687   -420.13415    132862.69    -41128.13    2732.4513   -43860.582    35.550188    0.9400193 
   40600    211.98769   -239.31763    132607.83   -41173.377    2637.5299   -43810.907    35.433371   0.94182592 
   40700    213.86241   -383.42502    132734.94   -41216.693     2660.855   -43877.548    35.722366   0.94092399 
   40800    212.44562   -332.53402    132578.76   -41262.737    2643.2273   -43905.964    35.843721    0.9420324 
   40900    211.37172   -116.94191    132537.35   -41286.347    2629.8661   -43916.213    35.896326   0.94232676 
   41000     215.6793   -345.42874     132611.1   -41195.022    2683.4606   -43878.482    36.049027   0.94180271 
   41100    215.77132   -311.30253    132429.45    -41180.77    2684.6054   -43865.375    35.928901   0.94309453 
   41200    215.39499   -283.55744     132522.9   -41191.364    2679.9232   -43871.287    35.951692   0.94242951 
   41300    211.61704   -90.560786    132619.66   -41315.556    2632.9183   -43948.474    36.180194   0.94174194 
   41400    214.72375   -100.36814    132415.33   -41269.756    2671.5717   -43941.328     36.26778   0.94319513 
   41500    210.22938   -137.32412    132357.44   -41269.417    2615.6531   -43885.071    36.287894   0.94360763 
   41600    209.62994   -328.24618    132289.76   -41232.612     2608.195   -43840.807    36.510109   0.94409036 
   41700    215.16817   -240.11462    132229.99   -41213.175    2677.1011   -43890.276    36.575247   0.94451716 
   41800    212.49456   -382.84361    132034.97   -41214.454    2643.8364    -43858.29    36.525575   0.94591224 
   41900    216.54974   -97.812163    132120.51   -41181.125    2694.2905   -43875.416    36.395025   0.94529983 
   42000    217.90657    -136.6405    132315.71   -41160.031     2711.172   -43871.203    36.472722   0.94390523 
   42100    217.35558    -155.9389    132504.25    -41161.51    2704.3167   -43865.826    36.528626   0.94256215 
   42200    216.32425   -270.36188    132465.23   -41120.429     2691.485   -43811.914    36.657472   0.94283983 
   42300    222.11194   -280.55836    132664.74     -41103.6    2763.4948   -43867.095    36.712857   0.94142191 
   42400    213.37903   -223.84829    132439.14   -41149.005    2654.8408   -43803.846    36.915861   0.94302555 
   42500     218.3904   -277.02094    132364.13   -41140.771    2717.1918   -43857.963    36.926139   0.94355996 
   42600    214.16006   -237.16966    132424.78   -41156.206    2664.5583   -43820.765    36.857812   0.94312781 
   42700    214.86244   -195.92576    132408.98   -41169.945    2673.2972   -43843.243    36.950758   0.94324037 
   42800    215.75245   -250.74336    132317.27   -41123.018    2684.3706   -43807.388    37.057429    0.9438941 
   42900     218.7134   -307.59976    132485.95   -41190.621    2721.2105   -43911.832    37.079127   0.94269238 
   43000    215.98973   -375.00381     132406.7   -41224.402    2687.3229   -43911.725    37.226131   0.94325659 
   43100    215.65954   -180.92848    132419.72   -41215.225    2683.2147   -43898.439    37.288132   0.94316383 
   43200    213.96359   -116.26119    132367.18   -41175.878    2662.1138   -43837.992    37.304482   0.94353823 
   43300    219.66555   -266.01142     132519.9   -41181.427     2733.057   -43914.484    37.494973   0.94245085 
   43400    217.58711    -192.2874    132303.64   -41141.454    2707.1973   -43848.651    37.373959   0.94399138 
   43500    214.98292   -178.99437    132425.65   -41136.955    2674.7963   -43811.751    37.462045   0.94312159 
   43600    220.16511   -342.10002    132390.63   -41043.988    2739.2725   -43783.261    37.592023   0.94337109 
   43700    219.56531   -185.75643    132440.82   -41066.764    2731.8099   -43798.574    37.697304   0.94301358 
   43800    219.28771   -216.08108    132566.14   -41086.905    2728.3561   -43815.262    37.777698   0.94212212 
   43900    217.95422   -114.05479    132731.76   -41126.602    2711.7648   -43838.367    37.757936   0.94094655 
   44000    213.52224    -277.7254    132442.09   -41162.605    2656.6226   -43819.228    37.734725   0.94300452 
   44100    212.37839     -414.742    132416.63   -41187.956    2642.3909   -43830.347    37.965089   0.94318586 
   44200    214.35593    -131.0976    132456.71     -41221.3    2666.9952   -43888.295     37.83361   0.94290044 
   44300    214.99486   -317.42981    132543.48   -41235.824    2674.9449   -43910.769    37.882907   0.94228317 
   44400    214.21969   -347.03124    132634.72   -41202.669    2665.3002   -43867.969    38.079891   0.94163497 
   44500    213.20823   -267.47984    132639.99   -41230.899    2652.7157   -43883.615     38.22516   0.94159756 
   44600    212.94761   -180.99927    132734.99   -41291.916    2649.4731   -43941.389    38.229145   0.94092363 
   44700    211.13316   -256.77115    132553.81   -41269.659    2626.8979   -43896.557    38.042126   0.94220972 
   44800    213.00854   -332.22801    132736.22   -41233.567    2650.2312   -43883.798     37.97934   0.94091496 
   44900    213.78418    -374.0369    132597.96   -41177.866    2659.8816   -43837.748    38.270715   0.94189602 
   45000    213.55238   -296.09148    132395.24   -41167.063    2656.9976    -43824.06    38.217231   0.94333825 
   45100    215.77654   -106.34391    132399.35   -41099.807    2684.6704   -43784.477    38.148163   0.94330898 
   45200    218.74875   -302.06353    132279.92   -41156.279    2721.6503    -43877.93    38.202502   0.94416063 
   45300    214.30483   -337.50306    132148.07   -41168.886    2666.3595   -43835.246    38.170914   0.94510267 
   45400     211.3505   -292.00753    132213.14   -41142.091    2629.6021   -43771.693    38.364736   0.94463748 
   45500     214.6961    -275.1176    131988.31   -41151.793    2671.2277   -43823.021    38.403752    0.9462466 
   45600    211.93361   -241.60561    131948.99   -41143.127     2636.857   -43779.984    38.582673   0.94652857 
   45700    213.01988   -233.23323    131980.31   -41152.838    2650.3723   -43803.211    38.391989     0.946304 
   45800    217.55271   -305.52003    132008.37   -41093.907    2706.7693   -43800.676    38.565851   0.94610279 
   45900    219.26908   -197.39206    131959.64   -41049.427    2728.1242   -43777.551    38.666344    0.9464522 
   46000     219.7095   -362.89557    131947.59   -41032.006    2733.6039    -43765.61    38.762095   0.94653863 
   46100    221.06737   -241.94303    131833.32   -40985.896    2750.4983   -43736.395     38.84432   0.94735908 
   46200    219.65118   -190.58412    131897.78    -40975.64    2732.8783   -43708.518    38.924673   0.94689606 
   46300    220.69515     -207.385    132057.39   -40988.746    2745.8672   -43734.614      38.8325   0.94575165 
   46400    220.57822   -267.34523    132281.73   -41023.329    2744.4124   -43767.742    38.813651   0.94414771 
   46500    213.52425   -383.03999    132209.42   -41038.639    2656.6477   -43695.286    39.113174   0.94466412 
   46600      217.314   -210.29764    132172.23   -41023.007    2703.7993   -43726.806    39.377351   0.94492987 
   46700    217.12438   -292.20708    132166.69   -41110.494    2701.4401   -43811.934    39.457308   0.94496948 
   46800    215.31322   -276.01801    132194.66   -41167.031    2678.9058   -43845.937    39.552008   0.94476954 
   46900    217.05514   -256.68904    132519.57   -41082.758    2700.5786   -43783.337    39.601227    0.9424532 
   47000    216.91816   -265.70272    132602.69    -41074.92    2698.8743   -43773.794    39.606091   0.94186243 
   47100     217.0068   -284.94834    132593.48   -41069.825    2699.9771   -43769.802    39.739976   0.94192787 
   47200    217.12581   -190.55899    132629.15   -41131.867    2701.4579   -43833.325    39.779278   0.94167449 
   47300     212.7921   -354.43551    132504.49    -41168.84    2647.5383   -43816.378    39.820485   0.94256043 
   47400    219.66661   -276.29884    132546.78   -41129.984    2733.0702   -43863.054    39.821595   0.94225974 
   47500    215.96994    -303.8839    132591.06   -41079.854    2687.0766   -43766.931    39.934864   0.94194501 
   47600    218.14768   -410.22337    132659.91   -41048.547    2714.1719   -43762.719    40.214259   0.94145618 
   47700    216.12799   -242.55303    132451.69   -41102.797    2689.0431    -43791.84    40.254995   0.94293617 
   47800    220.93642    -346.3258    132359.06   -41111.135    2748.8691   -43860.004     40.22788   0.94359611 
   47900    212.95625   -283.70394    132275.55   -41193.633    2649.5806   -43843.214    40.246537   0.94419178 
   48000    213.88791   -227.12455    132260.05   -41210.889    2661.1722   -43872.061     40.22735   0.94430243 
   48100    215.35863   -263.97365    132352.87   -41191.835    2679.4708   -43871.306    40.311956   0.94364021 
   48200    216.51963   -314.00971    132537.58   -41224.526    2693.9158   -43918.442    40.527901   0.94232511 
   48300    211.66329   -189.69105    132375.27   -41221.275    2633.4937   -43854.769    40.629925   0.94348053 
   48400    221.96703   -165.73749    132438.76   -41142.979    2761.6919   -43904.671    40.700097   0.94302827 
   48500     217.1053    -435.1113    132488.61   -41202.193    2701.2026   -43903.396    40.676324   0.94267344 
   48600    216.99737   -320.10697    132475.12   -41217.167    2699.8599   -43917.026    40.630723   0.94276943 
   48700    215.50067   -419.90395    132362.18    -41190.02     2681.238   -43871.258    40.457435   0.94357381 
   48800    214.31567   -246.46994    132382.35   -41209.718    2666.4943   -43876.212    40.626278   0.94343009 
   48900    217.56651   -191.58482    132442.11   -41191.722     2706.941   -43898.663    40.886362   0.94300436 
   49000    216.48104   -257.36513    132457.17    -41224.81    2693.4356   -43918.246    40.860884   0.94289715 
   49100    211.16764   -140.10595    132397.57   -41220.827    2627.3269   -43848.154    40.744763   0.94332159 
   49200    214.49603   -252.50744    132699.73   -41248.976    2668.7384   -43917.714    40.730753   0.94117369 
   49300    212.75214   -405.94504     132671.3   -41200.405    2647.0411   -43847.446    40.954172   0.94137532 
   49400    217.26855   -360.88283    132614.76   -41184.681    2703.2339   -43887.915     41.05533   0.94177673 
   49500    212.94779   -256.68524     132504.8   -41199.529    2649.4754   -43849.004    41.204701   0.94255827 
   49600    216.06794   -118.85205    132552.51   -41199.841     2688.296   -43888.137    41.219189   0.94221899 
   49700    216.76341   -91.330626    132763.93   -41210.904    2696.9489   -43907.853    41.380615   0.94071853 
   49800    212.49961   -349.18684     132750.3   -41251.202    2643.8992   -43895.101    41.284777   0.94081515 
   49900    221.63202   -89.194472    132824.26   -41144.001    2757.5236   -43901.524    41.529348   0.94029124 
   50000    216.35119   -222.62719    132828.54   -41178.612    2691.8201   -43870.432    41.433267   0.94026095 
   50100    215.67781   -231.25243    132991.26   -41194.655     2683.442   -43878.097      41.6252   0.93911049 
   50200     215.2716   -198.53482    133038.45   -41233.702    2678.3879    -43912.09    41.444346   0.93877744 
   50300    216.07839   -313.85906    133054.09   -41198.768     2688.426   -43887.194    41.805922   0.93866704 
   50400    211.23519   -239.76002    133220.42   -41229.995    2628.1674   -43858.162    41.945728    0.9374951 
   50500    213.19226   -281.46871    133123.08   -41274.905     2652.517   -43927.422    41.887709   0.93818063 
   50600    215.78705   -179.96023    133200.48   -41297.257    2684.8012   -43982.059    41.973964   0.93763541 
   50700    212.03219   -326.49493    133200.57    -41304.17    2638.0836   -43942.253    42.129585   0.93763478 
   50800    212.66087     -195.064    133338.94   -41319.402    2645.9055   -43965.308     42.12514   0.93666179 
   50900    215.12879   -159.33754    133259.51   -41237.129    2676.6111    -43913.74    42.047644   0.93722013 
   51000    213.88112   -344.51333    133153.39   -41276.174    2661.0878   -43937.262    42.171621   0.93796701 
   51100    217.47568   -352.38318    133248.81   -41308.821    2705.8109   -44014.631    42.139997   0.93729539 
   51200    217.48675   -181.94842     133282.9   -41292.745    2705.9486   -43998.694    42.201349   0.93705564 
   51300    212.54493   -88.916916    133307.78   -41358.987     2644.463    -44003.45    42.337392   0.93688073 
   51400    215.39911   -187.09367    133431.19   -41357.017    2679.9745   -44036.991    42.425821   0.93601425 
   51500    212.43407   -205.78686    133412.53   -41377.774    2643.0837   -44020.857    42.412311   0.93614515 
   51600    216.96171   -209.75182     133547.2   -41323.344    2699.4162    -44022.76    42.502572   0.93520113 
   51700    216.04901   -266.83922    133604.77   -41313.777    2688.0604   -44001.837    42.507548   0.93479817 
   51800    213.61829   -264.24881     133677.2   -41350.441    2657.8177   -44008.258    42.460505   0.93429166 
   51900    212.46844   -221.98247    133426.09   -41386.686    2643.5113   -44030.197    42.678295   0.93605001 
   52000    213.80961   -151.89519    133460.51    -41400.91     2660.198   -44061.108    42.588086   0.93580859 
   52100    210.76769   -415.23384    133371.62   -41347.973    2622.3508   -43970.324    42.655054   0.93643232 
   52200    212.15102   -270.18329    133342.72    -41363.58     2639.562   -44003.142    42.810515   0.93663522 
   52300    217.00682   -252.71098    133414.36   -41341.166    2699.9774   -44041.143    42.919315   0.93613227 
   52400    212.63763   -341.66468    133428.31   -41281.288    2645.6163   -43926.904    42.894111   0.93603441 
   52500     212.9988   -254.58685    133372.92   -41279.048      2650.11   -43929.158    42.951503   0.93642314 
   52600    216.24663    -369.1505    133514.18   -41311.589    2690.5193   -44002.109     42.99252   0.93543238 
   52700     215.3767    -77.53987    133548.54   -41346.133    2679.6957   -44025.829    43.092626   0.93519177 
   52800    213.63184   -224.27652    133438.96   -41307.255    2657.9863   -43965.241    43.154527   0.93595969 
   52900     216.9517   -272.85576     133699.7   -41309.439    2699.2916   -44008.731    43.142853   0.93413441 
   53000    215.73798   -380.89772     133816.4   -41298.906    2684.1906   -43983.096    43.037734   0.93331975 
   53100    210.57981   -280.40323    133770.41   -41355.935    2620.0132   -43975.948     43.24853   0.93364061 
   53200    215.89333   -236.98998    133547.05   -41351.741    2686.1235   -44037.865    43.098036   0.93520215 
   53300     214.0122   -335.22497    133504.22   -41345.501    2662.7186    -44008.22     43.06053   0.93550217 
   53400    214.36074   -172.62345       133642   -41424.024    2667.0551   -44091.079    43.171377   0.93453771 
   53500    214.25628    -125.1655    133568.62   -41428.608    2665.7555   -44094.363    43.132568   0.93505114 
   53600    212.06743    -266.2787    133511.32   -41426.895     2638.522   -44065.417    43.165291   0.93545248 
   53700    211.72573   -321.93323    133523.13    -41447.74    2634.2706   -44082.011     43.14654   0.93536973 
   53800    216.46954   -175.59695    133467.71   -41324.968    2693.2926   -44018.261    43.043284   0.93575808 
   53900    213.91628   -269.68155    133480.09   -41367.346    2661.5252   -44028.871    43.186801    0.9356713 
   54000     215.6834   -149.01218    133294.76   -41331.223    2683.5116   -44014.734    43.361405   0.93697224 
   54100      214.951   -265.49394    133253.08   -41331.595    2674.3991   -44005.994    43.290941   0.93726532 
   54200    211.17286   -314.25983    133130.14   -41307.568    2627.3919    -43934.96     43.08694   0.93813083 
   54300    213.30474   -254.91077    133251.53   -41276.068    2653.9164   -43929.985    43.295185   0.93727626 
   54400    215.10511   -264.82599     133093.4   -41304.878    2676.3165   -43981.194    43.316841   0.93838982 
   54500    212.55679   -369.23239    133082.94   -41277.712    2644.6106   -43922.322    43.269349   0.93846358 
   54600    222.40319   -282.53781    133067.46   -41198.477    2767.1185   -43965.596    43.284282   0.93857272 
   54700    219.56316   -135.25541    133130.87   -41209.579    2731.7831   -43941.362    43.529006   0.93812567 
   54800    216.49576   -407.07012    133230.98   -41278.459    2693.6188   -43972.078     43.52008   0.93742081 
   54900    215.39095   -135.59608       133145   -41326.353     2679.873   -44006.226    43.445435   0.93802615 
   55000    212.31135   -301.20282    133218.56    -41381.18    2641.5568   -44022.737    43.383277   0.93750818 
   55100    209.61153   -276.01742    133354.61   -41348.842    2607.9659   -43956.808    43.379992   0.93655172 
   55200    211.45669   -99.448817    133467.97   -41352.773    2630.9233   -43983.696    43.616804   0.93575629 
   55300      212.947   -377.82378    133391.48    -41311.28    2649.4656   -43960.745    43.858203   0.93629285 
   55400    218.70736   -157.94198    133298.17   -41287.985    2721.1353    -44009.12     43.91771   0.93694826 
   55500    216.84947   -365.28756    133191.55   -41245.287    2698.0197   -43943.306    43.840516   0.93769828 
   55600    215.62323   -218.96619    133304.46     -41284.5     2682.763   -43967.263    43.811578   0.93690404 
   55700    222.00926   -174.70765    133301.31   -41305.168    2762.2173   -44067.386    43.784218    0.9369262 
   55800    214.16451   -382.42994    133454.99   -41317.269    2664.6136   -43981.882    43.907444    0.9358473 
   55900    218.02884   -180.49801    133474.98   -41291.295    2712.6933   -44003.989    43.833398   0.93570714 
   56000    217.30656   -185.48195    133448.83   -41280.474    2703.7067    -43984.18    43.756872   0.93589052 
   56100    216.31239   -215.11555    133597.82   -41251.367    2691.3374   -43942.705    43.865954   0.93484676 
   56200    217.70479   -382.15688    133533.74   -41261.079    2708.6615   -43969.741    43.800993    0.9352954 
   56300    219.48928   -352.12159    133574.58     -41300.2    2730.8639   -44031.064    43.988166   0.93500944 
   56400    213.32704    -145.8148    133559.44    -41279.26    2654.1939   -43933.454      44.1002    0.9351154 
   56500    213.36854   -261.35629    133559.39    -41358.06    2654.7103    -44012.77    44.051767   0.93511578 
   56600    212.22761   -36.511238    133549.04   -41375.195    2640.5149    -44015.71    44.103127   0.93518823 
   56700     209.2147   -206.47463    133749.44   -41396.799    2603.0286   -43999.828    44.311904   0.93378701 
   56800    210.66084   -184.92634    133628.84   -41333.506    2621.0214   -43954.527    44.274131   0.93462978 
   56900    217.41725   -310.68721    133603.92   -41313.941    2705.0839   -44019.025    44.407827   0.93480409 
   57000    221.27372   -321.66646    133679.61     -41276.5    2753.0657   -44029.565    44.412197    0.9342748 
   57100    216.25177   -293.24375    133643.32   -41342.429    2690.5832   -44033.013    44.297813   0.93452848 
   57200    211.57541   -308.22719    133612.62   -41388.855    2632.4004   -44021.255    44.420866   0.93474322 
   57300    211.62974   -109.75344    133561.09   -41424.106    2633.0763   -44057.183    44.445678   0.93510384 
   57400    211.06847   -388.18225    133462.74   -41443.169    2626.0931   -44069.262    44.273767   0.93579292 
   57500    207.95637   -224.15711     133531.9   -41489.168    2587.3726   -44076.541    44.465987   0.93530827 
   57600    215.62526   -229.13321    133667.49    -41454.05    2682.7882   -44136.839     44.41877   0.93435948 
   57700    211.12405   -319.95285     133578.5   -41514.257    2626.7845   -44141.041     44.42445     0.934982 
   57800    211.41646   -340.43811    133542.41   -41536.825    2630.4227   -44167.248    44.473026   0.93523463 
   57900    213.51216   -264.77283    133497.74   -41500.352    2656.4972   -44156.849    44.469206   0.93554759 
   58000    211.37817   -27.221279    133463.45   -41508.165    2629.9463   -44138.111    44.485604   0.93578794 
   58100    217.46153   -319.57826    133479.25   -41442.784    2705.6348   -44148.419    44.446294   0.93567717 
   58200    214.60789   -225.65379     133518.6   -41389.148    2670.1301   -44059.278    44.495021   0.93540142 
   58300    219.72819   -348.99396    133579.26   -41336.019    2733.8364   -44069.855    44.638925   0.93497665 
   58400    217.16497   -305.81416    133493.45   -41339.448    2701.9451   -44041.393    44.709645   0.93557765 
   58500     217.4774    -218.4225    133561.86    -41353.22    2705.8323   -44059.052    44.765886   0.93509849 
   58600    221.54191   -431.48466    133473.73   -41317.751    2756.4025   -44074.154    44.814868   0.93571588 
   58700     217.7313   -209.68949    133427.15   -41322.947    2708.9913   -44031.938    44.578163   0.93604256 
   58800    215.36387   -111.26939    133386.69   -41372.515    2679.5359    -44052.05    44.609983   0.93632649 
   58900    213.62141    -220.5034    133460.37   -41415.698    2657.8565   -44073.554    44.703872   0.93580954 
   59000    213.01714   -303.53545    133400.08   -41405.092    2650.3382    -44055.43    44.667858   0.93623248 
   59100     216.3996   -114.93836    133331.58   -41403.974    2692.4225   -44096.396    44.730038   0.93671349 
   59200    213.44963   -239.14992    133441.48   -41425.716    2655.7192   -44081.436    44.895549   0.93594205 
   59300    213.06922   -326.49229    133325.85   -41418.606    2650.9862   -44069.593    44.902801   0.93675378 
   59400    212.75503   -209.67022    133426.38   -41461.382     2647.077   -44108.459    45.126786   0.93604795 
   59500    213.60736   -293.71219     133398.5   -41423.435    2657.6816   -44081.117     45.04412   0.93624359 
   59600    216.33383    -228.7886    133360.41   -41418.683    2691.6041   -44110.287    45.152514   0.93651098 
   59700    213.76686   -156.31029     133432.7   -41431.441    2659.6661   -44091.107    45.185101   0.93600364 
   59800    213.47185   -243.74976     133356.6    -41427.02    2655.9956   -44083.016    44.983685   0.93653778 
   59900    215.48121   -363.01947    133365.24   -41401.768    2680.9959   -44082.764    45.156394   0.93647705 
   60000    212.87218   -329.16501    133266.97   -41432.243    2648.5346   -44080.778    45.169449   0.93716761 
   60100    213.46082   -117.37428    133326.18   -41388.589    2655.8584   -44044.447    45.165655   0.93675141 
   60200    213.69917   -124.84138    133634.46   -41366.621     2658.824   -44025.445    45.290813   0.93459043 
   60300    214.51901   -190.80903     133554.6   -41324.925    2669.0244    -43993.95    45.403097   0.93514929 
   60400    219.03514   -243.88524    133584.36   -41281.237    2725.2136    -44006.45    45.467756   0.93494094 
   60500    216.18768   -198.49456    133595.45   -41320.629    2689.7858   -44010.415    45.603258   0.93486333 
   60600    215.63299   -68.333777     133444.4   -41367.864    2682.8844   -44050.749    45.456629   0.93592155 
   60700    214.86768   -293.38916    133549.68   -41394.379    2673.3625   -44067.742    45.375807   0.93518375 
   60800    214.18803   -359.39868    133707.81   -41353.448    2664.9063   -44018.355    45.508584   0.93407779 
   60900    215.12408   -360.69249    133762.41   -41353.485    2676.5525   -44030.038    45.754245   0.93369649 
   61000    215.51385   -194.28314    133666.47   -41403.282     2681.402   -44084.684    45.799769   0.93436665 
   61100    213.68607    -325.7897    133656.95   -41432.653    2658.6609   -44091.314    45.715752   0.93443321 
   61200    212.02276   -224.78327    133623.12   -41436.804    2637.9662    -44074.77    45.784132   0.93466977 
   61300    214.93038   -299.98963    133472.73   -41423.044    2674.1426   -44097.186    45.823199   0.93572289 
   61400    213.04448    -248.3331    133714.92   -41453.441    2650.6784    -44104.12    45.714893   0.93402807 
   61500    210.50564   -231.94217    133509.53   -41448.555    2619.0904   -44067.646    45.722222   0.93546499 
   61600    217.27602   -292.42944    133596.41   -41412.985    2703.3268   -44116.312    45.747473   0.93485662 
   61700    215.27539   -240.58707    133665.97   -41488.181    2678.4351   -44166.616    45.858386   0.93437016 
   61800    209.42102   -165.40052    133660.23   -41554.827    2605.5957   -44160.423     45.82454   0.93441024 
   61900     213.8707   -267.99199    133640.79   -41492.939    2660.9581   -44153.897    45.792953   0.93454622 
   62000    214.27882   -171.99373    133630.53   -41446.248    2666.0359   -44112.284    45.810905   0.93461796 
   62100    212.35234   -367.43275    133511.88    -41462.43    2642.0669   -44104.497    46.032923   0.93544851 
   62200     217.8455   -309.37428    133523.49   -41422.774    2710.4121   -44133.186    45.923153   0.93536717 
   62300    211.78881    -214.2243    133550.16   -41459.493    2635.0555   -44094.549    45.993561   0.93518037 
   62400    215.42313   -192.83373    133644.15   -41404.855    2680.2733   -44085.128    45.971039   0.93452273 
   62500    215.71563   -333.13822    133509.13   -41422.751    2683.9126   -44106.663    46.091562   0.93546781 
   62600    215.31653   -295.38021    133494.92   -41429.892    2678.9469   -44108.838    45.837422   0.93556735 
   62700    208.32967   -136.50621    133465.35   -41445.051    2592.0172   -44037.068    46.001615   0.93577463 
   62800    214.91015   -198.23448     133356.2   -41432.967    2673.8908   -44106.858     45.89165   0.93654058 
   62900    214.52914   -332.64193    133489.76   -41370.862    2669.1504   -44040.013    46.001169   0.93560353 
   63000     216.7179   -341.11794    133590.26   -41338.032    2696.3827   -44034.415    46.076091   0.93489969 
   63100    215.54267   -288.40927    133546.82   -41318.028    2681.7605   -43999.789    46.296409   0.93520379 
   63200    214.98823   -94.892687    133650.86   -41342.701    2674.8624   -44017.563    46.422734   0.93447575 
   63300    218.57711   -145.84297    133746.36   -41370.575    2719.5148    -44090.09    46.340444   0.93380852 
   63400    218.43694    -344.8155    133622.48   -41311.139    2717.7709    -44028.91    46.303236   0.93467428 
   63500    214.04801    -214.1847    133618.58   -41411.603    2663.1642   -44074.767    46.379989   0.93470155 
   63600    216.37537   -328.00428    133463.97   -41432.111     2692.121   -44124.232    46.394498   0.93578436 
   63700    217.69997   -162.19725    133458.83    -41432.29    2708.6014   -44140.891     46.32419   0.93582035 
   63800     214.5164   -337.66783    133269.46   -41531.428    2668.9919    -44200.42    46.461709   0.93715011 
   63900    212.83454   -239.91519    133306.41   -41529.693    2648.0664    -44177.76    46.422618    0.9368904 
   64000    211.87473   -183.23128     133425.1   -41514.571    2636.1244   -44150.696    46.260209   0.93605696 
   64100    212.51671   -264.13996    133456.38   -41427.914    2644.1119   -44072.025    46.172916   0.93583754 
   64200    214.01657   -142.92835    133397.19   -41424.159     2662.773   -44086.932    46.385881    0.9362528 
   64300    213.91845   -183.58428    133499.54   -41324.064    2661.5522   -43985.616    46.542155   0.93553499 
   64400    217.10496    -159.8504    133457.54   -41329.688    2701.1985   -44030.886    46.448324   0.93582941 
   64500    215.42856   -59.262481    133457.69   -41320.722    2680.3409   -44001.063    46.402152   0.93582839 
   64600    216.61795   -297.64759    133313.02   -41383.106    2695.1391   -44078.245    46.433365   0.93684392 
   64700    217.38695    -214.3693     133289.4   -41409.075     2704.707   -44113.782    46.327749    0.9370099 
   64800    213.32366   -272.14411    133446.94   -41413.135    2654.1519   -44067.287    46.483717   0.93590374 
   64900    217.30792   -234.54371    133278.24   -41393.881    2703.7237   -44097.605    46.418882   0.93708838 
   65000    215.86771   -193.83796    133285.07   -41358.659    2685.8047   -44044.464    46.452434    0.9370404 
   65100    216.23747   -301.89204    133164.31    -41387.88    2690.4052   -44078.285    46.501843    0.9378901 
   65200    219.14747   -271.20815    133249.91   -41380.811    2726.6112   -44107.422    46.468692   0.93728763 
   65300    214.96801   -192.22253    133399.67   -41390.349    2674.6108   -44064.959    46.618841   0.93623536 
   65400    216.50883   -261.47696    133469.37   -41336.417    2693.7815   -44030.198    46.571832   0.93574644 
   65500    213.76154   -159.60971    133355.13   -41396.613       2659.6   -44056.213    46.689893   0.93654806 
   65600    212.09692   -417.82581    133418.24    -41435.66     2638.889   -44074.549    46.699332   0.93610508 
   65700    215.40517   -207.54192    133247.42   -41481.088    2680.0498   -44161.138    46.597002   0.93730512 
   65800    214.21332   -172.47645    133213.96   -41493.611     2665.221   -44158.832    46.501859   0.93754057 
   65900    213.58481    -197.2274    133266.81   -41462.582    2657.4011   -44119.983    46.632436   0.93716874 
   66000    216.59901   -311.84375    133337.18   -41359.791    2694.9034   -44054.695    46.761481   0.93667413 
   66100    220.10846   -308.42926    133130.26   -41309.824    2738.5676   -44048.391    46.688157      0.93813 
   66200    218.43288   -188.49247    133108.16   -41275.895    2717.7203   -43993.616    46.437435   0.93828576 
   66300     217.9894   -208.85126    133135.65   -41312.218    2712.2026   -44024.421    46.604988     0.938092 
   66400    217.96655   -296.49501    133070.58   -41355.851    2711.9183    -44067.77    46.576917   0.93855076 
   66500    211.77699   -239.02724    133007.43   -41368.234    2634.9084   -44003.142    46.672976   0.93899633 
   66600    214.16569   -287.13538    133130.82   -41391.667    2664.6284   -44056.295    46.776649   0.93812608 
   66700    212.27596   -283.35826    133295.65   -41414.761    2641.1166   -44055.878    46.797833     0.936966 
   66800    215.93615   -223.15863     133247.7   -41344.241    2686.6562   -44030.898    47.017939   0.93730319 
[...]
   84600    209.75906   -183.48035    133551.05   -41562.843    2609.8015   -44172.644    52.277909   0.93517416 
   84700    210.82179    -228.1061    133542.94   -41569.686    2623.0239    -44192.71    52.409309   0.93523094 
   84800    214.18172   -253.56329    133470.83   -41528.256    2664.8278   -44193.084    52.394018    0.9357362 
   84900    214.54148   -198.75533    133543.44   -41514.181    2669.3038   -44183.484    52.513224   0.93522746 
   85000    218.55274    -95.83674    133596.73   -41469.062    2719.2116   -44188.274    52.569013   0.93485438 
   85100    215.26579    -176.5002    133779.55   -41471.026    2678.3157   -44149.342    52.749816   0.93357688 
   85200    213.79774   -282.81307    133783.19   -41485.506    2660.0504   -44145.556    52.611977   0.93355142 
   85300     213.4454   -122.90048    133761.05   -41528.794    2655.6666   -44184.461    52.684352     0.933706 
   85400    216.84101   -185.12239    133851.77   -41522.883    2697.9144   -44220.797    52.910132   0.93307316 
   85500    215.82598   -369.76365    133733.22   -41498.401    2685.2856   -44183.686    52.705578   0.93390029 
   85600    211.11268    -289.9435    133569.77   -41471.239    2626.6431   -44097.882    52.853681   0.93504312 
   85700    212.72686    -184.8728    133563.77   -41506.256    2646.7266   -44152.983    52.903273   0.93508509 
   85800     217.8755   -255.51314    133655.81   -41516.202    2710.7854   -44226.987     53.04934   0.93444119 
   85900    218.90749   -240.04882    133547.25     -41422.6    2723.6253   -44146.225    52.936349   0.93520077 
   86000    217.23681   -293.00501    133573.99   -41475.801     2702.839    -44178.64    52.972328   0.93501355 
   86100    216.94619   -229.85558    133693.91   -41460.174     2699.223   -44159.397    53.126561   0.93417486 
   86200    218.58354   -260.50443    133869.75   -41424.776    2719.5948   -44144.371     53.10944   0.93294783 
   86300    221.22776   -197.61942    133968.71   -41475.496    2752.4939    -44227.99    53.106144    0.9322587 
   86400     215.3337   -340.56559    133881.29   -41499.975    2679.1607   -44179.136    53.155185   0.93286737 
   86500    216.35097   -231.68871    133896.94   -41493.178    2691.8173   -44184.996    53.167006   0.93275834 
   86600    219.31869   -84.594748    134031.85   -41437.927    2728.7415   -44166.668    53.331902   0.93181948 
   86700    216.79191   -267.83452    134044.66   -41425.292    2697.3035   -44122.596    53.415635   0.93173042 
   86800    213.79679   -211.54206    134118.11   -41496.488    2660.0385   -44156.527    53.303122   0.93122022 
   86900    214.43625    -193.1741    134205.38   -41454.244    2667.9947   -44122.238     53.45884   0.93061463 
   87000    214.85617   -211.90208    134160.93   -41455.108    2673.2192   -44128.328    53.645893   0.93092294 
   87100    214.16487    -312.0417    133958.01   -41495.047    2664.6182   -44159.665    53.471927   0.93233316 
   87200    217.92812   -176.55948    133978.38   -41493.402    2711.4401   -44204.842    53.474245   0.93219137 
   87300    217.84583   -200.68637     134003.5   -41502.021    2710.4163   -44212.437    53.445019   0.93201661 
   87400    216.32626   -222.15929    133871.65   -41512.734    2691.5099   -44204.244    53.491895    0.9329346 
   87500     214.8763   -168.60669    134029.34   -41518.483    2673.4697   -44191.952    53.495295   0.93183692 
   87600    213.46194    -312.7913    134006.62   -41524.338    2655.8724   -44180.211     53.50721   0.93199496 
   87700    216.43388   -277.63854    134025.25   -41534.457    2692.8489   -44227.306    53.563841   0.93186538 
   87800    217.09781   -267.40664     134083.6   -41524.149    2701.1095   -44225.258    53.769415   0.93145983 
   87900    215.43054    -322.6148    133853.66   -41537.034    2680.3655     -44217.4    53.696421   0.93305996 
   88000     211.4659   -253.25257    134043.58   -41558.198    2631.0378   -44189.236    53.645596   0.93173799 
   88100    215.01671   -299.04895    134013.02   -41492.713    2675.2166   -44167.929    53.692762   0.93195041 
   88200    215.34777   -245.99227    134016.58   -41467.788    2679.3356   -44147.123     53.75475   0.93192565 
   88300    213.96937   -305.68074    133887.56   -41496.545    2662.1857   -44158.731    53.991038   0.93282373 
   88400    212.86008   -236.58076    133766.86   -41605.526     2648.384    -44253.91    53.765493    0.9336654 
   88500    213.27937   -239.63064     133898.1   -41510.562    2653.6008   -44164.163    53.833549   0.93275031 
   88600    214.51367   -159.23255     133762.9   -41458.119    2668.9579   -44127.077    53.783057   0.93369308 
   88700    215.45014   -235.40305    133831.66   -41434.721    2680.6094    -44115.33     53.65657   0.93321337 
   88800     218.3442   -279.75332    133881.89   -41382.784    2716.6169   -44099.401    53.825654   0.93286319 
   88900    220.13967    -182.0286    133909.06   -41428.062     2738.956   -44167.018    53.707468   0.93267396 
   89000    220.89228   -317.87992    133843.44   -41420.889    2748.3199   -44169.209    53.779219   0.93313122 
   89100    208.88966   -200.86379    133990.05   -41512.124    2598.9845   -44111.109     53.81681   0.93211017 
   89200     213.9061   -249.17913    133907.02   -41548.096    2661.3986   -44209.495    53.945186   0.93268812 
   89300    213.35312   -271.61002    133745.36   -41567.219    2654.5184   -44221.737    53.797633   0.93381554 
   89400    211.33462   -416.39179    133678.02   -41587.683    2629.4044   -44217.087      53.7903   0.93428592 
   89500    209.76136   -339.45611    133608.36   -41618.267    2609.8301   -44228.097    53.920941   0.93477301 
   89600    205.78013   -230.58411    133495.59   -41655.112     2560.296   -44215.408    53.916587   0.93556264 
   89700    209.96019   -248.56604    133621.35   -41619.559    2612.3039   -44231.863    53.955241   0.93468213 
   89800    213.61815   -162.30851    133741.03   -41583.288    2657.8159   -44241.104    53.933229   0.93384573 
   89900    213.19507   -226.66539    133878.58   -41643.289     2652.552   -44295.841    54.082084   0.93288628 
   90000    210.61099    -330.7178    133880.74   -41552.802    2620.4011   -44173.204    54.106151   0.93287127 
   90100    212.38062   -100.41192    133854.59   -41568.421    2642.4187    -44210.84     54.10184   0.93305345 
   90200     212.9262   -210.90558    133833.56   -41611.525    2649.2067   -44260.731    54.077013   0.93320007 
   90300    210.61006   -300.97769    133883.67   -41620.244    2620.3896   -44240.633     54.25685   0.93285079 
   90400    212.00058   -210.13104    133952.73   -41615.062    2637.6903   -44252.753    54.581384   0.93236987 
   90500    214.16737   -385.25615    134039.94   -41577.417    2664.6492   -44242.066    54.577061   0.93176323 
   90600    216.13539   -294.05255    134012.91   -41483.572    2689.1351   -44172.707    54.365587   0.93195116 
   90700    216.16874   -385.18298    134015.67   -41495.426    2689.5501   -44184.976    54.243325   0.93193199 
   90800    211.87606   -186.87248    133776.69   -41523.472     2636.141   -44159.613    54.272374   0.93359683 
   90900    213.53383   -390.27393    133749.92   -41619.563    2656.7668    -44276.33    54.190183   0.93378364 
   91000    210.60186   -336.21287    133633.78   -41627.243    2620.2875   -44247.531    54.303702   0.93459521 
   91100     211.2762   -289.63612     133696.5   -41613.526    2628.6775   -44242.204    54.443412   0.93415675 
   91200    209.77803   -169.61495    133785.46   -41566.437    2610.0376   -44176.475    54.491257   0.93353558 
   91300    218.67099   -222.07287    133628.76   -41476.347    2720.6829    -44197.03    54.420986   0.93463033 
   91400    215.48638   -267.20072    133699.77   -41458.803    2681.0603   -44139.864    54.490724   0.93413395 
   91500    220.19439   -134.87283    133813.06   -41477.547    2739.6368   -44217.184    54.234109   0.93334305 
   91600     214.2353   -133.18615    133710.93   -41520.109    2665.4945   -44185.604     54.33838   0.93405593 
   91700    212.33115   -376.07663    133576.12    -41597.81    2641.8032   -44239.613    54.389547   0.93499865 
   91800     217.0507   -312.57423    133527.27   -41568.098    2700.5234   -44268.621    54.495287   0.93534073 
   91900    212.35697   -360.14461    133590.57    -41561.07    2642.1244   -44203.194    54.459186   0.93489749 
   92000    216.44165   -221.88562    133529.27   -41558.967    2692.9457   -44251.913    54.247992   0.93532666 
   92100    214.04722   -214.54391    133600.78    -41598.77    2663.1544   -44261.924    54.226009   0.93482605 
   92200    212.29225   -278.08923    133800.99    -41530.37    2641.3192   -44171.689    54.222822   0.93342726 
   92300    212.58352   -261.67947       133674    -41438.98    2644.9431   -44083.923    54.483666   0.93431402 
   92400    214.66057   -324.16069    133809.37   -41450.944    2670.7856    -44121.73    54.668795   0.93336878 
   92500     212.2318    -323.2859    133756.77   -41495.812    2640.5671   -44136.379    54.492003   0.93373588 
   92600     221.6726   -287.18133     133763.5   -41485.708    2758.0285   -44243.736    54.430546    0.9336889 
   92700    218.20286   -306.43601    133734.13   -41481.891    2714.8585    -44196.75    54.524148   0.93389393 
   92800    214.95643    -268.7062    133827.89   -41517.347    2674.4666   -44191.814    54.471592   0.93323965 
   92900    217.63641   -215.35578     133769.2   -41479.125    2707.8107   -44186.936    54.529741   0.93364908 
   93000    211.23077   -333.99755    133602.14   -41513.261    2628.1123   -44141.373    54.792537   0.93481653 
   93100    212.46831   -379.30397    133672.09   -41463.044    2643.5097   -44106.554    54.776503   0.93432736 
   93200    215.21144   -142.46834    133832.74   -41473.419    2677.6394   -44151.058    54.734898   0.93320579 
   93300    215.87755    -199.3144    133767.35   -41506.863    2685.9271    -44192.79    54.568679   0.93366198 
   93400    213.76468   -227.00404    133736.77   -41545.381     2659.639    -44205.02    54.730291   0.93387548 
   93500    208.64114   -167.07847    133667.67   -41593.282    2595.8924   -44189.174    54.854291   0.93435824 
   93600    210.82505   -377.75807    133667.75   -41658.951    2623.0644   -44282.015    54.782936   0.93435772 
   93700    211.69158   -229.76232     133722.3   -41622.408    2633.8457   -44256.253    54.832303   0.93397657 
   93800    213.65083   -251.94892     133747.4    -41594.13    2658.2225   -44252.353    55.039507   0.93380125 
   93900    217.04225   -155.60836    133690.67   -41574.001    2700.4183   -44274.419    54.848033   0.93419754 
   94000    218.07421   -252.68698    133883.69   -41590.851    2713.2577   -44304.109    54.804307   0.93285069 
   94100    213.11388   -271.88474    133757.05   -41598.207    2651.5419   -44249.749    54.785821   0.93373387 
   94200    212.58421    -274.6476    134005.84   -41581.525    2644.9517   -44226.476    54.960275   0.93200037 
   94300    214.27572   -281.98309    134002.18   -41524.437    2665.9974   -44190.435    55.100277   0.93202583 
   94400    218.98081   -376.14517    134092.74   -41515.751    2724.5376   -44240.289    55.250543   0.93139634 
   94500    218.04741   -166.58045    133763.63   -41463.038    2712.9244   -44175.963    54.962593   0.93368793 
   94600    217.98414   -287.23426    133851.06   -41514.548    2712.1371   -44226.685    54.901143   0.93307812 
   94700    212.43294   -85.057401     133989.7   -41549.059    2643.0696   -44192.129    54.941627   0.93211261 
   94800    211.58797   -370.17301    133894.15   -41541.088    2632.5566   -44173.645    54.926239    0.9327778 
   94900    218.00545   -177.78206    133974.84   -41508.864    2712.4023   -44221.267    55.096484   0.93221601 
   95000    216.85476   -253.95626    134020.13   -41506.167    2698.0854   -44204.253    54.962175   0.93190102 
   95100    219.43905   -325.12671    133991.29   -41518.028     2730.239   -44248.267    55.013184   0.93210158 
   95200    217.51107   -267.82037    133914.53   -41543.396    2706.2512   -44249.647    55.004084   0.93263588 
   95300    220.76697   -316.81795    133987.61   -41454.359    2746.7608    -44201.12    55.128916   0.93212716 
   95400    219.38122   -370.47974    133902.56   -41521.188    2729.5195   -44250.707    55.024303   0.93271923 
   95500    215.53884    -277.9899    133951.64   -41523.084    2681.7129   -44204.797    55.126496   0.93237746 
   95600    218.88895   -285.91327    133905.16   -41520.722    2723.3946   -44244.117    55.130039    0.9327011 
   95700    213.69992   -393.87758    133862.83   -41577.627    2658.8332    -44236.46    55.190339   0.93299602 
   95800    213.58779   -215.81138     133729.9   -41609.949    2657.4382   -44267.387    55.006618   0.93392346 
   95900     217.5847   -274.79999    133671.96   -41559.054    2707.1674   -44266.221    55.212624   0.93432826 
   96000    212.13432   -428.89177    133613.77   -41634.193    2639.3542   -44273.548    55.075783   0.93473518 
   96100    212.26192   -142.96643    133738.33   -41576.374    2640.9419   -44217.316    55.209033   0.93386457 
   96200    213.09262   -320.60612    133697.47   -41622.489    2651.2773   -44273.766    55.181531   0.93415003 
   96300    217.77456   -249.81483    133617.17   -41574.105    2709.5295   -44283.635    54.880961   0.93471142 
   96400    216.11923   -120.66186    133747.04   -41555.854    2688.9341   -44244.788     55.02074   0.93380379 
   96500    213.11142    -240.3642    133667.38   -41601.568    2651.5113   -44253.079    54.973682   0.93436026 
   96600    216.70855   -348.51039    133704.22   -41604.777    2696.2663   -44301.043    55.327702   0.93410283 
   96700     209.5691   -211.70344    133765.64   -41684.673    2607.4381   -44292.111    55.486155   0.93367393 
   96800    211.96409   -346.08645     133758.8   -41731.645    2637.2362   -44368.882    55.465742    0.9337217 
   96900    211.32509   -183.22876    133677.83   -41659.349    2629.2858   -44288.635    55.508336   0.93428723 
   97000    214.61095   -239.03211    133705.68   -41646.225    2670.1682   -44316.393    55.521785   0.93409261 
   97100    212.71457   -303.69198    133857.82   -41619.277    2646.5736   -44265.851    55.419917   0.93303098 
   97200     211.3838   -64.393759    133935.95   -41625.006    2630.0164   -44255.022    55.482128   0.93248671 
   97300    211.09874   -271.73429    134037.91   -41616.828    2626.4697   -44243.297    55.697859   0.93177736 
   97400     211.1056   -254.55897    134053.78   -41622.162     2626.555   -44248.717    55.798734   0.93166709 
   97500     214.7411   -169.01958    134174.12   -41514.525    2671.7875   -44186.313    55.924463   0.93083142 
   97600    211.77606   -258.60458    134241.64   -41578.625    2634.8968   -44213.522     55.84732   0.93036325 
   97700    216.83681   -374.86829    134113.66   -41520.006    2697.8622   -44217.868     55.69199    0.9312511 
   97800    214.18429   -289.52788    133980.81   -41494.002    2664.8598   -44158.862    55.810296    0.9321745 
   97900    212.69836   -327.64627    133835.35    -41447.95     2646.372   -44094.322    55.962851   0.93318761 
   98000    217.23471    -292.2084    133965.08   -41472.239    2702.8128   -44175.052    55.953838   0.93228393 
   98100    214.24904   -62.921317    133877.63   -41542.519    2665.6654   -44208.184    56.013217   0.93289289 
   98200    214.61381   -329.65169    133962.77   -41525.936    2670.2038    -44196.14    56.099186   0.93229999 
   98300     215.7757    -257.4007     133785.5   -41549.687    2684.6599   -44234.347    55.839981   0.93353531 
   98400    212.88654   -331.74239       133777   -41568.365    2648.7133   -44217.079    56.070749   0.93359462 
   98500    209.98772   -276.24024    133746.62   -41563.765    2612.6464   -44176.412     55.87989   0.93380672 
   98600    213.03254   -259.37455    133819.02   -41585.972    2650.5298   -44236.502    55.976458   0.93330149 
   98700    211.36064   -235.68871    133969.26   -41631.563    2629.7282   -44261.291    56.276021   0.93225486 
   98800    212.04208   -224.19403    134043.84   -41607.043    2638.2066    -44245.25    56.164681   0.93173613 
   98900     210.6564   -339.64151     134030.8   -41618.249    2620.9661   -44239.215    56.274872   0.93182682 
   99000    211.32474   -264.82683    133793.53   -41670.809    2629.2816   -44300.091    56.238548   0.93347927 
   99100    214.99395    -270.0338    134003.47   -41602.614    2674.9335   -44277.548     56.20286   0.93201687 
   99200     211.5755   -314.24011    133955.83   -41585.724    2632.4015   -44218.126    56.247116    0.9323483 
   99300    215.22923   -128.22427    133995.48   -41541.399    2677.8608   -44219.259    56.327095   0.93207241 
   99400     215.6897    -322.6111    133978.14   -41505.776    2683.5899   -44189.366    56.307347   0.93219304 
   99500    220.57149   -291.60811    134047.24   -41396.231    2744.3287   -44140.559    56.440027   0.93171253 
   99600    223.37604   -389.86786    133981.25   -41433.735    2779.2226   -44212.958    56.323892   0.93217141 
   99700    216.59613   -239.64372    133895.14    -41450.16    2694.8677   -44145.028     56.18334   0.93277093 
   99800       218.33    -281.3727    133978.89   -41462.864    2716.4403   -44179.304    56.308341   0.93218782 
   99900    213.47461   -403.28156    133893.91    -41524.27      2656.03     -44180.3    56.465329   0.93277947 
  100000    215.40703   -199.08782    133928.66   -41536.261     2680.073   -44216.334    56.582975   0.93253747 
  100100     216.4076   -344.83501    133956.16   -41461.509     2692.522   -44154.031    56.400501   0.93234603 
  100200    216.92175   -291.69695    133979.22   -41463.245     2698.919   -44162.164    56.507949   0.93218553 
  100300    217.48147   -91.730093    133872.64   -41446.239     2705.883   -44152.122    56.510709   0.93292766 
  100400    214.62154   -292.55435    133840.95   -41487.576    2670.2999   -44157.876    56.365268   0.93314854 
  100500    218.61952   -182.85104    133926.61   -41409.441    2720.0424   -44129.483    56.543193   0.93255173 
  100600    213.75705   -317.56649    133724.56   -41488.399     2659.544   -44147.943    56.466096   0.93396076 
  100630     216.3484   -204.77112     133745.9   -41471.135    2691.7854    -44162.92    56.486746   0.93381176 
Loop time of 77.0138 on 6 procs for 100000 steps with 4175 atoms

Performance: 560.939 ns/day, 0.043 hours/ns, 1298.469 timesteps/s
98.4% CPU use with 6 MPI tasks x no OpenMP threads

MPI task timing breakdown:
Section |  min time  |  avg time  |  max time  |%varavg| %total
---------------------------------------------------------------
Pair    | 58.845     | 61.881     | 63.956     |  21.7 | 80.35
Neigh   | 4.8742     | 4.928      | 5.0055     |   1.9 |  6.40
Comm    | 5.5747     | 7.6456     | 10.726     |  62.5 |  9.93
Output  | 0.16016    | 0.16093    | 0.16441    |   0.4 |  0.21
Modify  | 1.7379     | 1.775      | 1.8139     |   1.8 |  2.30
Other   |            | 0.6231     |            |       |  0.81

Nlocal:        695.833 ave         706 max         682 min
Histogram: 1 0 1 0 0 1 0 1 1 1
Nghost:        1448.67 ave        1465 max        1437 min
Histogram: 1 0 1 1 2 0 0 0 0 1
Neighs:        0.00000 ave           0 max           0 min
Histogram: 6 0 0 0 0 0 0 0 0 0
FullNghs:      19018.3 ave       19315 max       18588 min
Histogram: 1 0 0 1 0 1 0 1 0 2

Total # of neighbors = 114110
Ave neighs/atom = 27.331737
Neighbor list builds = 5333
Dangerous builds = 0

undump              1
unfix               2
unfix               3
unfix               4


################################################
#######         Run Simulation         #########
################################################

reset_timestep      0
log                 log.run_${NAME}
log                 log.run_liquid_density_MLmW
