
# Create simulation box of size 50 x 50 x 50 Angstrom
#
lattice	            sc 1
Lattice spacing in x,y,z = 1.0000000 1.0000000 1.0000000
region 	            all block 0 50 0 50 0 50 units box
create_box          1 all
Created orthogonal box = (0.0000000 0.0000000 0.0000000) to (50.000000 50.000000 50.000000)
  1 by 1 by 1 MPI processor grid

# fill box with 4175 randomly distributed atoms
#
create_atoms        1 random 4175 63782 all
Created 4175 atoms
  create_atoms CPU = 0.000 seconds
mass                1 18.015

# Define potential
#
pair_style          sw
pair_coeff          * * ML_mW.sw mW
Reading sw potential file ML_mW.sw with DATE: 2019-02-27

# Run minimization
#
minimize            1.0e-8 1.0e-8 10000 1000
WARNING: Using 'neigh_modify every 1 delay 0 check yes' setting during minimization (../min.cpp:187)
Neighbor list info ...
  update every 1 steps, delay 0 steps, check yes
  max neighbors/atom: 2000, page size: 100000
  master list distance cutoff = 6.0032907
  ghost atom cutoff = 6.0032907
  binsize = 3.0016454, bins = 17 17 17
  1 neighbor lists, perpetual/occasional/extra = 1 0 0
  (1) pair sw, perpetual
      attributes: full, newton on
      pair build: full/bin/atomonly
      stencil: full/bin/3d
      bin: standard
Per MPI rank memory allocation (min/avg/max) = 4.759 | 4.759 | 4.759 Mbytes
Step Temp E_pair E_mol TotEng Press 
       0            0    7792709.3            0    7792709.3    5898794.3 
     631            0   -45138.185            0   -45138.185   -130.57836 
Loop time of 7.368 on 1 procs for 631 steps with 4175 atoms

100.0% CPU use with 1 MPI tasks x no OpenMP threads

Minimization stats:
  Stopping criterion = max force evaluations
  Energy initial, next-to-last, final = 
      7792709.32924456  -45137.9104522973  -45138.1854596308
  Force two-norm initial, final = 2.0191930e+08 4.4741522
  Force max component initial, final = 1.0948746e+08 1.0165594
  Final line search alpha, max atom move = 0.045182713 0.045930911
  Iterations, force evaluations = 631 1000

MPI task timing breakdown:
Section |  min time  |  avg time  |  max time  |%varavg| %total
---------------------------------------------------------------
Pair    | 7.1081     | 7.1081     | 7.1081     |   0.0 | 96.47
Neigh   | 0.16445    | 0.16445    | 0.16445    |   0.0 |  2.23
Comm    | 0.01909    | 0.01909    | 0.01909    |   0.0 |  0.26
Output  | 0          | 0          | 0          |   0.0 |  0.00
Modify  | 0          | 0          | 0          |   0.0 |  0.00
Other   |            | 0.07638    |            |       |  1.04

Nlocal:        4175.00 ave        4175 max        4175 min
Histogram: 1 0 0 0 0 0 0 0 0 0
Nghost:        3825.00 ave        3825 max        3825 min
Histogram: 1 0 0 0 0 0 0 0 0 0
Neighs:        0.00000 ave           0 max           0 min
Histogram: 1 0 0 0 0 0 0 0 0 0
FullNghs:     119936.0 ave      119936 max      119936 min
Histogram: 1 0 0 0 0 0 0 0 0 0

Total # of neighbors = 119936
Ave neighs/atom = 28.727186
Neighbor list builds = 26
Dangerous builds = 0

# Add velocity/set timestep
#
velocity            all create ${TEMP} 120598 rot yes dist gaussian
velocity            all create 205 120598 rot yes dist gaussian
timestep            5.0

# Define output
#
compute	            1 all msd
thermo	            100
thermo_style        custom step temp press vol etotal ke pe c_1[4] density

# Neighbor lists
#
neigh_modify        delay 0 every 1 check yes

# Set fixes
#
fix                 1 all momentum 10 linear 1 1 1 rescale
fix                 2 all nve
fix                 3 all temp/csvr ${TEMP} ${TEMP} 500.0 928347
fix                 3 all temp/csvr 205 ${TEMP} 500.0 928347
fix                 3 all temp/csvr 205 205 500.0 928347
fix                 4 all press/berendsen iso ${PRES} ${PRES} 1000.0 modulus 20000
fix                 4 all press/berendsen iso -350 ${PRES} 1000.0 modulus 20000
fix                 4 all press/berendsen iso -350 -350 1000.0 modulus 20000

# Run 0.5 ns equilibration
#
dump                1 all custom 1000 eq.${NAME}.dump id type x y z vx vy vz
dump                1 all custom 1000 eq.liquid_density_MLmW.dump id type x y z vx vy vz
run                 100000
Per MPI rank memory allocation (min/avg/max) = 4.009 | 4.009 | 4.009 Mbytes
Step Temp Press Volume TotEng KinEng PotEng c_1[4] Density 
     631          205    802.16775       125000   -42587.596    2550.5897   -45138.185            0   0.99914793 
     700    132.62998   -297.93397    125814.84   -41807.765    1650.1691   -43457.934   0.22723457   0.99267698 
     800    164.13722   -339.31113    125678.85   -41103.179    2042.1791   -43145.358   0.56144204   0.99375103 
     900    181.64556   -393.92655    125945.61   -40685.745    2260.0161   -42945.761   0.89979656   0.99164624 
    1000    190.85638   -417.07932    125998.75   -40444.801    2374.6162   -42819.417    1.2743326   0.99122799 
    1100    200.40901   -398.18632    126165.37   -40281.308    2493.4691   -42774.777    1.6803719   0.98991894 
    1200    199.63289   -296.19731    126268.42   -40332.117    2483.8127   -42815.929    2.0517724   0.98911105 
    1300    199.52083   -238.54624    126213.02   -40327.785    2482.4185   -42810.204    2.4248087   0.98954521 
    1400    198.00665   -380.08337    126305.04   -40358.238    2463.5791   -42821.817    2.7176319   0.98882425 
    1500    204.92558   -214.71552    126311.79   -40326.071    2549.6638   -42875.735    3.0078992   0.98877148 
    1600    206.74292   -383.52126    126747.92   -40265.792    2572.2749   -42838.067    3.2873408   0.98536917 
    1700    207.21774   -301.68738    126812.53   -40313.444    2578.1826   -42891.627    3.4626566   0.98486712 
    1800    203.03181   -320.42346    126957.84       -40400    2526.1017   -42926.102    3.6687446   0.98373989 
    1900    202.04698   -382.58305    127042.19   -40406.592    2513.8486    -42920.44    4.0187896    0.9830867 
    2000    208.75657   -144.23626    127379.33   -40391.135    2597.3286   -42988.464    4.3310824   0.98048475 
    2100    207.44296    -145.2115    127528.42   -40373.937    2580.9848   -42954.922    4.5387576   0.97933852 
    2200    205.68236   -337.41882    127817.14   -40417.843    2559.0796   -42976.923    4.8007979   0.97712633 
    2300    205.32713   -253.08644    128035.77   -40407.713    2554.6599   -42962.373     5.038764   0.97545778 
    2400    209.43076   -355.68377    128241.15   -40439.468    2605.7168   -43045.184    5.3082209    0.9738956 
    2500    210.83275   -323.98695    128314.48   -40438.212    2623.1603   -43061.372    5.5634523     0.973339 
    2600    212.13866   -529.95024    128272.11   -40439.245    2639.4083   -43078.654    5.7081498   0.97366056 
    2700    207.32227   -228.64576    128485.23   -40466.453    2579.4832   -43045.936    5.9304611   0.97204549 
    2800    212.04457   -401.10981    128501.66   -40471.717    2638.2376   -43109.955    6.0705703   0.97192126 
    2900    207.72024   -354.03464    128399.72   -40577.701    2584.4347   -43162.135    6.2073409   0.97269288 
    3000    206.85482   -281.72272    128471.77   -40611.047    2573.6672   -43184.714    6.3742348   0.97214739 
    3100     208.0998   -305.14062     128488.3    -40597.69    2589.1571   -43186.847    6.5298379   0.97202231 
    3200     206.4497    -296.9854     128475.5   -40656.252    2568.6267   -43224.879     6.736076   0.97211912 
    3300     205.3282   -273.36992    128612.34   -40664.263    2554.6731   -43218.936    6.9369439   0.97108483 
    3400    205.13271   -383.95867    128929.68   -40726.175    2552.2409   -43278.416    7.1411942   0.96869465 
    3500    206.74403   -194.59291    128944.78   -40763.139    2572.2888   -43335.428    7.3189239    0.9685812 
    3600    206.01355    -428.6717    128919.23   -40828.199    2563.2002   -43391.399    7.3665515   0.96877315 
    3700    204.34033    -457.8743    128957.39   -40891.918    2542.3822     -43434.3      7.59592    0.9684865 
    3800    203.46998   -268.42896    129199.81   -40852.274    2531.5534   -43383.827    7.7451569   0.96666928 
    3900    201.39492   -487.90285    129025.25   -40876.332    2505.7357   -43382.068    7.8075746   0.96797715 
    4000    204.18141   -304.81792    128997.41   -40882.656     2540.405   -43423.061     7.941894   0.96818606 
    4100    205.37987   -322.62139    129300.49   -40859.073    2555.3161   -43414.389    8.1218834   0.96591664 
    4200    207.51923   -236.91725    129177.05   -40882.821    2581.9338   -43464.755    8.2531566   0.96683959 
    4300     205.0482   -333.13512     129198.5   -40889.683    2551.1895   -43440.872    8.3467963    0.9666791 
    4400    208.09959   -443.17321    129162.04   -40907.911    2589.1546   -43497.065    8.5621349   0.96695201 
    4500     199.3058   -307.64507    129231.04   -40908.568    2479.7431   -43388.311    8.7507882   0.96643574 
    4600    207.93422    -430.5235    129392.82   -40989.073     2587.097    -43576.17    8.9161737   0.96522739 
    4700    201.79839   -502.85469    129459.36   -40905.052    2510.7557   -43415.807    9.0210491   0.96473127 
    4800    203.85673    -408.8065    129577.17     -40962.5    2536.3653   -43498.865    9.1705325   0.96385416 
    4900    213.55612   -397.38826    129712.62    -40868.25    2657.0441   -43525.294    9.3000646   0.96284762 
    5000    208.33916   -328.94667    129784.61   -40847.067    2592.1353   -43439.203    9.5190944   0.96231359 
    5100    208.28231   -474.01122    129916.42   -40923.053    2591.4279   -43514.481    9.7068641   0.96133721 
    5200    206.17781   -403.09024    130002.68   -40987.249     2565.244   -43552.493    9.8179067   0.96069933 
    5300    205.01041   -576.18521    129994.73    -40968.34    2550.7192    -43519.06    9.9452301   0.96075808 
    5400    203.53844   -93.924384    130218.82   -41028.374    2532.4052   -43560.779    10.122383   0.95910474 
    5500    206.20189   -363.16544    130272.46   -41031.333    2565.5436   -43596.876    10.096475   0.95870983 
    5600     207.0838   -148.02117    130471.45   -41048.835    2576.5161   -43625.351    10.262052   0.95724767 
    5700     204.7858   -385.45043    130436.16   -41064.306    2547.9247   -43612.231    10.344256   0.95750668 
    5800     205.4083   -282.35717    130369.72   -41086.798    2555.6697   -43642.467     10.43311   0.95799461 
    5900    202.14595   -311.21939    130319.18    -41140.82    2515.0799     -43655.9    10.573351   0.95836612 
    6000    203.95445   -430.71224    130370.63   -41153.649    2537.5811    -43691.23    10.638407   0.95798797 
    6100    206.54828   -402.50204       130397   -41118.659    2569.8533   -43688.512    10.823469   0.95779423 
    6200    204.57714   -239.69143    130403.47   -41170.201    2545.3285   -43715.529     10.84317   0.95774667 
    6300    206.58021   -152.45558    130484.76   -41148.546    2570.2506   -43718.797    10.911521   0.95715003 
    6400    205.92169   -132.96876     130572.6   -41143.467    2562.0574   -43705.524    11.139976   0.95650613 
    6500    207.69085   -230.06428       130775   -41095.973    2584.0691   -43680.042    11.192247   0.95502571 
    6600    206.68749   -366.42328    130673.72   -41182.154    2571.5853    -43753.74    11.246319   0.95576595 
    6700    204.59973   -377.50944    130714.42   -41242.238    2545.6096   -43787.847    11.287795   0.95546834 
    6800    206.61431   -309.38687    130861.33   -41182.811    2570.6748   -43753.486    11.395305    0.9543957 
    6900    207.70758   -387.75408    131046.44   -41139.761    2584.2771   -43724.038    11.625596   0.95304759 
    7000    206.39146   -370.45721    131044.69   -41115.169    2567.9021   -43683.071    11.637764   0.95306029 
    7100    204.65179   -317.05041    131035.35    -41153.97    2546.2574   -43700.228     11.70497   0.95312824 
    7200     203.6416   -182.05899    130996.58    -41209.63    2533.6887   -43743.319    11.733554   0.95341033 
    7300    202.75071   -403.60444    131196.05   -41245.738    2522.6043   -43768.343    11.822719   0.95196076 
    7400    203.86374   -132.88534    131199.03   -41274.253    2536.4525   -43810.705    11.885261   0.95193912 
    7500    204.44611   -264.19532    131100.92   -41255.411    2543.6983   -43799.109    11.937938   0.95265156 
    7600    201.06429   -352.05568     131162.7   -41322.125     2501.622   -43823.747    12.029595   0.95220283 
    7700    205.34655   -307.29429    131246.16   -41238.214    2554.9015   -43793.116    12.055296   0.95159733 
    7800    207.38989   -328.96932    131392.14   -41225.131    2580.3245   -43805.455     12.19757   0.95054005 
    7900    204.08551   -253.55899    131427.82   -41297.382    2539.2117   -43836.593    12.398329   0.95028202 
    8000     207.7651   -219.38973    131630.89   -41286.442    2584.9928   -43871.435    12.396546   0.94881594 
    8100    201.35705   -286.57489    131637.93   -41371.425    2505.2646    -43876.69    12.366472   0.94876522 
    8200    201.62526   -292.16004    131798.08   -41382.894    2508.6016   -43891.495    12.450165   0.94761234 
    8300    202.31855   -468.29824    131815.25   -41386.317    2517.2274   -43903.544    12.436551   0.94748895 
    8400    202.71869   -395.71958    131633.69   -41348.305     2522.206   -43870.511    12.524799   0.94879583 
    8500    207.00988    -435.5347    131570.23   -41274.082    2575.5965   -43849.678    12.581667   0.94925341 
    8600    205.33472   -235.39373    131542.16   -41309.642    2554.7543   -43864.397    12.636885   0.94945602 
    8700    206.79541   -406.58195    131501.34   -41286.621    2572.9281   -43859.549    12.659437   0.94975072 
    8800    203.36041   -315.67794    131586.65   -41322.061    2530.1901   -43852.251    12.737028   0.94913498 
    8900    202.17298   -359.92601    131765.27   -41387.203    2515.4162    -43902.62    12.668343   0.94784835 
    9000     204.8354   -309.59722    131637.01   -41354.806    2548.5418   -43903.348    12.757699   0.94877185 
    9100    199.59897   -350.33972    131635.63   -41411.382    2483.3906   -43894.773    12.907697   0.94878181 
    9200    206.57982   -383.83494    131758.16   -41325.155    2570.2457   -43895.401    12.904065    0.9478995 
    9300    205.99102   -235.51891    131942.52   -41362.274      2562.92   -43925.193    13.189829   0.94657503 
    9400    204.20352   -346.95153    131840.35     -41348.6      2540.68    -43889.28    13.185234   0.94730855 
    9500    201.22668   -335.57281    131793.19   -41356.402    2503.6425   -43860.044    13.140059   0.94764751 
    9600    206.09773   -489.17439    131797.99   -41340.855    2564.2476   -43905.102    13.271365   0.94761301 
    9700    206.31773   -219.03104    131721.09   -41279.093    2566.9848   -43846.078    13.174576   0.94816627 
    9800    204.15224   -236.88187    131793.77   -41362.076     2540.042   -43902.118    13.429731   0.94764335 
    9900    200.47503   -630.46347    131767.45   -41427.712    2494.2906   -43922.002    13.500267   0.94783262 
   10000    203.87928   -552.46272    131701.34    -41443.74    2536.6459   -43980.385    13.553203   0.94830845 
   10100    204.99453   -399.06868    131687.26   -41420.042    2550.5216   -43970.563    13.653439   0.94840985 
   10200    198.81072    -380.1558    131836.56   -41467.777    2473.5834    -43941.36    13.742931   0.94733577 
   10300    200.05403   -357.05946    131830.78   -41472.379    2489.0525   -43961.432    13.823734   0.94737729 
   10400    206.98837   -252.23363    131849.45   -41409.625    2575.3288   -43984.954    13.783798   0.94724318 
   10500    204.70819   -237.43215    131783.67   -41384.204    2546.9591   -43931.163    13.864834   0.94771602 
   10600    205.41035    -286.5862     131964.1   -41337.644    2555.6953   -43893.339    13.971735    0.9464202 
   10700    207.25285   -305.85542    132148.14   -41331.296    2578.6195   -43909.915    13.915048   0.94510214 
   10800    209.97857   -408.11865    132154.23   -41326.495    2612.5326   -43939.027     14.08232   0.94505862 
   10900    204.02394   -296.22222    132126.22   -41352.552    2538.4457   -43890.997    14.164796   0.94525895 
   11000    208.26053   -343.70138    132317.56   -41354.203    2591.1569    -43945.36    14.243751   0.94389203 
   11100    201.99781   -291.05591    132364.58   -41378.556    2513.2368   -43891.793    14.261708   0.94355671 
   11200    207.18184   -239.98622    132522.23   -41379.964     2577.736     -43957.7    14.341535   0.94243429 
   11300    206.98107   -416.92544    132460.93   -41387.474     2575.238   -43962.712    14.328998   0.94287037 
   11400    204.33305   -287.63122    132588.65   -41385.659    2542.2916    -43927.95    14.399545   0.94196219 
   11500    201.99268   -454.27936    132564.78   -41412.606     2513.173   -43925.779    14.366701   0.94213175 
   11600    206.37973   -454.96393     132459.8   -41424.383    2567.7562   -43992.139     14.40846   0.94287844 
   11700    212.24821    -399.0043    132389.27   -41331.223    2640.7712   -43971.994    14.527607    0.9433808 
   11800    205.76461   -283.85264    132442.77   -41402.306    2560.1029   -43962.409    14.696743   0.94299968 
   11900    204.04079   -346.31348    132358.88   -41418.108    2538.6553   -43956.763    14.775292    0.9435974 
   12000    203.72557   -289.61779    132299.65   -41414.763    2534.7334   -43949.497    14.691398    0.9440198 
   12100    201.88858   -317.03014    132431.78   -41383.841    2511.8777   -43895.719    14.803664   0.94307798 
   12200    203.79822   -307.55276    132685.58   -41389.499    2535.6373   -43925.137    14.870407   0.94127405 
   12300    205.88146   -371.40693    132599.86   -41407.413    2561.5568    -43968.97    14.961583   0.94188254 
   12400    205.05029   -380.10465    132647.84   -41397.538    2551.2155   -43948.753    14.956696   0.94154185 
   12500     200.1786    -426.0629    132613.97   -41488.021    2490.6024   -43978.624    14.968146   0.94178232 
   12600    204.22383    -264.6817     132672.8   -41424.176    2540.9327   -43965.109    14.935638   0.94136472 
   12700    211.72486   -248.31879    132715.24   -41421.158    2634.2597   -44055.418    15.098192   0.94106367 
   12800    209.03842   -411.32929    132797.35   -41397.679    2600.8353   -43998.514     15.08408   0.94048181 
   12900    207.22264    -304.5278    132622.94   -41442.687    2578.2436   -44020.931    15.088449   0.94171863 
   13000    210.29588   -252.07917    132776.42   -41385.997    2616.4805   -44002.478    15.117884   0.94063003 
   13100     206.7991   -383.93299    132950.77   -41392.005     2572.974   -43964.979    15.313237   0.93939653 
   13200    210.56555   -377.50597    133008.99   -41300.497    2619.8358   -43920.333    15.274174   0.93898536 
   13300    212.06712   -495.05917    132975.46   -41347.997    2638.5181   -43986.515    15.206464   0.93922207 
   13400    204.91632   -302.83577    132870.05   -41422.425    2549.5486   -43971.974    15.071966   0.93996724 
   13500    204.09214   -232.93695    133105.95   -41454.702    2539.2942   -43993.996    15.175462   0.93830134 
   13600    202.32754   -435.12499    132984.85   -41490.492    2517.3393   -44007.831     15.38366   0.93915579 
   13700    206.71956   -270.68167    132963.59   -41496.553    2571.9843   -44068.537    15.484381   0.93930592 
   13800    204.54213   -317.23011    132891.73   -41420.952     2544.893   -43965.845    15.485234   0.93981385 
   13900    203.11011   -247.93487    133001.48   -41458.062    2527.0759   -43985.138    15.455918   0.93903833 
   14000    209.63378   -335.90614     132899.5   -41447.061    2608.2427   -44055.303      15.6145   0.93975895 
   14100    207.68938   -231.89033    132935.32    -41446.05    2584.0507     -44030.1    15.606823   0.93950571 
   14200    204.27402    -222.8152    132780.92   -41495.532    2541.5571   -44037.089     15.49584   0.94059819 
   14300    200.24439   -480.72714    132886.08   -41549.671    2491.4208   -44041.092    15.564948   0.93985381 
   14400    206.01117   -287.06216    132855.33   -41522.848    2563.1707   -44086.019    15.701412   0.94007133 
   14500     204.4226   -269.67197    132989.85   -41483.358    2543.4058   -44026.763    15.597361    0.9391205 
   14600    204.92739   -449.53208    133023.59   -41490.227    2549.6864   -44039.913    15.763777   0.93888227 
   14700    203.37261   -320.13252    132951.26   -41519.504     2530.342   -44049.846    15.815264   0.93939303 
   14800    200.66336   -343.97578    132892.05   -41569.232    2496.6337   -44065.866    15.756833   0.93981162 
   14900    197.72765    -261.4584    132933.51   -41634.065    2460.1079   -44094.173     15.79566   0.93951848 
   15000    197.67652    -451.9858    132918.87   -41636.377    2459.4717   -44095.849    15.728978   0.93962197 
   15100    198.76533     -381.898    132847.36   -41662.927    2473.0186   -44135.945     15.69871   0.94012774 
   15200    198.36972    -124.8773    132798.89   -41595.054    2468.0965    -44063.15    15.723935   0.94047089 
   15300    202.66661   -242.30089    133006.81   -41616.283    2521.5579   -44137.841    15.829746   0.93900073 
   15400    199.62341    -257.4548    132947.44   -41607.738    2483.6947   -44091.433    15.961414   0.93942003 
   15500    201.22815   -434.47717     132965.6   -41580.274    2503.6607   -44083.935    16.007725   0.93929172 
   15600    202.37188   -501.16647    133046.35   -41528.052    2517.8909   -44045.943     15.95737   0.93872166 
   15700    200.48749   -406.18611    133063.37   -41601.599    2494.4455   -44096.045    16.128229   0.93860163 
   15800    202.59745   -438.99196    133180.32   -41603.975    2520.6975   -44124.672    16.137517   0.93777736 
   15900     203.7212   -354.08424    133120.18   -41625.599    2534.6791   -44160.278     16.17056   0.93820104 
   16000    204.50524   -419.33219    133145.81   -41573.427     2544.434   -44117.861    16.116055   0.93802041 
   16100    207.03006   -448.19569    133132.31   -41529.554    2575.8476   -44105.402    16.152084   0.93811556 
   16200    204.26838   -425.86535    133036.77   -41608.503     2541.487    -44149.99     16.18607   0.93878926 
   16300    204.64359   -391.12277    133020.51   -41623.144    2546.1554   -44169.299    16.231173   0.93890401 
   16400    203.41203   -269.08988    133087.23   -41541.833    2530.8324   -44072.665    16.340045    0.9384333 
   16500     205.3718   -339.81515    132939.92    -41536.08    2555.2157   -44091.296    16.336691   0.93947317 
   16600    207.60106   -322.54189    132998.42   -41510.121    2582.9518   -44093.073    16.293902   0.93905999 
   16700    205.76498   -369.71951    132871.58   -41543.491    2560.1076   -44103.599    16.235491   0.93995639 
   16800    208.77773   -136.95139    132998.69   -41527.146    2597.5918   -44124.737    16.365135   0.93905809 
   16900    203.73504   -320.51843    132946.56   -41493.358    2534.8512   -44028.209    16.503682   0.93942629 
   17000    205.49799   -294.65261    132859.14   -41510.357    2556.7857   -44067.142    16.564808   0.94004439 
   17100    208.50408   -271.67712    132995.19   -41435.955    2594.1871   -44030.142    16.665676   0.93908276 
   17200    207.95818   -369.54919    133099.14   -41446.686    2587.3951   -44034.081     16.76837   0.93834934 
   17300    206.17902   -331.49797    133058.74   -41513.511     2565.259    -44078.77    16.768134   0.93863428 
   17400    205.95702   -310.26259     133064.8   -41527.448    2562.4969   -44089.945    16.697279   0.93859148 
   17500    207.23872    -385.4501     132984.6   -41520.154    2578.4437   -44098.598    16.635168   0.93915753 
   17600    203.49145   -402.14004    133147.47     -41523.3    2531.8205    -44055.12    16.678246   0.93800875 
   17700    203.03165   -339.12659    132966.08   -41537.724    2526.0997   -44063.824    16.743988   0.93928835 
   17800    203.67533    -379.0029    132959.05   -41531.644    2534.1084   -44065.753    16.904596     0.939338 
   17900     207.7595   -370.64222    132888.82   -41517.319    2584.9231   -44102.242    16.882558   0.93983445 
   18000    204.43243   -189.64567    132813.63   -41463.574    2543.5281   -44007.102    16.900004    0.9403665 
   18100    207.29952   -372.46042    132904.37   -41558.428    2579.2002   -44137.628    16.982756   0.93972449 
   18200    204.92292   -307.13742    132755.63   -41562.707    2549.6308   -44112.338    17.100432   0.94077733 
   18300    210.41678   -454.26466    132762.32   -41490.773    2617.9847   -44108.757    17.101922   0.94072994 
   18400    204.20537   -396.57711    132688.84   -41544.992     2540.703   -44085.695    16.989826   0.94125091 
   18500    209.17844    -313.1868    132764.51    -41513.31    2602.5775   -44115.888    17.231776   0.94071444 
   18600    201.56684    -348.7455    132894.93   -41560.253    2507.8747   -44068.128    17.203045   0.93979127 
   18700    209.64596   -335.16787    133048.95   -41535.754    2608.3943   -44144.148     17.28793   0.93870332 
   18800    208.91555   -471.75782    133135.95   -41514.751    2599.3066   -44114.058    17.167346   0.93808989 
   18900    203.65618    -404.0571    133013.43   -41540.935      2533.87   -44074.805    17.137716   0.93895398 
   19000    207.52178   -368.79246    133186.94    -41519.42    2581.9654   -44101.386    17.338509   0.93773076 
   19100    204.36753   -237.63963    133149.07   -41572.231    2542.7206   -44114.952    17.427171   0.93799744 
   19200    205.21543   -383.01264    133166.69   -41564.152      2553.27   -44117.422    17.491889   0.93787335 
   19300    208.19629    -386.7744    133135.03   -41500.743    2590.3577     -44091.1    17.505459    0.9380964 
   19400    208.76399   -417.23868    133178.24   -41509.408     2597.421   -44106.829    17.505872   0.93779202 
   19500    207.06574   -224.30227    133226.17   -41500.269    2576.2914    -44076.56    17.627246   0.93745467 
   19600    208.19052   -410.50026     133251.8    -41555.29    2590.2858   -44145.576    17.635315   0.93727433 
   19700    207.34253   -341.60412    133179.54   -41548.125    2579.7353    -44127.86     17.59511   0.93778286 
   19800    204.66601   -240.01198    133325.36   -41587.395    2546.4342    -44133.83     17.60871   0.93675721 
   19900    205.46953   -321.15446    133290.89   -41601.812    2556.4315   -44158.243     17.61717   0.93699942 
   20000    203.14073   -456.42743    133136.52   -41647.626    2527.4568   -44175.083    17.864591    0.9380859 
   20100    203.55472   -331.99889    133294.33    -41617.83    2532.6077   -44150.438    17.877877   0.93697526 
   20200    206.28486   -267.83486    133208.05   -41664.359    2566.5759   -44230.935    17.769603   0.93758215 
   20300    203.39314   -428.43543    133282.89   -41700.068    2530.5974   -44230.666    17.759104   0.93705569 
   20400     204.4685   -188.34826    133419.01   -41690.948    2543.9768   -44234.925    17.903171   0.93609967 
   20500     204.7863   -405.25427    133368.97   -41659.752    2547.9309   -44207.683    18.001104   0.93645087 
   20600    204.77048   -330.42822    133309.08   -41687.193     2547.734   -44234.927    17.972823   0.93687162 
   20700    205.79697   -324.54268    133510.13   -41634.465    2560.5056   -44194.971    17.949957   0.93546076 
   20800    204.96039   -383.46163    133402.11    -41634.42    2550.0969   -44184.517    18.030718   0.93621827 
   20900    203.58662   -172.50181    133377.74   -41666.103    2533.0046   -44199.107     18.10469   0.93638933 
   21000    205.79559   -390.89132    133328.42   -41750.255    2560.4883   -44310.744    18.063449   0.93673569 
   21100    201.63248   -321.17105     133430.8   -41780.692    2508.6913   -44289.383    18.168723   0.93601692 
   21200    202.51765    -263.5077    133502.11   -41741.969    2519.7045   -44261.674      18.2101   0.93551702 
   21300      203.736   -326.36441    133579.43   -41761.512    2534.8632   -44296.376    18.310085   0.93497544 
   21400    203.12542   -369.97518    133626.75   -41725.678    2527.2664   -44252.944    18.390434    0.9346444 
   21500    202.13928   -347.88154     133609.8   -41707.852     2514.997   -44222.849    18.348455   0.93476292 
   21600    205.66274   -372.63885    133592.11   -41667.845    2558.8355    -44226.68    18.261194   0.93488672 
   21700    204.32543   -276.73975    133562.07   -41653.672    2542.1968   -44195.869    18.284047   0.93509699 
   21800    201.93233   -299.59328    133529.18   -41640.385    2512.4221   -44152.807    18.392984   0.93532729 
   21900    203.29872   -275.14696    133485.64   -41656.484    2529.4226   -44185.906    18.492474   0.93563239 
   22000    205.44472   -448.86005    133460.68   -41683.598    2556.1229   -44239.721    18.444496   0.93580739 
   22100    208.59757   -510.73399    133364.44   -41637.898    2595.3503   -44233.248    18.503836   0.93648271 
   22200    203.16069   -330.95332    133409.63   -41671.381    2527.7052   -44199.086    18.651532   0.93616548 
   22300    205.72685   -259.51268     133516.8   -41648.284    2559.6331   -44207.917    18.580031   0.93541402 
   22400    207.33333   -320.11913    133602.43   -41623.223    2579.6208   -44202.843    18.495693   0.93481453 
   22500     202.6909   -325.81015     133669.1   -41626.262    2521.8602   -44148.122    18.534036   0.93434826 
   22600    206.62322   -431.45848    133590.53   -41603.948    2570.7856   -44174.734    18.654701    0.9348978 
   22700    208.32805   -306.53569    133607.53   -41602.376    2591.9969   -44194.373    18.617871   0.93477887 
   22800    208.20564   -288.61835     133591.8   -41603.624     2590.474   -44194.098    18.582817    0.9348889 
   22900    205.14353    -340.1904    133482.95   -41634.055    2552.3755   -44186.431    18.602773   0.93565123 
   23000    210.10424   -299.30074    133487.57   -41611.382    2614.0962   -44225.478    18.614918    0.9356189 
   23100    201.95825   -358.76636    133344.07   -41704.991    2512.7446   -44217.736    18.719632   0.93662573 
   23200    205.95611    -304.7764     133427.3   -41633.608    2562.4855   -44196.093    18.704229   0.93604148 
   23300    204.21287   -230.78597    133405.77   -41679.244    2540.7964   -44220.041    18.759952   0.93619257 
   23400    208.64505   -398.89607    133477.38   -41630.074    2595.9411   -44226.015      19.0289   0.93569029 
   23500    203.39444   -316.83721    133561.75   -41654.213    2530.6135   -44184.827    18.993558   0.93509921 
   23600    206.67432   -413.29933    133548.12   -41644.977    2571.4214   -44216.399    18.820776   0.93519468 
   23700    204.51634   -364.80085    133556.27   -41667.434    2544.5721   -44212.006      18.8877   0.93513759 
   23800    201.38961   -440.80026     133612.7   -41730.029    2505.6696   -44235.699    18.921793   0.93474267 
   23900    197.90583    -282.9805    133516.87   -41738.446    2462.3247   -44200.771    19.018079   0.93541356 
   24000    204.22901   -270.24101    133400.27   -41676.525    2540.9972   -44217.522    18.880731   0.93623114 
   24100    205.43921   -290.00858    133577.56    -41668.44    2556.0544   -44224.494    19.023498   0.93498859 
   24200    204.15823   -403.57134    133629.34   -41735.401    2540.1165   -44275.517    19.035136   0.93462625 
   24300    203.96547    -359.0299    133905.28   -41698.698    2537.7182   -44236.416    19.141622   0.93270026 
   24400    203.81903     -395.593    133823.49   -41755.484    2535.8962   -44291.381    19.354151   0.93327029 
   24500    201.25128   -322.87943    133865.02   -41717.931    2503.9486   -44221.879    19.244146   0.93298075 
   24600    206.14171   -431.13729    133797.65   -41724.911    2564.7948   -44289.706    19.111741   0.93345059 
   24700    205.25874   -338.91807    133681.46    -41726.22     2553.809   -44280.029    19.128851   0.93426188 
   24800    203.88925   -408.81932    133699.79   -41735.179    2536.7699   -44271.949    19.312579   0.93413381 
   24900    208.55263   -311.53007    133556.79   -41686.099    2594.7912    -44280.89    19.274624   0.93513394 
   25000    204.94396   -374.45119     133645.6    -41674.12    2549.8925   -44224.012    19.254324   0.93451253 
   25100    205.80399   -363.84428    133617.38   -41675.051    2560.5929   -44235.644    19.274948   0.93470996 
   25200    202.02887   -315.74437    133667.76   -41711.941    2513.6233   -44225.564    19.276896    0.9343576 
   25300    205.85528   -351.77143    133732.64   -41725.395     2561.231   -44286.626    19.403295    0.9339043 
   25400    206.36981   -317.47239    133829.82   -41723.833    2567.6328   -44291.466    19.456893   0.93322619 
   25500    203.30327   -445.03659    133840.18   -41685.658    2529.4791   -44215.137    19.448825   0.93315391 
   25600    203.16857   -467.42903    133742.76   -41753.798    2527.8033   -44281.601    19.684339   0.93383364 
   25700    200.61194   -435.79162    133792.02   -41781.286    2495.9939    -44277.28    19.586457   0.93348986 
   25800    205.20197   -392.04134    133709.97   -41743.738    2553.1026   -44296.841    19.514043   0.93406268 
   25900    204.54485   -232.05238    133701.07   -41709.431    2544.9268   -44254.358    19.404512   0.93412481 
   26000    205.52004   -280.83906    133754.48   -41644.263      2557.06   -44201.323    19.486025   0.93375182 
   26100    204.85514   -358.89689    133652.22   -41711.991    2548.7875   -44260.779    19.392009   0.93446629 
   26200    205.43974   -162.04981    133690.15    -41714.86    2556.0609   -44270.921    19.620084   0.93420115 
   26300     203.9997    -417.2997    133648.09   -41696.074    2538.1441   -44234.218    19.822093   0.93449516 
   26400    208.63373    -201.2586    133616.37   -41697.223    2595.8003   -44293.023    19.817907   0.93471697 
   26500    207.83301   -324.34536    133507.49   -41747.228    2585.8377   -44333.065    19.765849   0.93547925 
   26600    204.75959   -340.09171    133696.98   -41789.011    2547.5985   -44336.609    19.837934   0.93415341 
   26700    203.36074   -305.03423     133858.6   -41808.384    2530.1942   -44338.578    19.878036   0.93302553 
   26800    207.42814   -388.64067    133698.62   -41750.858    2580.8005   -44331.658    19.987356   0.93414195 
   26900    203.70298   -388.40264    133813.39   -41750.666    2534.4523   -44285.118    19.962912   0.93334078 
   27000    204.68126   -416.64099    133772.02   -41796.545    2546.6241   -44343.169    19.865989    0.9336294 
   27100     205.4738   -234.95296    133832.62   -41801.419    2556.4847   -44357.903    19.973694   0.93320666 
   27200    204.35971   -239.05072    133813.63   -41814.381    2542.6233   -44357.004    20.008958   0.93333908 
   27300    198.88438   -393.37328    133813.97    -41817.16    2474.4998    -44291.66    20.017064   0.93333669 
   27400    199.27992   -326.47183    133804.34   -41771.377     2479.421   -44250.798    19.934347   0.93340388 
   27500     207.4312   -388.15027    133795.04   -41699.449    2580.8385   -44280.288    19.974064   0.93346879 
   27600    204.43643    -242.6856    133801.69   -41722.276    2543.5778   -44265.853    20.065118   0.93342236 
   27700    201.82605   -416.75028    133774.33   -41714.862    2511.0998   -44225.962    20.034918   0.93361327 
   27800    208.99593    -312.7614    133939.97   -41661.224    2600.3067   -44261.531     20.21287   0.93245872 
   27900    204.22519   -343.44377    133896.42   -41700.027    2540.9497   -44240.976    20.235439   0.93276199 
   28000    201.18061   -386.55892    133860.84   -41754.861    2503.0692   -44257.931    20.160855    0.9330099 
   28100    205.57107   -473.20269    133850.11   -41722.159     2557.695   -44279.854    20.177278   0.93308474 
   28200    206.48606   -273.27248    133853.79   -41779.969    2569.0791   -44349.048    20.262133   0.93305908 
   28300    205.77821    -366.5267     133806.5   -41758.992    2560.2722   -44319.264    20.451508   0.93338882 
   28400    203.19239   -210.39045    133959.63   -41804.661    2528.0996   -44332.761    20.388764   0.93232183 
   28500     203.4403   -347.28493    133758.52    -41823.77    2531.1841   -44354.954    20.313847   0.93372361 
   28600    203.49628   -349.39017    133745.39   -41784.921    2531.8807   -44316.802    20.216324   0.93381528 
   28700    202.50827   -386.82215    133735.86   -41784.226    2519.5879   -44303.814    20.397717   0.93388187 
   28800    205.10781   -263.75736    133789.29   -41751.079    2551.9311   -44303.011    20.517446   0.93350886 
   28900     202.5936    -401.1182    133784.29   -41725.207    2520.6496   -44245.857    20.512138   0.93354376 
   29000    206.02376   -365.70447    133849.87   -41782.832    2563.3273   -44346.159    20.518199    0.9330864 
   29100     205.3448   -274.07506    133830.19   -41736.356    2554.8798   -44291.236    20.531051   0.93322362 
   29200    205.76597   -376.56449    133885.33   -41705.517    2560.1199   -44265.637    20.596759   0.93283928 
   29300    205.76052   -254.17967     133913.2   -41765.056     2560.052   -44325.108    20.620781   0.93264508 
   29400    207.45569   -352.94219    133799.08   -41816.259    2581.1432   -44397.402    20.810675   0.93344059 
   29500    204.74546   -277.26674    133833.57   -41836.418    2547.4227   -44383.841     20.69757   0.93320002 
   29600    204.26369   -227.22033     133937.3   -41763.665    2541.4286   -44305.094    20.694451   0.93247732 
   29700    201.88489   -267.85164    133872.92   -41789.303    2511.8318   -44301.135    20.624223    0.9329257 
   29800    203.78328     -361.395     133979.2   -41783.387    2535.4514   -44318.838    20.722899   0.93218568 
   29900    200.37625    -426.0508    134016.54   -41809.875    2493.0615   -44302.936    20.844697   0.93192594 
   30000    202.36258   -292.86272    134112.04   -41801.568    2517.7752   -44319.343    21.045252   0.93126233 
   30100    199.17165   -318.61944    134129.24   -41793.304    2478.0739   -44271.378    21.008003   0.93114294 
   30200    203.57863   -372.70073    134206.88   -41803.651    2532.9052   -44336.556    20.937936   0.93060421 
   30300    206.57432   -409.54774    134186.03   -41767.144    2570.1773   -44337.322    20.938186   0.93074884 
   30400    206.29663   -314.08423     134178.3   -41764.966    2566.7223   -44331.689    20.707961   0.93080246 
   30500    204.43463   -455.26811    134000.06   -41775.971    2543.5554   -44319.526    20.779606   0.93204058 
   30600    205.04952   -458.09527    133825.64   -41779.413    2551.2058   -44330.619    20.839658   0.93325533 
   30700    206.03809   -484.12078    133884.44   -41795.192    2563.5055   -44358.698    20.947179   0.93284546 
   30800    210.84769   -400.35897    133842.97   -41730.501    2623.3461   -44353.847    20.926435   0.93313447 
   30900    203.86413   -384.68312    133992.43   -41840.893    2536.4573   -44377.351    20.948308   0.93209365 
   31000    200.50045   -315.93398    133896.12   -41864.104    2494.6067    -44358.71      20.9836   0.93276405 
   31100    200.61227   -399.93122    133862.16   -41855.029    2495.9981   -44351.027    20.912726    0.9330007 
   31200     203.2085   -225.93807    133734.47   -41876.299    2528.3001     -44404.6    21.020229   0.93389157 
   31300    203.40872   -333.79637    133817.17    -41825.33    2530.7911   -44356.121    20.941886   0.93331436 
   31400    207.00328   -369.05524     133974.9   -41799.928    2575.5143   -44375.442     21.07781   0.93221562 
   31500    207.70288   -421.15571    134029.69   -41838.865    2584.2187   -44423.084    21.134972   0.93183454 
   31600    205.93364   -319.45263    133867.71   -41778.392     2562.206   -44340.598    21.138611   0.93296206 
   31700    204.58444    -155.5445    134014.21   -41825.987    2545.4194   -44371.407    21.156441   0.93194216 
   31800    209.05812   -288.62345    134053.64   -41769.408    2601.0805   -44370.489    21.267697   0.93166806 
   31900    207.52078   -347.09584    133959.28   -41767.057     2581.953    -44349.01    21.054662   0.93232431 
   32000    209.49999   -398.94787    133875.18   -41765.198    2606.5782   -44371.776    21.008248   0.93290999 
   32100    205.19302   -320.17911    133945.21   -41789.491    2552.9912   -44342.482    21.130563    0.9324222 
   32200    204.34471   -440.43036    133985.42   -41789.641    2542.4366   -44332.078    21.102935   0.93214244 
   32300    204.03698   -329.62736    133861.89   -41772.909    2538.6079   -44311.517    21.193633   0.93300257 
   32400    206.31681   -416.71772    133772.47   -41842.272    2566.9733   -44409.245        21.27   0.93362624 
   32500    206.15294   -305.57533    133895.53   -41838.441    2564.9345   -44403.376    21.228873   0.93276821 
   32600    210.55922      -396.08    133935.03   -41799.218     2619.757   -44418.975    21.146877   0.93249313 
   32700    202.49831   -325.78842     133919.8   -41852.462    2519.4639   -44371.926    21.277865   0.93259915 
   32800    203.17685   -293.99053    133906.02    -41876.02    2527.9062   -44403.926    21.391788   0.93269513 
   32900    203.00205   -335.90883    133883.98   -41875.155    2525.7314   -44400.887    21.300059   0.93284863 
   33000    200.78415   -320.31935    133885.68   -41932.445    2498.1365   -44430.582    21.414834   0.93283681 
   33100    205.42193   -316.00278     133836.5   -41862.987    2555.8393   -44418.826     21.34095   0.93317962 
   33200    202.69102   -275.89293    133787.48   -41894.267    2521.8616   -44416.129    21.363982    0.9335215 
   33300    206.42822   -306.88824    133923.04   -41828.941    2568.3596   -44397.301    21.450059   0.93257658 
   33400    206.80391   -246.08575    134117.93    -41897.95    2573.0338   -44470.984    21.393345   0.93122144 
   33500    202.07094    -268.0399    133944.58   -41872.129    2514.1466   -44386.276    21.395172   0.93242662 
   33600    204.60387   -459.54331    133809.74   -41844.095    2545.6611   -44389.756    21.423089   0.93336621 
   33700     207.0034   -260.46565    133772.57   -41829.694    2575.5159    -44405.21    21.428921   0.93362556 
   33800    203.89576   -415.64605    133873.35   -41822.064    2536.8508   -44358.915    21.563998   0.93292275 
   33900    206.28453    -424.7595    133828.27   -41835.449    2566.5717   -44402.021     21.55238     0.933237 
   34000    210.21055   -344.55822    133862.42   -41801.522    2615.4189   -44416.941    21.614858   0.93299887 
   34100    207.10265   -367.69539    133902.81   -41835.501    2576.7507   -44412.252     21.52663   0.93271751 
   34200    202.88278   -326.17342    133774.53   -41848.662    2524.2475    -44372.91    21.584316   0.93361185 
   34300      207.807   -95.945798    133924.73   -41898.439    2585.5141   -44483.953    21.622268   0.93256483 
   34400    204.54477   -326.58916    133928.46   -41846.051    2544.9259   -44390.977    21.610293   0.93253887 
   34500    202.72078   -363.95768    133877.32   -41876.748    2522.2319    -44398.98    21.594922   0.93289506 
   34600    205.64012   -180.94267    133947.26   -41871.718    2558.5541   -44430.272    21.727601   0.93240793 
   34700    203.72847   -362.67302    133886.18   -41956.184    2534.7695   -44490.953    21.604075   0.93283331 
   34800    201.17234   -343.13884    133863.31   -41939.382    2502.9664   -44442.348    21.668219   0.93299272 
   34900    205.20546   -255.82853    133876.95   -41939.199     2553.146   -44492.345    21.671784   0.93289765 
   35000    199.30411   -343.53511    133944.07   -42019.371     2479.722   -44499.093    21.741361   0.93243015 
   35100    200.26043   -362.01993    133964.59   -41952.997    2491.6204   -44444.617    21.786518   0.93228733 
   35200     200.3808   -402.20902     133880.9   -41950.288    2493.1181   -44443.406     21.83808   0.93287009 
   35300    202.75304   -225.28622    133818.72   -41931.252    2522.6333   -44453.885    21.676762   0.93330359 
   35400    203.04462   -246.43655    133908.79   -41945.567    2526.2611   -44471.829    21.600015   0.93267582 
   35500      203.191   -358.50661    133946.14     -41858.6    2528.0824   -44386.683    21.806974   0.93241574 
   35600    205.14926   -400.57951    133834.33   -41894.306    2552.4468   -44446.753    21.826189   0.93319472 
   35700    209.65992   -397.89501    133883.02   -41872.023     2608.568   -44480.591    21.843727   0.93285537 
   35800    204.24465     -334.864    133890.79   -41908.372    2541.1917   -44449.564     21.92197   0.93280123 
   35900    207.67156   -360.14809    133838.08   -41867.295     2583.829   -44451.124    22.030145   0.93316861 
   36000    203.66162   -324.30218    134064.44   -41835.594    2533.9377   -44369.531    22.009923   0.93159301 
   36100    206.83853    -453.2169    133926.29    -41866.67    2573.4646   -44440.134    22.049503   0.93255397 
   36200    203.41431   -522.79463    133858.46   -41891.204    2530.8607   -44422.065    21.912295   0.93302652 
   36300    207.12117   -452.10471    133915.76   -41950.989    2576.9811    -44527.97    21.932304   0.93262727 
   36400    205.71313   -469.00561    133800.24   -41899.668    2559.4625    -44459.13     21.86411   0.93343246 
   36500    205.63291   -311.18731    133863.02   -41888.392    2558.4644   -44446.857    21.947901   0.93299469 
   36600    203.11963   -428.06413    133922.34   -42003.947    2527.1944   -44531.141    22.027684   0.93258144 
   36700    203.28995   -364.30028    133866.47   -41943.688    2529.3135   -44473.002    22.218699    0.9329707 
   36800    204.48859   -330.37966    133872.84   -41932.556    2544.2269   -44476.783    22.169741   0.93292626 
   36900    203.76728    -408.1609    133993.87   -41940.214    2535.2523   -44475.467    22.171782   0.93208362 
   37000    206.06103   -332.86648    133995.15   -41879.473    2563.7909   -44443.264    22.018601   0.93207471 
   37100    203.86062   -375.90738     133864.7   -41870.743    2536.4137   -44407.156     22.03999   0.93298304 
   37200    204.76703    -318.0659     134038.8   -41915.482    2547.6911   -44463.173    22.182455   0.93177121 
   37300    209.72593   -331.08318    134132.89   -41937.633    2609.3893   -44547.022    22.283693   0.93111758 
   37400    201.87779   -473.78888    134048.03   -41973.069    2511.7435   -44484.813    22.342986   0.93170699 
   37500    203.68855   -441.61593    134074.48    -41977.43    2534.2728   -44511.702    22.176423   0.93152325 
   37600    205.72472   -415.95963    133964.51   -41932.512    2559.6066   -44492.119    22.053412   0.93228787 
   37700    205.34509   -381.75093    134051.77   -41943.246    2554.8833   -44498.129    22.016953   0.93168106 
   37800    199.95268   -257.25804    134135.13   -42035.696    2487.7915   -44523.487    22.161694   0.93110203 
   37900    202.87922   -304.33184    134103.37   -41999.088    2524.2032   -44523.291     22.12253   0.93132257 
   38000    205.99864   -237.36489    134082.71   -41965.362    2563.0147   -44528.377    22.143154   0.93146603 
   38100    200.43006   -356.50481    134063.85   -41919.674     2493.731   -44413.405    22.171543   0.93159711 
   38200    204.56703    -470.0121    133969.93   -41925.043    2545.2028   -44470.246    22.196224   0.93225021 
   38300    203.48149   -318.51386    133971.79   -41862.591    2531.6966   -44394.287    22.208693   0.93223726 
   38400    202.53953    -394.9387    133894.83   -41930.764    2519.9769   -44450.741    22.104205   0.93277306 
   38500    201.85478   -251.81216    133889.07   -41941.415    2511.4572   -44452.872    22.107771   0.93281319 
   38600    204.21413   -348.47107    133942.24   -41901.342     2540.812   -44442.154    22.174179   0.93244291 
   38700    201.06228    -245.1888       134138   -41910.759     2501.597   -44412.356    22.274862   0.93108213 
   38800    206.47222   -266.93889    134244.68   -41937.738    2568.9069   -44506.645     22.50131   0.93034221 
   38900     203.3863   -339.12361    134210.64   -41897.471    2530.5122   -44427.983    22.426714    0.9305782 
   39000    204.88411   -335.67069    134383.17   -41927.048    2549.1479   -44476.196    22.336513   0.92938344 
   39100    204.67706   -434.15152    134225.18    -41892.35    2546.5717   -44438.921    22.359366   0.93047737 
   39200     204.5607   -414.26757    134368.91    -41920.02     2545.124   -44465.144    22.311307   0.92948208 
   39300    205.26841   -539.81061    134328.78   -41920.394    2553.9293   -44474.323    22.487339   0.92975977 
   39400    207.08231   -476.05228     134246.9   -41897.057    2576.4976   -44473.554    22.465781    0.9303268 
   39500    205.73197   -218.05506     134286.7   -41868.206    2559.6968   -44427.902    22.354958   0.93005105 
   39600    207.94786   -393.56764    134424.68   -41910.699    2587.2667   -44497.966    22.297911   0.92909645 
   39700     207.9531    -340.7794    134329.34   -41870.929     2587.332   -44458.261    22.468359   0.92975583 
   39800    208.62658   -474.97026     134402.7   -41931.168    2595.7113   -44526.879    22.491794   0.92924839 
   39900    205.24815   -265.10122    134406.02   -41967.065    2553.6772   -44520.743    22.371919   0.92922543 
   40000    200.13089   -434.64521    134436.12   -41995.901    2490.0087    -44485.91    22.508217   0.92901736 
   40100    204.54857   -337.82943    134406.84   -41914.045    2544.9731   -44459.019    22.400785   0.92921974 
   40200     206.7575   -323.35824    134514.55   -41934.624    2572.4563    -44507.08    22.419064   0.92847568 
   40300    208.09782   -323.45424     134552.2   -41928.614    2589.1325   -44517.747    22.549422    0.9282159 
   40400    211.29807   -341.33346    134463.41   -41865.111    2628.9497   -44494.061    22.504411   0.92882885 
   40500    204.21555   -408.75883    134403.75   -41871.589    2540.8296   -44412.419     22.56269   0.92924112 
   40600    204.50101   -391.23244    134221.47   -41911.862    2544.3814   -44456.243    22.518812   0.93050311 
   40700    202.66877   -396.42438    134294.68   -41958.748    2521.5848   -44480.333     22.50318    0.9299958 
   40800    203.15827   -448.57825    134458.66   -41999.396    2527.6752   -44527.071    22.458946   0.92886163 
   40900    201.81467    -361.0626    134340.15   -42033.558    2510.9582   -44544.516    22.506224   0.92968102 
   41000    202.14735   -405.22783    134353.59    -41955.42    2515.0973   -44470.517    22.531896   0.92958807 
   41100    204.82538    -448.7033    134357.25   -41952.739    2548.4171   -44501.156    22.573188   0.92956272 
   41200    206.11339   -378.60947    134281.88   -41953.844    2564.4424   -44518.286     22.60634    0.9300845 
   41300    202.14691   -461.18799    134381.69   -42097.255    2515.0918   -44612.347    22.639918   0.92939364 
   41400    202.20474   -176.32496    134345.26   -42053.128    2515.8114    -44568.94    22.709611   0.92964567 
   41500    204.26416   -285.00205    134334.62   -42048.727    2541.4345   -44590.161    22.762519   0.92971933 
   41600    201.42593   -174.78801    134456.84   -42006.165    2506.1214   -44512.286    22.674902   0.92887419 
   41700    207.00879   -438.14184    134456.02   -41993.745    2575.5829   -44569.328     22.63043   0.92887989 
   41800    205.74869   -284.61391    134375.69   -42004.001    2559.9048   -44563.906    22.623227   0.92943513 
   41900    205.77711   -306.14738    134359.73   -41990.889    2560.2585   -44551.148    22.668573   0.92954556 
   42000    204.47848   -505.32248    134377.42   -41981.536    2544.1011   -44525.637     22.65571    0.9294232 
   42100    207.18574   -314.37741    134369.31   -41955.764    2577.7845   -44533.548    22.735515   0.92947932 
   42200     205.6933   -237.18814    134581.28   -41919.385    2559.2157     -44478.6     22.85992   0.92801534 
   42300    204.63658   -449.14181    134523.07   -41910.832    2546.0681   -44456.901    22.840001    0.9284169 
   42400     201.8808   -370.99806    134525.66   -41943.911    2511.7809   -44455.692    22.774125   0.92839902 
   42500    207.28312   -408.08501    134431.19   -41950.772    2578.9961   -44529.768    22.760356   0.92905142 
   42600    203.45681   -364.02218    134337.75   -41960.506    2531.3895   -44491.896    22.744783   0.92969768 
   42700    207.17645   -441.55985    134416.84   -41952.133    2577.6689   -44529.802    22.898929    0.9291506 
   42800     206.2207    -217.0873    134449.45   -41921.241    2565.7776   -44487.018    22.971822   0.92892528 
   42900    202.98157   -337.41718    134376.12   -41987.851    2525.4766   -44513.328    22.911902   0.92943221 
   43000     203.8862   -363.49991    134417.61   -42012.998    2536.7319    -44549.73    23.039086   0.92914531 
   43100    204.64255   -242.25638    134363.97   -41985.471    2546.1424   -44531.613    22.828643   0.92951621 
   43200    207.20066   -327.16551    134532.57    -41942.59    2577.9702    -44520.56     22.83637   0.92835134 
   43300    205.02134   -409.55745     134534.7   -41950.534    2550.8552   -44501.389    22.975524   0.92833662 
   43400    210.17879   -352.62438    134655.87   -41912.259    2615.0237   -44527.282    22.985579   0.92750127 
   43500    209.20566   -285.94677    134677.45   -41924.706    2602.9162   -44527.622    22.884471   0.92735264 
   43600    211.45731   -313.79043    134773.42   -41846.915    2630.9309   -44477.846    22.971041   0.92669227 
   43700    212.66515   -334.65728    134685.95   -41885.218    2645.9587   -44531.177    23.188045   0.92729413 
   43800    207.98923   -210.52808    134702.06   -41896.566    2587.7814   -44484.348    23.048274   0.92718326 
   43900     203.7043    -407.8158    134577.41   -41936.781    2534.4688   -44471.249     22.97416   0.92804201 
   44000    205.67534   -374.58854    134567.53   -41967.355    2558.9922   -44526.347    23.045355   0.92811017 
   44100    204.09784   -397.33956    134682.65   -41984.412    2539.3652   -44523.777    23.227475   0.92731687 
   44200    204.28959   -379.63066    134538.55   -42024.992    2541.7509   -44566.743    23.099233   0.92831007 
   44300    204.65126   -370.09141    134591.32   -42032.233    2546.2508   -44578.484    23.077452   0.92794608 
   44400     206.6859   -271.88454    134609.11   -41994.272    2571.5655   -44565.838    23.072372   0.92782344 
   44500    203.09135   -358.97646    134612.64   -42021.093    2526.8425   -44547.935    23.118801   0.92779912 
   44600     203.6266     -357.661    134541.11    -42059.53    2533.5021   -44593.032    23.146332   0.92829241 
   44700    204.65033   -456.78879    134491.21   -42032.113    2546.2392   -44578.352    23.159604   0.92863683 
   44800    202.48267   -385.56612    134612.71   -41995.045    2519.2694   -44514.315    23.114725   0.92779864 
   44900    207.90627   -447.61882    134558.77   -41955.649    2586.7493   -44542.398    23.033006   0.92817059 
   45000    205.95421   -249.70312    134658.71   -41953.346    2562.4619   -44515.808    23.138144   0.92748174 
   45100     206.7852   -388.37476    134661.38   -41913.258     2572.801   -44486.059    23.070639   0.92746332 
   45200    207.30687   -276.07984    134469.96   -41979.632    2579.2915   -44558.923    23.026705    0.9287836 
   45300    206.30685   -438.90072    134316.99    -41989.14    2566.8495    -44555.99    22.971884   0.92984132 
   45400    203.42562   -394.33926    134372.74   -41979.856    2531.0014   -44510.857    23.091215   0.92945557 
   45500    204.24373   -387.90968     134439.9   -41987.272    2541.1803   -44528.452    23.075648   0.92899127 
   45600    207.60751    -370.9358     134297.4    -41988.98    2583.0321   -44572.012    22.944756   0.92997698 
   45700    206.67564   -313.16033    134423.48   -41989.566    2571.4378   -44561.004    23.072284   0.92910473 
   45800    208.56262   -364.21201    134376.53   -41950.454    2594.9155    -44545.37     22.90331   0.92942933 
   45900    209.33022   -466.44539    134525.11   -41884.782    2604.4659   -44489.248    23.123421   0.92840282 
   46000    204.04822   -456.69123    134480.72   -41869.544    2538.7478   -44408.292    23.234675   0.92870928 
   46100    212.52542   -304.55783    134341.46   -41826.524    2644.2202   -44470.744    23.138774     0.929672 
   46200    214.38351    -337.8871    134373.18   -41819.194    2667.3384   -44486.533    23.109213   0.92945251 
   46300     207.7471   -358.47191    134478.57   -41840.706    2584.7689   -44425.475    23.080115    0.9287241 
   46400    207.08728   -385.78066    134500.38   -41882.512    2576.5595   -44459.072    22.994001   0.92857349 
   46500    204.75541   -356.04383    134372.14   -41899.847    2547.5466   -44447.394    23.059187   0.92945971 
   46600    212.92355   -306.07642    134483.61   -41888.474    2649.1738   -44537.648    23.110282   0.92868928 
   46700    204.50289   -325.09311    134489.42   -41962.742    2544.4048   -44507.147    22.999569    0.9286492 
   46800    202.12377   -433.74312    134343.08   -41996.543     2514.804   -44511.347    23.040626   0.92966074 
   46900     207.0509   -434.87155    134379.67   -41931.573    2576.1069    -44507.68    23.090691   0.92940761 
   47000    209.57346   -249.14753    134537.43   -41909.933    2607.4923   -44517.425    23.075003    0.9283178 
   47100    210.03155    -347.0341    134685.34   -41879.383    2613.1918   -44492.574    23.217998   0.92729831 
   47200    206.82664   -373.81096    134598.75   -41931.678    2573.3166   -44504.994    23.291993   0.92789488 
   47300    204.25454    -232.7273    134825.94   -41943.308    2541.3148   -44484.623    23.363032    0.9263313 
   47400    205.56151   -448.69641    134796.53   -41905.551     2557.576   -44463.127    23.347479   0.92653344 
   47500    211.49352   -449.28125    134831.13    -41852.05    2631.3815   -44483.432    23.408288   0.92629564 
   47600    211.17133   -463.74611    134718.84   -41820.087    2627.3729    -44447.46    23.274298   0.92706776 
   47700    205.49788   -300.38966    134715.04   -41875.456    2556.7844   -44432.241    23.199482    0.9270939 
   47800    202.88339   -371.79693    134716.75     -41894.4    2524.2551   -44418.655    23.190225    0.9270821 
   47900    206.50826   -275.58018    134549.57   -41961.299    2569.3553   -44530.654    23.166966   0.92823404 
   48000     205.4219   -217.45384    134669.27   -41988.728    2555.8389   -44544.567    23.248132   0.92740899 
   48100    207.88599   -272.95684    134673.25   -41956.909    2586.4969   -44543.406    23.328314   0.92738157 
   48200    204.25706   -241.06642    134580.31   -41997.272    2541.3462   -44538.618     23.42508   0.92802205 
   48300     204.0127   -348.48193    134670.38   -41975.834    2538.3058   -44514.139    23.336635   0.92740133 
   48400    210.12389     -332.866    134674.41   -41901.938    2614.3406   -44516.278    23.268482   0.92737359 
   48500    204.96367   -262.50231    134729.69   -41968.106    2550.1377   -44518.244    23.338511   0.92699311 
   48600    206.07033    -379.4428    134666.27   -41967.885    2563.9066   -44531.792    23.480383   0.92742967 
   48700     204.1267   -347.20134    134602.92   -41948.022    2539.7242   -44487.746    23.338429   0.92786612 
   48800    207.18264   -337.50794    134655.15   -41973.626    2577.7459   -44551.372    23.379063   0.92750622 
   48900     204.7644   -259.12673    134592.34   -41964.996    2547.6584   -44512.654    23.380276    0.9279391 
   49000    203.99189   -255.68488    134638.77   -41998.164    2538.0469   -44536.211     23.51139   0.92761909 
   49100    205.21032   -346.05566    134800.06   -42002.099    2553.2066   -44555.306     23.36382   0.92650914 
   49200    206.10689   -291.18957    134648.06   -42012.971    2564.3616   -44577.332    23.335018   0.92755507 
   49300    201.51052   -455.18336    134673.71   -41973.228     2507.174   -44480.402    23.335337   0.92737839 
   49400    207.79126   -267.40578    134711.23   -41944.728    2585.3184   -44530.047    23.538617   0.92712012 
   49500    205.69486   -298.64104    134689.02   -41978.461    2559.2351   -44537.696    23.669409     0.927273 
   49600    206.68691   -499.63448    134627.58   -41973.879     2571.578   -44545.457    23.483366   0.92769615 
   49700    204.13248   -290.45559    134673.85   -41988.157    2539.7961   -44527.953    23.559147   0.92737742 
   49800    205.68788   -387.67856    134706.51   -42035.059    2559.1483   -44594.208    23.397059   0.92715264 
   49900    209.88522   -410.01144    134776.73   -41939.956    2611.3712   -44551.328    23.359955   0.92666953 
   50000    205.69661   -403.57852    134734.63    -41980.99    2559.2569   -44540.247    23.419681   0.92695912 
   50100     209.7049   -340.81793    134692.04   -41987.754    2609.1276   -44596.882    23.423828    0.9272522 
   50200    203.92084   -305.04095    134706.12   -42024.918     2537.163   -44562.081    23.637586   0.92715531 
   50300    203.35533   -392.38183    134647.85   -41999.645    2530.1269   -44529.772    23.510325   0.92755651 
   50400    204.87398    -355.4356    134721.63   -42032.673    2549.0218   -44581.694     23.46623   0.92704853 
   50500    201.87167   -349.92341    134811.03   -42064.744    2511.6674   -44576.411    23.560595   0.92643377 
   50600    199.78608   -286.64969    134861.13    -42076.63    2485.7187   -44562.349    23.490021    0.9260896 
   50700    204.58329   -288.34258    134938.29   -42083.262    2545.4051   -44628.667     23.44523   0.92556003 
   50800    200.81723   -477.08063    134935.59   -42072.653    2498.5482   -44571.202    23.479073   0.92557856 
   50900    203.69702   -340.89602    134943.72   -42000.905    2534.3782   -44535.283    23.634288    0.9255228 
   51000    204.10318   -296.47058    135014.25   -42018.328    2539.4316   -44557.759    23.728567   0.92503932 
   51100    205.64564   -409.57435    134934.16   -42064.907    2558.6228   -44623.529    23.680783   0.92558837 
   51200    204.87848   -289.22262    134987.46    -42032.08    2549.0778   -44581.158    23.662897    0.9252229 
   51300    202.83317   -353.42305    134906.13   -42107.252    2523.6303   -44630.882    23.546625   0.92578068 
   51400    199.65131   -329.53892    134920.19   -42095.682    2484.0419   -44579.724    23.667724    0.9256842 
   51500    201.52555   -385.64924    135011.64   -42099.632     2507.361   -44606.993    23.688263    0.9250572 
   51600    208.30889   -316.32777    135077.41    -42036.97    2591.7587   -44628.729    23.688408   0.92460679 
   51700    208.30962   -334.12524    134983.78   -42041.685    2591.7677   -44633.453    23.654974   0.92524812 
   51800    204.23941   -359.09496    134997.75       -42075    2541.1265   -44616.126    23.679147   0.92515242 
   51900    203.25645   -358.56632    134885.76   -42112.484    2528.8966   -44641.381    23.634287   0.92592053 
   52000    200.42928   -378.50385    134950.57   -42131.838    2493.7213    -44625.56      23.5808   0.92547585 
   52100    204.06615   -371.90031     134853.7    -42077.27    2538.9709   -44616.241    23.661966   0.92614066 
   52200    204.15871   -366.52475    134771.47   -42101.217    2540.1225    -44641.34    23.704378   0.92670568 
   52300    199.81775   -290.18054    134856.27   -42084.198    2486.1127   -44570.311    23.839853   0.92612298 
   52400    204.98494   -344.12411    134837.31   -42036.774    2550.4024   -44587.176    23.704925    0.9262532 
   52500    204.59923   -284.67887    134792.16   -42025.295    2545.6034   -44570.899    23.675362   0.92656348 
   52600    205.39003    -310.6786    134808.76    -42051.75    2555.4425   -44607.192    23.698994    0.9264494 
   52700    200.52446   -273.37379    134794.46   -42079.689    2494.9055   -44574.595    23.752046   0.92654764 
   52800     204.2684   -371.28879    134783.89   -42047.936    2541.4872   -44589.423    23.709523   0.92662034 
   52900    205.44424    -377.6088    134827.61   -42034.873     2556.117    -44590.99    23.691113   0.92631985 
   53000     208.5562   -355.40294    134831.76   -42009.993    2594.8356   -44604.828    23.640043   0.92629131 
   53100    206.66676   -475.01924    134822.76   -42062.458    2571.3274   -44633.785    23.671581   0.92635319 
   53200    206.07721    -337.2659    134640.22    -42063.05    2563.9923   -44627.043    23.801665   0.92760912 
   53300    203.47723   -391.76148    134762.41   -42054.814    2531.6436   -44586.458    23.912791   0.92676802 
   53400    201.02799    -491.1888    134728.66   -42130.568    2501.1703   -44631.738    23.731766   0.92700019 
   53500    203.38623   -378.37831    134671.54   -42130.478    2530.5114   -44660.989    23.762694   0.92739337 
   53600    204.88667   -319.18754    134634.32   -42134.002    2549.1797   -44683.182    23.665158   0.92764971 
   53700    200.31914   -306.03223    134626.92   -42158.318    2492.3509   -44650.668    23.776825    0.9277007 
   53800    205.34251   -420.76113    134816.77   -42048.816    2554.8512   -44603.667    23.797454   0.92639435 
   53900    201.56702     -264.612    134785.82   -42104.907     2507.877   -44612.783    23.804025   0.92660704 
   54000    202.73423   -368.01438    134765.78   -42074.725    2522.3993   -44597.124    23.757344   0.92674486 
   54100    205.77516   -299.99063    134784.54   -42083.389    2560.2342   -44643.623    23.823832   0.92661584 
   54200    206.75507    -345.4865    134880.63   -42069.921    2572.4261   -44642.347    23.694158   0.92595572 
   54300    208.96489   -393.80586     134840.7   -42045.648    2599.9205   -44645.569    23.724824   0.92622995 
   54400    207.06974   -422.05766    134703.59    -42076.51    2576.3412   -44652.852    23.664771   0.92717272 
   54500    201.73334   -375.13041    134643.13   -42078.183    2509.9463    -44588.13    23.669865   0.92758904 
   54600    208.99833   -235.29291    134607.38   -41981.546    2600.3366   -44581.883     23.89988    0.9278354 
   54700    208.74795   -369.39742    134590.02   -41993.793    2597.2214   -44591.015     23.98706   0.92795507 
   54800    211.30999   -379.67604    134603.58   -42062.602    2629.0981     -44691.7     23.89841   0.92786156 
   54900    205.07179   -394.32583    134556.91   -42112.891    2551.4829   -44664.374    23.612014   0.92818343 
   55000    202.33904    -297.0209    134483.42   -42158.561    2517.4824   -44676.044    23.652794   0.92869066 
   55100    204.03855   -378.63964    134525.33   -42111.405    2538.6275   -44650.033    23.771866   0.92840129 
   55200    201.19023   -348.49596    134490.97   -42128.327    2503.1889   -44631.516    23.856012   0.92863849 
   55300    207.71384   -250.25208    134608.42   -42077.246     2584.355   -44661.602    23.865184   0.92782823 
   55400    203.67652   -228.94604    134567.81   -42060.766    2534.1231   -44594.889    23.892222    0.9281082 
   55500    208.56988   -287.79176    134611.29   -42016.413    2595.0058   -44611.419    23.831934   0.92780846 
   55600    205.32903    -346.4483    134703.77   -42052.144    2554.6835   -44606.828    23.962041   0.92717149 
   55700    206.79954   -363.30883    134620.53    -42053.36    2572.9794   -44626.339    23.822204   0.92774476 
   55800    210.20172   -314.23961     134753.2   -42070.309     2615.309   -44685.618    23.798912   0.92683133 
   55900    205.90756   -375.38895    134865.01   -42037.713    2561.8815   -44599.594    23.819455   0.92606298 
   56000    203.92998    -350.9413    134918.18   -42035.426    2537.2767   -44572.702     23.91203   0.92569801 
   56100    212.35293   -336.97867    134773.14    -42011.32    2642.0742   -44653.394     23.94302   0.92669426 
   56200    210.36442   -322.54453    134765.11   -42012.935    2617.3333   -44630.268      23.7601   0.92674941 
   56300    206.43354   -361.23122    134836.05   -42047.511    2568.4257   -44615.936    23.811397   0.92626186 
   56400    204.89109   -373.49516    134815.57   -42040.188    2549.2347   -44589.423    23.969917   0.92640256 
   56500    206.46572   -368.54881     134804.7   -42117.169     2568.826   -44685.995    23.950774   0.92647725 
   56600    202.01519   -331.46724    134860.59   -42128.096     2513.453   -44641.549    24.002693   0.92609331 
   56700    204.53591    -442.8636    134654.35    -42156.96    2544.8155   -44701.775    23.783486   0.92751172 
   56800    201.77567   -270.75158    134645.84   -42090.475    2510.4729   -44600.948    23.753732    0.9275704 
   56900    204.39471   -328.14971    134855.02   -42074.931    2543.0588    -44617.99    23.988216   0.92613156 
   57000    208.62652   -191.23016    134812.41   -42029.181    2595.7106   -44624.892    24.009524   0.92642426 
   57100    205.44235   -344.77335    134756.65   -42075.186    2556.0934   -44631.279    23.958836   0.92680763 
   57200    205.33251   -373.61089    134724.68   -42117.248    2554.7268   -44671.975    23.882956   0.92702759 
   57300    203.04564   -272.84204    134738.22   -42164.594    2526.2738   -44690.868    23.841952   0.92693443 
   57400    201.43056   -339.02923    134769.95   -42164.202    2506.1792   -44670.381    24.023957    0.9267162 
   57500     200.1352   -514.48195    134594.06   -42203.118    2490.0624    -44693.18    23.968646   0.92792718 
   57600    199.36733   -471.89916    134516.07   -42168.154    2480.5086   -44648.663    23.785853   0.92846521 
   57700    201.82599   -402.57732     134443.7   -42199.698    2511.0991   -44710.797    23.928632   0.92896502 
   57800    200.72718   -305.15718    134414.23   -42209.061    2497.4277   -44706.488    23.895516   0.92916864 
   57900    204.46586   -354.09372    134506.32   -42181.866     2543.944    -44725.81    23.883381   0.92853254 
   58000    204.14086   -389.65191    134516.12   -42166.427    2539.9003   -44706.327    23.833272   0.92846485 
   58100    203.75203   -324.53703    134579.78   -42110.267    2535.0626    -44645.33    23.794438   0.92802568 
   58200    207.03724   -319.71258    134526.23   -42052.086    2575.9369   -44628.023    23.768551   0.92839506 
   58300    206.24036   -366.93067    134395.18   -41990.419    2566.0222   -44556.441    23.880954   0.92930039 
   58400    207.22125   -257.33926    134365.74   -42004.043    2578.2263    -44582.27    23.889818     0.929504 
   58500    205.34282   -344.42625    134425.95    -41999.06    2554.8551   -44553.915    23.866764   0.92908768 
   58600    209.65027   -321.45725    134435.69   -41972.353    2608.4479   -44580.801    23.676048   0.92902036 
   58700    210.85059   -329.14689    134544.39   -41982.564    2623.3821   -44605.946    23.794059   0.92826977 
   58800    206.52405   -362.11976    134540.39   -42030.124    2569.5518   -44599.676     23.89376   0.92829735 
   58900    205.87688   -290.41205    134527.53   -42060.345    2561.4998   -44621.845    23.957152   0.92838614 
   59000    203.88432   -416.89933    134566.81   -42054.482    2536.7086   -44591.191    23.959921   0.92811512 
   59100    209.10009   -457.17559    134563.13   -42060.413    2601.6026   -44662.016     23.96808   0.92814053 
   59200    207.43424   -229.92227    134692.27   -42067.645    2580.8763   -44648.521    23.896108   0.92725062 
   59300    200.98888    -262.9972    134577.01   -42061.793    2500.6838   -44562.476    24.021336   0.92804475 
   59400    204.87297   -421.45394    134713.94    -42112.86    2549.0093   -44661.869    23.984298   0.92710146 
   59500    202.87959   -203.84666    134620.07   -42083.402    2524.2078    -44607.61    24.062009    0.9277479 
   59600     205.3386   -476.26774     134636.3   -42081.638    2554.8025   -44636.441    23.991659   0.92763611 
   59700    204.51725   -314.72914    134643.76   -42099.638    2544.5835   -44644.221    23.954084   0.92758467 
   59800     205.8776   -367.56967    134598.27   -42094.398    2561.5087   -44655.907    24.067199   0.92789816 
   59900    199.69318   -364.19223    134539.97   -42083.682    2484.5628   -44568.244    24.043441   0.92830028 
   60000    202.66308   -430.75102    134585.46   -42123.573     2521.514   -44645.087    24.016373   0.92798648 
   60100    203.16117   -213.51043    134787.96   -42076.834    2527.7111   -44604.545    24.098394   0.92659237 
   60200     208.4912   -376.11443     134828.4   -42058.614    2594.0269   -44652.641    24.143852    0.9263144 
   60300    208.25061   -379.55989    134755.14   -42024.383    2591.0335   -44615.416    24.198915     0.926818 
   60400    207.58875   -444.98558    134812.02    -41986.78    2582.7987   -44569.579    24.326531   0.92642695 
   60500    205.21778   -228.32612    134855.18   -42018.964    2553.2994   -44572.263    24.477976   0.92613046 
   60600    205.01463   -343.30024    134776.91   -42064.703    2550.7717   -44615.475    24.286251   0.92666833 
   60700    203.62789   -250.93024    134797.57    -42088.02    2533.5181   -44621.538     24.17267   0.92652629 
   60800    204.72598   -384.53726    134748.44   -42040.925    2547.1804   -44588.105    24.183725   0.92686408 
   60900    205.36043   -298.13453    134737.18   -42038.963    2555.0741   -44594.037    24.329431   0.92694158 
   61000    208.72577   -310.99688    134787.01   -42064.728    2596.9454   -44661.673    24.355785   0.92659884 
   61100    205.02631   -357.83327    134717.15   -42091.543    2550.9171    -44642.46    24.232125   0.92707941 
   61200    201.68704   -343.01545     134642.5    -42084.85    2509.3702    -44594.22    24.356375   0.92759336 
   61300    200.13941   -451.26344    134545.85   -42058.534    2490.1148   -44548.649    24.328365   0.92825969 
   61400    203.55072   -256.63786    134679.27   -42090.986     2532.558   -44623.544    24.376531   0.92734014 
   61500    200.53939   -435.71093    134684.28   -42084.922    2495.0913   -44580.013    24.308471    0.9273056 
   61600     202.5025    -396.2613     134687.2    -42039.86    2519.5161   -44559.376    24.204076   0.92728551 
   61700    201.41516   -199.69713    134700.03   -42120.276    2505.9875   -44626.263    24.408801   0.92719723 
   61800    201.52346   -299.84281    134707.72   -42180.775    2507.3349    -44688.11     24.44685    0.9271443 
   61900    200.14149   -218.30341    134640.93   -42121.861    2490.1406   -44612.002    24.454046   0.92760422 
   62000    205.12077   -318.46146    134545.72   -42090.714    2552.0924   -44642.807    24.382605   0.92826062 
   62100    202.07855   -483.08182    134477.16   -42108.664    2514.2414   -44622.906    24.297465   0.92873385 
   62200    205.42942   -440.83565    134371.55   -42066.446    2555.9325   -44622.378     24.10476   0.92946377 
   62300    202.48314   -387.53924    134448.17   -42093.063    2519.2752   -44612.338    24.287286   0.92893409 
   62400    203.03416    -377.0056    134519.55   -42044.032     2526.131   -44570.163    24.497405   0.92844118 
   62500    207.17096   -274.68679    134486.32   -42054.561    2577.6006   -44632.162    24.617111   0.92867059 
   62600    207.49798    -294.9087    134603.11   -42065.675    2581.6694   -44647.344     24.39648   0.92786482 
   62700    201.07252   -479.68508    134530.68   -42088.269    2501.7244   -44589.994    24.317292   0.92836437 
   62800    205.64554    -422.8754    134465.23   -42075.097    2558.6215   -44633.719    24.398203   0.92881626 
   62900    204.10953   -349.55827    134459.43   -42019.632    2539.5106   -44559.143    24.423974   0.92885631 
   63000     212.5722   -421.02332    134452.84   -41986.882    2644.8023   -44631.684    24.389189   0.92890186 
   63100    205.46002   -373.41019     134540.6    -41982.38    2556.3132   -44538.693    24.471043    0.9282959 
   63200    209.05931   -340.14148    134609.61   -42016.746    2601.0952   -44617.841    24.391001   0.92782003 
   63300    207.12073   -312.19365    134624.15   -42050.718    2576.9757   -44627.693    24.507049    0.9277198 
   63400     206.6934    -352.0082    134770.17   -41974.505    2571.6588   -44546.164    24.557996   0.92671462 
   63500    204.88162   -382.25935    134756.81     -42062.1    2549.1169   -44611.216    24.544936   0.92680655 
   63600    205.64596   -354.46564    134757.65   -42056.535    2558.6267   -44615.162    24.524679   0.92680077 
   63700    204.90469   -374.90507       134683   -42068.133    2549.4039   -44617.537    24.596486   0.92731443 
   63800    202.14532   -395.45435    134684.91   -42162.891     2515.072   -44677.963    24.621138    0.9273013 
   63900    201.23784   -182.36595    134725.69   -42137.912    2503.7813   -44641.693    24.435716   0.92702063 
   64000    206.26859   -208.17402    134734.84   -42129.468    2566.3734   -44695.842     24.66794   0.92695764 
   64100    207.17547    -321.6265     134676.6   -42048.308    2577.6567   -44625.965    24.603729   0.92735851 
   64200     202.7036   -500.46208    134777.01     -42037.6    2522.0181   -44559.618    24.650596   0.92666763 
   64300    209.97582   -349.81316       134750   -41961.218    2612.4984   -44573.717     24.65464   0.92685335 
   64400    210.15141   -320.06076    134767.87   -41991.847    2614.6831    -44606.53    24.674184   0.92673047 
   64500    205.82771    -491.2776    134725.19   -41992.028     2560.888   -44552.916    24.740085   0.92702404 
   64600    205.06079    -353.0906     134651.4   -42029.325     2551.346   -44580.671     24.59907   0.92753207 
   64700    206.81247   -316.33341    134624.75    -42051.73    2573.1403   -44624.871      24.5972   0.92771566 
   64800    206.08421   -285.47413    134523.97   -42058.202    2564.0794   -44622.282    24.624363   0.92841067 
   64900     204.0901   -359.40844    134594.26   -42043.399    2539.2689   -44582.668    24.656853   0.92792581 
   65000    202.40546    -313.3369    134638.93   -42011.839    2518.3087   -44530.148    24.760025   0.92761795 
   65100    202.93365   -363.05024    134805.45    -42044.82    2524.8804   -44569.701    24.855415   0.92647213 
   65200    202.28569   -314.20552     134732.1   -42036.459    2516.8186   -44553.278    24.704207   0.92697649 
   65300    205.43542   -203.50836    134806.64   -42027.305    2556.0072   -44583.312    24.610215   0.92646397 
   65400    210.95977   -175.47065    134994.52   -41977.251    2624.7406   -44601.992    24.772866   0.92517454 
   65500    204.16589   -403.87325    134916.76   -42057.351    2540.2118   -44597.563    25.100234   0.92570778 
   65600    204.05637    -375.7544    134828.06   -42089.235    2538.8492   -44628.085    24.926061   0.92631673 
   65700     203.7688   -300.62689    134753.85   -42119.063    2535.2713   -44654.334    24.730656   0.92682688 
   65800    201.67991   -210.83526    134763.31    -42121.37    2509.2816   -44630.651    24.604966   0.92676184 
   65900    204.31975   -347.70601    134736.43   -42094.154    2542.1262    -44636.28    24.698607   0.92694671 
   66000    205.98332   -346.19127    134773.95   -42001.542    2562.8241   -44564.366     24.70998   0.92668869 
   66100    211.63333    -426.3494    134934.93   -41962.606    2633.1209   -44595.727    24.968615   0.92558308 
   66200    210.00619   -409.25456    134800.25   -41931.379    2612.8762   -44544.256    24.851071   0.92650787 
   66300    206.76379   -154.53512    134772.23   -41971.932    2572.5347   -44544.466    24.748514   0.92670048 
   66400    205.62217   -411.99587    134866.75   -42016.186    2558.3307   -44574.517    24.676526   0.92605101 
   66500    206.24664   -480.91882    134780.18    -42038.11    2566.1003    -44604.21    24.730984   0.92664585 
   66600    206.05913   -446.23006    134773.06   -42060.572    2563.7673    -44624.34    24.748503    0.9266948 
   66700    203.77256   -418.87042    134852.72   -42077.605     2535.318   -44612.923    24.673196   0.92614734 
   66800     205.8954   -382.14365     134827.6   -42015.194    2561.7302   -44576.924    24.661339   0.92631994 
[...]
   84600    202.35646   -384.03802    135044.32   -42231.638    2517.6991   -44749.337     25.93621   0.92483332 
   84700    198.42707   -489.76184    135119.07    -42246.63      2468.81    -44715.44     25.91705   0.92432174 
   84800    205.16982   -350.25423    135148.77   -42216.652    2552.7027   -44769.354    25.982335   0.92411859 
   84900    203.83194   -284.14719    135061.95   -42204.252    2536.0568   -44740.309    26.096481   0.92471262 
   85000    204.56988   -325.20162    135151.05   -42161.845    2545.2382   -44707.083    26.089155     0.924103 
   85100    204.41489   -336.66561    135082.44   -42158.664    2543.3098   -44701.974    25.842937   0.92457235 
   85200    202.67464   -322.73483    135100.18   -42167.317    2521.6578   -44688.974    26.016437   0.92445096 
   85300    203.07841   -328.05659     135101.4   -42195.735    2526.6815   -44722.417    25.968741   0.92444263 
   85400    204.04808   -413.40669    135174.94   -42192.597    2538.7461   -44731.343    25.972008   0.92393971 
   85500    206.56141    -406.5029    135109.37   -42164.827    2570.0167   -44734.844    26.049647    0.9243881 
   85600    204.81292   -375.58824    135074.48   -42140.848    2548.2621    -44689.11    26.080252   0.92462688 
   85700    204.23437   -329.53001    135086.51   -42179.656    2541.0638    -44720.72     26.05423   0.92454452 
   85800    207.59421   -286.86819    135178.23   -42182.533    2582.8666   -44765.399    26.152065   0.92391721 
   85900    206.17147   -448.74776    135156.24   -42097.019     2565.165   -44662.184    26.085244    0.9240675 
   86000    207.33944   -332.24975    135137.74   -42154.502    2579.6968   -44734.199    26.065297     0.924194 
   86100     204.9481   -289.44832     135115.3    -42155.55     2549.944   -44705.494    26.129915   0.92434753 
   86200    205.66475   -404.66455    135093.75   -42132.729    2558.8605   -44691.589    26.140404   0.92449498 
   86300    203.86868   -291.90663    135051.29   -42170.232     2536.514   -44706.746    26.175149   0.92478564 
   86400    206.04743    -317.9945    135070.49   -42181.997    2563.6217   -44745.619    25.982246    0.9246542 
   86500     206.3208   -387.74017    134995.26   -42163.798     2567.023   -44730.821    25.883197   0.92516946 
   86600    204.54611   -375.29894    135154.71   -42105.515    2544.9425   -44650.458    25.919472   0.92407799 
   86700    206.01792   -228.09937       135167   -42092.316    2563.2546    -44655.57    25.998396   0.92399395 
   86800    205.19969   -345.72803    135174.53   -42148.147    2553.0742   -44701.222    26.188359   0.92394248 
   86900    203.87743   -410.38153    135271.54   -42111.145    2536.6228   -44647.768    26.256763   0.92327989 
   87000    205.00704   -292.23808    135127.57    -42118.66    2550.6774   -44669.337    26.058344   0.92426361 
   87100    206.93634    -333.9393    135236.49   -42141.019    2574.6815     -44715.7    26.017727   0.92351917 
   87200    203.95795   -440.97142    135153.72     -42140.8    2537.6246   -44678.424    25.918479   0.92408474 
   87300    203.04128   -418.85125    135312.66    -42141.65    2526.2195    -44667.87    26.029159   0.92299928 
   87400    204.70272   -369.88707    135268.98   -42153.646     2546.891   -44700.537    26.055684   0.92329735 
   87500    203.03169   -426.43759    135299.13   -42159.676    2526.1002   -44685.776    26.223315   0.92309158 
   87600    201.58936   -315.37975    135242.88   -42157.285    2508.1548    -44665.44    26.092827   0.92347553 
   87700    207.33069   -328.69771    135217.01   -42166.375    2579.5879   -44745.963     26.01618   0.92365222 
   87800    203.25611   -442.60232    135188.89   -42135.495    2528.8924   -44664.388    25.952932   0.92384437 
   87900    202.46137   -431.40201    135054.11   -42151.166    2519.0044    -44670.17     26.18883   0.92476629 
   88000    202.77106   -234.37244    135222.12   -42171.431    2522.8574   -44694.288    26.228784   0.92361729 
   88100    204.58497   -462.55509    135129.53   -42107.893     2545.426   -44653.319    26.223435   0.92425015 
   88200     206.2401    -372.6839    135171.05   -42070.844    2566.0189   -44636.863    26.184498   0.92396627 
   88300    206.60633   -386.60761    135190.63   -42120.378    2570.5755   -44690.953     26.21902   0.92383247 
   88400    203.86836   -360.44951    135178.84   -42219.958      2536.51   -44756.468    26.101606   0.92391301 
   88500    206.43553   -365.58406     135097.4   -42151.424    2568.4504   -44719.875    26.173641   0.92446996 
   88600    207.17076   -360.73408     135163.9   -42098.714    2577.5981   -44676.312    26.127652   0.92401514 
   88700    201.23472   -304.43739    135208.06   -42081.567    2503.7426   -44585.309    26.159244   0.92371333 
   88800    207.89893   -368.90868     135195.3   -42029.742    2586.6579     -44616.4    26.114999   0.92380057 
   88900    207.61975   -511.74574    135178.66   -42079.071    2583.1845   -44662.255    26.028108   0.92391424 
   89000    209.26272   -314.44431    135189.61    -42061.04    2603.6261   -44664.666    26.124614    0.9238394 
   89100     201.9657   -308.88515    135184.64   -42142.767    2512.8373   -44655.604    26.125055   0.92387336 
   89200    202.43688   -357.83759     135227.3   -42167.939    2518.6996   -44686.638     26.18431   0.92358191 
   89300    205.36143   -357.28086    135159.49   -42201.807    2555.0867   -44756.894    26.183384   0.92404529 
   89400    202.23394   -257.67271    135163.96   -42224.633    2516.1747   -44740.808    26.042319   0.92401472 
   89500    198.95835   -396.40495    135261.12   -42246.901    2475.4201   -44722.321    26.070009   0.92335103 
   89600    199.66332   -254.33032    135164.35   -42276.975    2484.1913   -44761.166    26.079917   0.92401205 
   89700    202.40854   -382.66948    135175.14   -42230.105    2518.3471   -44748.452    26.062768    0.9239383 
   89800    202.72651   -349.44958    135179.35   -42204.024    2522.3032   -44726.328    26.113841   0.92390951 
   89900    197.62907   -398.09905    135200.22   -42254.735    2458.8813   -44713.616    26.186564   0.92376693 
   90000     202.4734   -447.11899    135238.14   -42168.508     2519.154   -44687.662    26.153685   0.92350789 
   90100    200.86376   -359.19139    135187.93   -42174.608    2499.1271   -44673.735    26.105369    0.9238509 
   90200    203.40914   -540.24991    135282.96   -42211.798    2530.7965   -44742.595    26.118986   0.92320196 
   90300    202.51673   -314.65335       135240   -42221.198    2519.6931   -44740.891    26.200984    0.9234952 
   90400    200.44917   -337.80047    135186.29    -42206.94    2493.9688   -44700.909      26.1072   0.92386213 
   90500    201.00794   -354.23971    135201.05   -42174.655     2500.921   -44675.576    26.234197   0.92376128 
   90600    210.85068   -341.36635     135151.8   -42101.744    2623.3834   -44725.127    26.264893   0.92409784 
   90700    206.80974   -404.65434    135164.54   -42096.342    2573.1064   -44669.448    26.240118   0.92401081 
   90800    203.82647   -396.83324    134997.17   -42142.626    2535.9888   -44678.615    26.187755   0.92515636 
   90900    204.31274   -355.22353    134984.19    -42221.55    2542.0389   -44763.589    26.293019   0.92524534 
   91000    201.47599   -415.49004    135076.89   -42226.408    2506.7443   -44733.153    26.212224   0.92461035 
   91100    201.19387   -319.86117    135201.74   -42215.543    2503.2342   -44718.777       26.273   0.92375656 
   91200    207.10399   -443.19606     135137.3   -42190.465    2576.7673   -44767.232    26.122074   0.92419702 
   91300    207.46339   -339.88335    135062.58   -42103.172     2581.239   -44684.411    26.183575   0.92470835 
   91400    208.60365   -378.55245    135020.44   -42080.863     2595.426   -44676.289     26.35893   0.92499689 
   91500    204.05706   -371.97602    135105.44   -42092.588    2538.8578   -44631.446    26.248951   0.92441499 
   91600    201.51699    -379.1925    135106.81   -42120.004    2507.2545   -44627.258    26.266578    0.9244056 
   91700     202.0506   -375.56364    135176.87   -42197.228    2513.8936   -44711.122    26.358429   0.92392646 
   91800    203.32743   -314.70582     135211.3   -42159.119    2529.7798   -44688.898    26.325708   0.92369125 
   91900    204.38705    -384.4237    135259.03   -42153.683    2542.9634   -44696.647    26.273744    0.9233653 
   92000    206.73766   -368.86621    135027.67   -42166.505    2572.2095   -44738.714    26.164659   0.92494739 
   92100    202.23354   -288.33032       135057   -42204.011    2516.1698   -44720.181    26.180879   0.92474655 
   92200    206.78038   -325.30018    135033.15   -42143.258     2572.741   -44715.999    26.294377   0.92490985 
   92300    204.83215   -395.53017    134942.19   -42077.207    2548.5014   -44625.708     26.28563   0.92553334 
   92400    209.87041   -367.67244    135013.48   -42088.099    2611.1869   -44699.286    26.327412   0.92504463 
   92500    201.29895   -463.03402    135113.24   -42124.185    2504.5416   -44628.727    26.217182   0.92436163 
   92600    209.88569   -350.91641    134989.74   -42116.108     2611.377   -44727.485     26.27677   0.92520731 
   92700    207.49256   -341.58758    135056.73   -42111.655    2581.6019   -44693.257    26.205161   0.92474838 
   92800     205.4308   -438.34796    134984.98   -42155.922    2555.9497   -44711.871    26.224436   0.92523993 
   92900     205.3865   -244.31764     135125.9    -42120.12    2555.3985   -44675.519    26.220033   0.92427502 
   93000    205.31622   -364.56786    134926.17   -42157.072    2554.5241   -44711.596    26.299824   0.92564322 
   93100    209.82905   -299.64087    134866.59   -42099.921    2610.6724   -44710.593    26.231925   0.92605213 
   93200    204.74511    -219.1543    134801.24   -42121.993    2547.4184   -44669.411    26.123913   0.92650106 
   93300    203.64942   -247.90576    134935.03   -42149.389     2533.786   -44683.175    26.208718    0.9255824 
   93400    204.18045     -439.563    134986.93   -42165.263    2540.3929   -44705.656    26.344399   0.92522651 
   93500    202.05902   -210.81033    134977.16   -42198.277    2513.9983   -44712.275    26.256822   0.92529355 
   93600    202.35089   -278.22766    135000.96   -42263.972    2517.6298   -44781.602    26.271069   0.92513037 
   93700    201.12835   -384.74373    135003.51   -42230.133    2502.4191   -44732.552    26.150168   0.92511292 
   93800    202.53848   -266.05767    134999.52   -42193.008    2519.9638   -44712.972    26.038321   0.92514027 
   93900    203.32767   -350.86677    135080.27   -42183.295    2529.7828   -44713.078    26.111508   0.92458721 
   94000    203.04443   -264.52059    135155.38   -42198.119    2526.2587   -44724.378    26.197172   0.92407342 
   94100    205.06065   -363.50321    135257.88    -42196.41    2551.3443   -44747.754    26.272274    0.9233731 
   94200    204.05611   -299.18413    135126.35   -42172.477     2538.846   -44711.323    26.190535   0.92427192 
   94300     201.5176   -316.07448    135162.51   -42137.912     2507.262   -44645.174     26.24649   0.92402462 
   94400    206.15161   -306.33978    135261.53   -42123.278     2564.918   -44688.196     26.42174   0.92334823 
   94500    209.80971   -391.43344    135122.98   -42073.997    2610.4316   -44684.429    26.314563   0.92429495 
   94600    207.07922   -377.20083    135126.76   -42115.746    2576.4592   -44692.205    26.268647   0.92426909 
   94700    206.55361   -412.47775    135081.77   -42156.547    2569.9196   -44726.466    26.147499   0.92457695 
   94800    204.25202   -321.27182    134935.31   -42149.992    2541.2835   -44691.276    26.114896   0.92558048 
   94900    202.90959   -395.24178    134921.61    -42118.15     2524.581   -44642.732    26.143999   0.92567448 
   95000     204.0134   -404.68752     135032.4   -42106.671    2538.3145   -44644.985    26.336772     0.924915 
   95100    205.87326   -366.15613    134984.82   -42110.648    2561.4547   -44672.103    26.453827   0.92524102 
   95200    207.00017   -262.07993    135036.82   -42125.343    2575.4756   -44700.819    26.198097   0.92488474 
   95300    210.56535    -491.0064    135034.34     -42035.2    2619.8332   -44655.033    26.114775   0.92490172 
   95400    208.42553   -301.41222    134973.45   -42105.888    2593.2098   -44699.098    26.203356   0.92531892 
   95500    209.20225   -256.13928    135258.28   -42109.575    2602.8737   -44712.449    26.380299    0.9233704 
   95600    207.14624   -313.88177    135166.35   -42116.622     2577.293   -44693.915    26.450028   0.92399838 
   95700      204.777   -442.22237    135124.28    -42174.53    2547.8151   -44722.345    26.475943   0.92428609 
   95800    206.13327   -317.21528     135219.7   -42224.979    2564.6897   -44789.669    26.395135   0.92363383 
   95900    206.53547   -450.94476    135276.32   -42164.196    2569.6939    -44733.89    26.325341   0.92324724 
   96000    206.21164   -411.50786    135155.22   -42238.258    2565.6649   -44803.923    26.284067   0.92407451 
   96100    203.92422   -452.28925       135245   -42191.255     2537.205    -44728.46    26.407912   0.92346109 
   96200    204.19424   -255.98514    135230.53   -42227.419    2540.5645   -44767.984     26.31546   0.92355991 
   96300     202.6932    -317.3121    135226.04   -42177.416    2521.8888   -44699.305    26.473959   0.92359056 
   96400    203.15913   -416.47145     135221.9   -42161.877    2527.6858   -44689.563    26.397256    0.9236188 
   96500     202.2534   -349.34395    135295.31   -42203.381    2516.4168   -44719.798    26.418026   0.92311768 
   96600    201.00719    -383.5399    135208.33   -42188.786    2500.9116   -44689.698    26.442276   0.92371154 
   96700    199.29878   -231.59118    135195.35   -42259.691    2479.6557   -44739.346    26.373911   0.92380017 
   96800    200.42043   -381.70608    135249.99    -42290.44    2493.6112   -44784.051    26.344284   0.92342701 
   96900    204.91972   -268.17319    135292.17   -42216.515    2549.5909   -44766.106    26.522335   0.92313908 
   97000    203.80437   -267.41684    135175.06   -42239.216    2535.7138    -44774.93    26.505985   0.92393884 
   97100    202.08441    -333.4705    135234.19   -42225.416    2514.3143   -44739.731     26.49599   0.92353487 
   97200    202.39122   -321.35833    135200.78   -42234.863    2518.1315   -44752.995    26.389602   0.92376311 
   97300    201.33091    -277.7686     135275.3   -42231.415    2504.9393   -44736.354    26.527014   0.92325425 
   97400    201.87087   -310.58377    135233.65   -42233.237    2511.6575   -44744.894    26.479953   0.92353856 
   97500     202.0321   -370.52542    135249.55   -42129.314    2513.6635   -44642.978    26.509021   0.92343002 
   97600    205.20609   -284.22148    135183.61   -42194.099    2553.1539   -44747.253    26.432863   0.92388039 
   97700    202.50673   -266.05147    135096.58   -42128.817    2519.5687   -44648.386    26.407466   0.92447556 
   97800    205.87863    -366.2026    135395.49   -42109.461    2561.5216   -44670.982    26.326058   0.92243464 
   97900    206.44785   -361.57526    135326.58   -42076.961    2568.6037   -44645.565    26.518804   0.92290433 
   98000    207.64072   -345.54272    135323.91   -42107.683    2583.4453   -44691.128    26.600912    0.9229226 
   98100    205.45177   -408.36062     135193.3   -42193.428    2556.2106   -44749.639     26.56088   0.92381418 
   98200     207.4916   -391.33589    135127.83   -42167.692      2581.59   -44749.282     26.58016   0.92426179 
   98300      205.773   -240.37843    135203.34    -42177.92    2560.2074   -44738.127     26.37371   0.92374561 
   98400    205.08461   -378.95405       135240   -42176.151    2551.6424   -44727.794    26.586418   0.92349523 
   98500    203.69001   -361.51597    135196.94   -42192.611     2534.291   -44726.902    26.371317   0.92378934 
   98600    203.30296   -284.83875    135301.72   -42216.174    2529.4754    -44745.65    26.571101   0.92307396 
   98700    199.13505   -482.77606    135367.82   -42251.422    2477.6186   -44729.041    26.715461   0.92262321 
   98800    203.71911   -272.03402    135298.42   -42219.002     2534.653   -44753.655    26.636529   0.92309647 
   98900    203.59934   -287.91828     135291.1   -42222.925    2533.1628   -44756.088    26.460414   0.92314638 
   99000     196.0882   -384.42599    135356.53   -42245.399    2439.7101   -44685.109    26.541068   0.92270016 
   99100    200.67961   -301.73459    135255.68   -42178.197    2496.8359   -44675.033    26.523288   0.92338817 
   99200    204.50745   -379.49973    135230.85   -42164.312    2544.4615   -44708.773    26.659569   0.92355766 
   99300    207.77286   -338.55428    135261.41   -42125.839    2585.0894   -44710.928    26.589511   0.92334901 
   99400    203.25055   -358.67662    135185.52   -42097.955    2528.8232   -44626.779    26.454906   0.92386738 
   99500    211.33373   -229.87168    135150.65   -41981.927    2629.3933    -44611.32    26.596125   0.92410576 
   99600    209.81145   -360.09179    135125.61   -42033.127    2610.4533    -44643.58    26.700866   0.92427698 
   99700    212.24342   -284.82842    135280.47   -42031.709    2640.7117    -44672.42    26.653228   0.92321896 
   99800    208.56647   -307.32163    135266.06    -42051.43    2594.9634   -44646.393    26.514975   0.92331727 
   99900    207.94294   -393.64404    135065.66   -42103.547    2587.2054   -44690.752    26.352626   0.92468721 
  100000    207.03807   -385.58701    135045.12    -42116.37    2575.9471   -44692.317     26.63087   0.92482786 
  100100    204.54384   -365.85117    135039.01   -42066.276    2544.9143   -44611.191    26.615893    0.9248697 
  100200    211.63004   -318.10298    135020.23   -42061.403    2633.0801   -44694.483    26.585689   0.92499835 
  100300    209.54228   -356.02488    135108.54   -42060.062    2607.1044   -44667.167    26.533202   0.92439375 
  100400    204.67802   -311.31655    135127.39   -42081.236    2546.5836    -44627.82    26.754054    0.9242648 
  100500    211.12718   -256.24107    135157.17   -42024.822    2626.8235   -44651.646    26.675822   0.92406113 
  100600     204.9336   -351.17789    135202.01   -42100.482    2549.7635   -44650.246    26.626067    0.9237547 
  100631    207.30786   -371.44821    135187.95   -42092.602    2579.3039   -44671.906    26.653451   0.92385075 
Loop time of 450.978 on 1 procs for 100000 steps with 4175 atoms

Performance: 95.792 ns/day, 0.251 hours/ns, 221.740 timesteps/s
100.0% CPU use with 1 MPI tasks x no OpenMP threads

MPI task timing breakdown:
Section |  min time  |  avg time  |  max time  |%varavg| %total
---------------------------------------------------------------
Pair    | 407.06     | 407.06     | 407.06     |   0.0 | 90.26
Neigh   | 31.19      | 31.19      | 31.19      |   0.0 |  6.92
Comm    | 1.9972     | 1.9972     | 1.9972     |   0.0 |  0.44
Output  | 0.94626    | 0.94626    | 0.94626    |   0.0 |  0.21
Modify  | 8.323      | 8.323      | 8.323      |   0.0 |  1.85
Other   |            | 1.461      |            |       |  0.32

Nlocal:        4175.00 ave        4175 max        4175 min
Histogram: 1 0 0 0 0 0 0 0 0 0
Nghost:        3640.00 ave        3640 max        3640 min
Histogram: 1 0 0 0 0 0 0 0 0 0
Neighs:        0.00000 ave           0 max           0 min
Histogram: 1 0 0 0 0 0 0 0 0 0
FullNghs:     112732.0 ave      112732 max      112732 min
Histogram: 1 0 0 0 0 0 0 0 0 0

Total # of neighbors = 112732
Ave neighs/atom = 27.001677
Neighbor list builds = 5030
Dangerous builds = 0

undump              1
unfix               2
unfix               3
unfix               4


################################################
#######         Run Simulation         #########
################################################

reset_timestep      0
log                 log.run_${NAME}
log                 log.run_liquid_density_MLmW
