LAMMPS data file via write_data, version 29 Oct 2020, timestep = 800000

4175 atoms
1 atom types

-0.7009038896873463 50.70090388968343 xlo xhi
-0.7009038896873463 50.70090388968343 ylo yhi
-0.7009038896873463 50.70090388968343 zlo zhi

Masses

1 18.015

Atoms # atomic

380 1 0.7777959720542387 1.2969695675399144 0.2242941855659205 0 0 0
2032 1 3.2135760716174624 1.4777150430923776 1.1678844430141446 0 0 1
1958 1 11.106005008595963 1.5461608334409531 2.1138350935954007 0 0 1
645 1 39.27894327440097 12.43524988439397 -0.4545427134774708 0 0 0
2313 1 23.20816380449779 2.0039798775791113 0.7820107614069698 0 1 0
674 1 31.282607080005974 1.010296664708598 0.32212943974091957 0 0 0
3960 1 36.5390909237086 0.9188812528515413 2.2875617580669467 0 1 1
535 1 41.15878394402629 0.9003921829014889 1.5070492937514213 0 0 0
1695 1 13.797598344585357 -0.580790491737022 8.028922908654597 0 0 1
472 1 43.525523017028746 2.270682176244126 1.9310004799758227 0 0 0
3655 1 -0.51609545603943 20.246294545593898 -0.46763783801819664 0 0 1
4138 1 50.531272323447695 3.3341957896314485 1.5188435637547952 -1 1 1
1440 1 4.19806743070737 5.656574308544435 1.3665457072684557 0 0 1
2618 1 16.452483666830872 -0.2629018614279323 11.618294685016522 0 1 0
316 1 7.4272027800118146 2.992604578632699 1.0820749835891834 0 0 0
2016 1 10.823635077309904 5.9261822390444845 0.7717630040885217 0 0 1
1783 1 7.65595791556124 5.841167194056993 1.6885870509545162 0 0 1
3924 1 15.072470586821552 5.081721184756169 0.9450212321335105 0 1 1
4103 1 16.80567410444367 2.812054967907624 1.0347401082654892 0 1 1
459 1 19.134606153220695 4.046230236451357 0.33460374402288395 0 0 0
524 1 20.965021146513717 2.8675726632032688 1.9420710897962619 0 0 0
555 1 21.97333819939578 4.966812208043052 3.0181828531123354 0 0 0
2781 1 25.31165646698282 2.038315086611681 2.904478328422574 0 1 0
504 1 27.025611612695464 3.805126291835643 1.1257620590359232 0 0 0
271 1 32.39073735443183 2.7219202510738643 2.0435675316715893 0 0 0
3650 1 34.89766778603057 3.0551144965781356 1.1877662318301536 0 1 1
1534 1 36.5197483587887 5.2461253166486 1.7422504302951705 0 0 1
200 1 39.1174831265939 4.67969546561882 1.3905465904013021 0 0 0
1840 1 44.37414593575628 3.895678639807243 -0.07785582873244967 0 0 1
139 1 47.920242968220855 2.680295515245852 1.34440508518583 -1 0 0
263 1 0.22612924443923343 5.810001515452845 0.49904130631779875 0 0 0
209 1 2.056689901574997 6.705696226829997 2.263580667274581 0 0 0
127 1 2.473869683928272 9.31383301081722 1.7072088240748604 0 0 0
344 1 5.154826974452645 9.315032006811048 1.5894827235638305 0 0 0
134 1 6.243619055610298 7.48201901203568 -0.281505314492297 0 0 0
1773 1 13.20288258169191 6.002042686503042 2.73121118359691 0 0 1
343 1 16.498135396336696 7.609246023953897 0.8578078997605723 0 0 0
32 1 14.905015651989789 9.391702256762091 2.3638507199109915 0 0 0
1607 1 18.61989346883902 6.17547557805511 1.6130435118087303 0 0 1
1539 1 20.799595539789532 8.067734043869168 2.043670483865833 0 0 1
253 1 23.17095371530537 6.746101117248647 0.8605550692222346 0 0 0
306 1 25.576888801434087 8.38552925685411 2.0020561233507954 0 0 0
348 1 31.512235168536655 7.259578568698815 1.4189915380755949 0 0 0
1476 1 35.923641060743975 7.3119384203739575 0.06753876167506623 0 0 1
185 1 41.03902062871905 6.585403752211241 2.7097025225688074 0 0 0
1973 1 42.722438786932884 7.951121221888018 0.9683431445050987 0 0 1
2398 1 45.06816908231016 6.27502516732364 0.9247733731060621 0 1 0
2507 1 49.4521354199024 7.741979719082634 0.8036297162960928 -1 1 0
2190 1 27.02620598384631 24.653315935239743 7.281201030154537 0 0 0
2037 1 44.09448962739464 10.92786350442582 -0.4655506731980561 0 0 1
458 1 7.848231991479615 9.755411870977605 2.251392850656537 0 0 0
55 1 7.992722901446511 8.90330744298628 4.806836622263392 0 0 0
2709 1 22.81674033684469 24.78066275865461 6.695708372125478 0 0 0
3710 1 11.878784235546908 24.155652306943768 -0.30123285509335945 0 0 1
1972 1 14.786383223013907 11.874587667598165 1.1142745900050255 0 0 1
495 1 20.139546004263444 10.471545081502265 0.41720606817396466 0 0 0
430 1 27.362873975313963 9.630820499839379 0.28103770450964527 0 0 0
646 1 28.977876576861554 11.52103827885581 1.3389958354317364 0 0 0
1501 1 31.596362115419794 11.752938390164635 1.2578321533539287 0 0 1
1701 1 32.520715652823 9.591102206355252 2.7530395084717 0 0 1
503 1 36.88010599394934 9.562531895462538 1.6220376787240731 0 0 0
1537 1 36.73386478794274 12.256318090943038 0.26230595170543214 0 0 1
718 1 45.24927518871768 0.0710186371100735 11.443436759792426 0 0 0
583 1 40.531394976956385 11.698422679890845 2.001069286052286 0 0 0
1871 1 43.05741345360965 10.488454776231023 2.232700121866986 0 0 1
3060 1 39.229880010779105 24.718490195959976 13.624325926193157 0 0 0
1728 1 50.286991415023415 12.078156124314548 0.9131186484791947 0 0 1
2361 1 25.275663389648987 24.391884076147832 3.1545853344723036 0 0 0
226 1 5.706199276581565 11.58068786066029 0.07128573105880853 1 0 0
564 1 6.333424757109165 14.635816878508246 -0.06429050616359877 0 0 0
1705 1 10.730859119167295 14.089602739920712 1.0904188926042069 1 0 1
1651 1 13.569060955969114 14.406058234531137 1.5624984856973656 0 0 1
155 1 19.414718010381854 12.806110172664003 1.4131846498939598 0 0 0
452 1 23.759695747337645 12.92354872577272 2.3308776912709956 0 0 0
705 1 31.642433525963284 14.169431961540807 2.3234133850504683 0 0 0
562 1 35.904763652145945 14.686785741890505 0.7697780445347489 0 0 0
2087 1 -0.6103719067052504 -0.6817543090723461 1.1245218892508255 1 0 1
2049 1 38.53784977449437 15.214535825604143 1.9131045912783837 0 0 1
656 1 12.260225348047944 10.382385628824405 0.5147613307824521 0 0 0
8 1 45.773938604845966 13.822768359977584 1.8431106760951508 0 0 0
2054 1 47.70807192437025 11.674284297714182 1.386187362393168 -1 0 1
505 1 0.008849902090240058 16.469131834087236 1.1352518399328426 1 0 0
2697 1 7.364602768115397 16.5617040063031 1.588944966594617 0 0 0
1360 1 37.19066743688407 23.69911756525984 15.34127057228563 0 0 0
205 1 13.063332356933211 19.035163414499063 0.40026992114908455 0 0 0
36 1 14.723899936355584 16.796925430678396 0.5635241196280638 0 0 0
317 1 16.90662333983337 17.020708572833016 2.2251562317467513 0 0 0
1712 1 19.032384904831034 16.819953174083476 0.48335615309106017 0 0 1
239 1 21.743597707342992 16.58763328016298 1.9570119694736539 0 0 0
422 1 23.787454776474142 17.558232955562435 0.3172545761979646 0 0 0
2042 1 26.20757020283323 16.617719207289415 1.3600661474640314 0 0 1
649 1 28.148997626370186 15.724673960979963 -0.41615221654270235 0 0 0
2390 1 26.65367396193231 18.84181038561894 2.6556752376473933 0 0 0
1808 1 30.731429466365675 16.41434078644665 0.5216492320066908 0 0 1
424 1 31.00705256889068 19.04082872623384 0.9517228016624955 0 0 0
1423 1 41.70878756906231 18.010482042654726 1.9364458682554617 0 0 1
1865 1 42.951051603566476 18.047602208671197 -0.6470822038138302 0 0 1
2761 1 47.1144263066905 16.057500157862258 -0.3080989872004928 0 0 0
3757 1 49.55435081307264 24.265292896728127 -0.6430647927097236 0 0 1
631 1 48.782542460700675 17.17122108630773 1.4855298978082465 0 0 0
191 1 1.4310209015862414 18.89418001454904 0.6245955618944117 0 0 0
109 1 24.010809484501994 12.625550345096519 -0.6326100412841575 0 0 0
3866 1 6.5242168617212934 20.797808524302805 0.8325405528730223 0 0 1
2034 1 8.710174121281096 19.012192266299245 1.1975559832735303 0 0 1
142 1 12.825104100867746 19.743911969224516 3.0002010308148703 0 0 0
87 1 7.815648436574472 6.034946866443497 16.31123366757875 0 0 0
2732 1 18.313962593757868 21.82097722763439 2.6738318382560333 0 0 0
2105 1 22.287397067684516 20.883850824992965 2.067199377411766 0 0 1
296 1 26.778808187998397 20.740780248173035 0.9355683916628623 0 0 0
460 1 33.282731529031736 19.3408148927867 2.3700191296416526 0 0 0
691 1 34.80654140357272 19.842170799843693 0.11262015456889285 0 0 0
266 1 37.68606155959984 19.85846735542626 0.6642400679648455 0 0 0
1968 1 42.30962451441147 20.511708986345866 1.8428336253944488 0 0 1
2152 1 46.201708051108945 20.39648756297552 0.08811662416840182 0 0 0
1880 1 48.778622091231114 19.916155998345154 1.0832476968921008 0 0 1
1935 1 1.9437388550681938 22.899717251106072 1.7612797411773924 0 0 1
2616 1 4.6948119732068765 -0.6822272887685017 0.4913143108752309 0 1 0
2441 1 50.4554622094391 -0.4018386068341383 6.608689965016948 -1 1 0
1869 1 7.75937971944842 23.17752488328115 0.9424218539879263 0 0 1
3538 1 22.234209220057902 19.944597293561262 -0.413300086801558 0 0 1
431 1 11.400733759913066 24.36382854653883 2.6182018777622043 0 0 0
617 1 14.472549094187993 23.508502182186373 0.23988957009298617 0 0 0
1726 1 39.91680436945773 15.409759671339636 -0.4653160819269087 0 0 1
2027 1 24.541937510437027 22.556197763369333 1.0779043156015544 0 0 1
694 1 28.499219824883728 22.420140440181 2.6399647939521467 0 0 0
104 1 30.240117355921104 23.11813220024681 0.5965660020902546 0 0 0
1445 1 33.01724217270384 23.20896814390467 0.9650866790306838 0 0 1
63 1 38.41424855991084 24.529985891528845 0.5576189276420722 0 0 0
1220 1 6.180014495642906 24.90639916871153 12.968932695981549 0 0 0
2548 1 48.06371814153885 23.09474541039585 1.5114949696769364 0 0 0
311 1 9.971330012241081 11.591259735194457 0.6710090202720491 0 0 0
1658 1 2.8610748964760866 1.6402012353094229 3.7997485623688094 1 0 1
56 1 4.431209064918518 3.005010972164984 5.480871588562396 1 0 0
2285 1 8.667292604083615 0.9643031506209545 2.8609406106500965 0 1 0
2437 1 9.807051720599036 0.1259598485772082 5.552874415876497 0 1 0
136 1 12.61584414968393 0.17503079338038408 5.679783481090874 0 0 0
373 1 16.92470712316805 1.3220509179184292 3.470447544292126 0 0 0
2300 1 19.65708821247869 0.8265782817859975 3.2866268076053875 0 1 0
3597 1 21.218268022220084 0.40807746770715636 5.667643353485775 0 1 1
67 1 25.17345614691557 5.116056860344965 -0.5904251986050796 0 0 0
2750 1 26.3948712596442 0.2698710859027962 5.170543588884948 0 1 0
2894 1 41.51461315978141 0.42942148857184037 15.910918061671712 0 1 0
350 1 31.07844949131248 0.20639761065923878 6.38840938696988 0 0 0
35 1 32.64603492705133 1.6910931412857932 4.67816264569884 0 0 0
600 1 34.91235406233277 0.21155508280055912 4.5641786171094125 0 0 0
371 1 37.01368014025808 0.577171077295501 6.4512013804327175 0 0 0
425 1 41.08330706583216 -0.09277666892991931 6.101820931530896 0 0 0
353 1 45.23483430196234 0.4268876217302291 5.818653943638786 0 0 0
862 1 0.40992598646320366 15.247001783861961 16.056958237494293 1 0 0
502 1 0.6337846817560324 3.046435145170117 3.866076697922149 0 0 0
13 1 5.731948135854078 4.954629465727349 3.7707863582024386 0 0 0
2730 1 7.813903675103193 2.7665154840628245 4.92654104561626 0 1 0
486 1 9.707387611458673 4.556462953654113 4.767143218421387 0 0 0
195 1 12.042756765794236 3.7644317595620045 3.721913927523948 0 0 0
219 1 13.5423272419745 3.0147380767521637 5.789812827895418 0 0 0
2521 1 16.301315036109138 3.382178491209854 5.381705682669523 0 1 0
106 1 23.590308818322576 3.7243121522418967 4.546837296945128 0 0 0
22 1 27.838916335210712 2.9476898176900246 5.198773579961327 0 0 0
440 1 28.24946207451509 4.868693076640468 3.129282417411838 0 0 0
140 1 30.91178842523135 4.777853985593506 2.9312736551583805 0 0 0
95 1 31.37369195618836 5.029740603015531 5.384130217632589 0 0 0
1854 1 33.81617444981053 4.023237613820265 5.906381927465902 0 0 1
249 1 37.80716687251567 2.837561451322759 4.987549761321256 0 0 0
43 1 36.138116669108136 5.101596757332517 4.5099704909427345 0 0 0
445 1 38.95714003063004 2.2570282991689083 2.430079951352591 0 0 0
510 1 40.45086583247413 2.6613052985651415 6.056934363883001 0 0 0
2306 1 42.90611631127907 4.112876281318988 5.949762886694606 0 1 0
2532 1 44.24069903821052 2.549464297797166 4.506321115429004 0 1 0
1882 1 46.79759162260025 3.8742220970752497 3.789118370716082 -1 0 1
487 1 1.2102114614274813 5.636445452036375 4.896129789941885 1 0 0
1258 1 6.090082974146977 6.948835837619342 5.526545740416834 0 0 0
3143 1 4.928333102473045 9.721024856567633 4.468909000059439 1 0 0
80 1 9.697522639270383 7.030051820999807 3.4737674039890534 0 0 0
1026 1 12.41645594017285 8.861705188281023 3.149575834713904 0 0 0
376 1 16.206002832175578 8.478900006870804 4.887192172988975 0 0 0
135 1 17.327058388520335 5.989543769529271 4.10694477561524 0 0 0
592 1 20.082354892239163 6.1247920122760755 4.883274110282559 0 0 0
532 1 20.475417125709814 9.02338372045352 4.717659490066389 0 0 0
34 1 24.964765325847058 5.5202010487784765 5.909103444455388 0 0 0
465 1 26.673860395406454 6.950210378678615 4.040016190829019 0 0 0
130 1 28.146441597184968 8.453692781633253 5.674414429299665 0 0 0
372 1 36.027992912900004 7.813009966707792 5.5574483744468015 0 0 0
2024 1 39.31067856712753 9.019985617877788 2.8289967366851507 0 0 1
293 1 42.26279949971931 6.5501485012069365 5.21732571211993 0 0 0
312 1 43.961699478628944 8.290754338980998 3.946105838816738 0 0 0
511 1 46.32718409228578 6.473445361766239 3.493546905256964 0 0 0
671 1 50.40260779806213 7.403901852556075 5.5377412204746115 0 0 0
2235 1 48.45968068925745 8.469024980996142 3.255890179080009 0 1 0
301 1 2.301912308313156 11.247915584994383 3.6015692242502295 0 0 0
323 1 4.742304198240685 12.453252756716022 5.719948556254635 0 0 0
437 1 12.546172392675077 10.398675309519815 5.328011409878652 0 0 0
540 1 17.29215333650366 12.548844054273124 2.7987172628018735 0 0 0
1984 1 18.024041075107903 10.67701502360618 4.790324122353084 0 0 1
530 1 22.72701440056303 9.742013614886009 5.75143107154464 0 0 0
593 1 24.508346321503115 10.38567215413689 3.7394956861867 0 0 0
687 1 26.863492852329042 10.949634595356386 5.154456413136163 0 0 0
436 1 30.80485414690944 9.31151410058477 5.2706903133730965 0 0 0
230 1 31.007171474539636 11.782210020893002 6.361926001594137 0 0 0
144 1 35.1151834941807 9.805300915495101 3.824074703530221 0 0 0
1914 1 38.58243396914816 8.912587021954277 5.681113235809834 0 0 1
1413 1 45.694305537024924 11.478448757815592 6.02732916489623 -1 0 1
1841 1 47.635250964143445 10.823182303101937 4.116733063089181 -1 0 1
614 1 49.884403669890084 11.89396960747923 5.502548548444774 0 0 0
232 1 -0.019989098154426732 12.733476814029801 3.3839882523950866 1 0 0
1924 1 0.8364601578159818 15.305352116150619 3.717426479730988 0 0 1
1514 1 4.543166860954839 12.896574719427047 2.745664944008838 1 0 1
429 1 3.43265517419208 15.16612639677558 4.193806724479505 0 0 0
492 1 7.7478714258988095 12.708640014583013 3.1401193543607855 0 0 0
3942 1 9.193777452049858 15.044706698041573 3.1547412751366495 0 0 1
3616 1 12.896162121822247 13.096387540016421 6.063161327414259 0 0 1
48 1 14.030984651741992 14.847910143420195 4.08254577086317 0 0 0
709 1 16.703201665918044 14.94434398008819 3.9731309964372343 0 0 0
439 1 21.550612761794177 14.033367228658058 2.9305510702530784 0 0 0
527 1 21.961636509178888 14.628050791541746 5.992207420314335 0 0 0
298 1 25.60070138440928 14.583371524596325 3.1943043631586643 0 0 0
421 1 27.937109526358235 12.835543054921905 3.4600242130620806 0 0 0
417 1 30.211791019155356 13.795887501875361 4.689636037717256 0 0 0
273 1 35.25133357058785 12.529296292003462 4.5178831616529065 0 0 0
383 1 34.207825883117614 14.657156968324871 2.9890877731039756 0 0 0
545 1 37.71732090788408 13.144785264268055 5.820521753496552 0 0 0
101 1 39.958526847298415 13.513426516660783 3.8897773723818245 0 0 0
456 1 42.20584058117266 14.72408134913909 4.9986614768922015 0 0 0
489 1 44.023892481353634 12.785730074670319 4.022684822067466 0 0 0
496 1 -0.053503137147306146 17.49182894070305 5.307439015352185 0 0 0
1956 1 5.52972769652869 17.298554480262023 3.5807026025631012 0 0 1
246 1 7.055505982362321 17.39852580671774 6.020831664615133 0 0 0
352 1 9.257442645125812 15.54965660263159 5.778556096723746 0 0 0
112 1 11.404272710265394 17.211575388028383 6.208440609200074 0 0 0
657 1 13.495356863639064 17.54617039814386 4.530505650605951 0 0 0
60 1 24.577040585010845 15.67646164095255 5.625228568342878 0 0 0
152 1 24.677837707861286 18.533844323605777 4.783465313908688 0 0 0
512 1 29.427964305199882 18.172785853470266 3.24731540073934 0 0 0
128 1 30.34326969882038 16.43501671823515 5.473679255854723 0 0 0
559 1 34.410176283271724 17.3668278576173 4.02014582212053 0 0 0
402 1 37.0699637099538 17.97395962714333 4.92843985315904 0 0 0
675 1 38.59898902808061 17.930814577812644 2.534090283561052 0 0 0
46 1 42.59177242623031 17.273361797470454 4.596719373388332 0 0 0
76 1 45.32035050623094 17.5348652575056 5.041723068942721 0 0 0
2056 1 47.12117663438696 15.99876520161818 3.4342368927947193 0 0 1
186 1 48.740445274646866 16.516648492515692 5.783809362646403 -1 0 0
2246 1 0.8237169909972568 20.118644363751187 4.766136183843713 1 0 0
59 1 2.5340533678931423 20.319544952766876 2.600358498559266 0 0 0
398 1 5.272303269290434 19.901537441130376 3.030495821839954 0 0 0
672 1 5.942546547648005 21.387677175259896 5.430445291052888 0 0 0
340 1 10.245865129308315 20.56746784319928 2.874542235341686 0 0 0
3180 1 9.850650303390141 19.5903541983826 5.487106711189549 0 0 0
3581 1 13.964383113706642 21.771659963929867 5.466662895668464 0 0 1
2403 1 15.226021133864606 19.34942291893333 5.392864211618883 0 0 0
333 1 17.54483071297446 19.331414493385637 3.801686569668864 0 0 0
1541 1 19.554865399798846 18.411216388862037 5.497046938278997 0 0 1
622 1 21.971129214554225 18.5571784538732 4.047509360082133 0 0 0
1632 1 25.249107399202053 20.734178890264605 6.463489500514418 0 0 1
560 1 29.59392508793594 20.703526590678877 4.494867581017501 0 0 0
418 1 31.91839643904992 21.19663787762686 5.717387607708159 0 0 0
1430 1 33.687902186624314 21.90071120826807 3.528943530313823 0 0 1
2963 1 44.82899640847745 21.323831160716285 2.3726805708229333 0 0 0
366 1 45.098589459258164 20.232109089285576 4.9100510671459805 0 0 0
2728 1 49.447304340327584 21.17897975932151 3.7442551972456997 -1 0 0
81 1 47.660852017537074 20.98190205975918 6.129746491012585 -1 0 0
2559 1 -0.2876131048693447 23.594422459329788 3.236630922728292 0 0 0
2672 1 1.1840146190844134 24.596737199184503 5.648761827098002 1 0 0
602 1 5.333185746278514 24.3657603252971 4.7236449596500805 0 0 0
297 1 -0.3527288407662467 14.24963582659238 -0.41974975799095277 0 0 0
651 1 9.282519339559624 23.070512859641244 3.1881482793677547 0 0 0
2563 1 13.628934784922693 22.692279282892684 2.9817374071749048 0 0 0
2427 1 16.330764874918902 23.821218270299614 3.170315071139582 0 0 0
1886 1 20.830167942197686 22.78243269099586 3.067412958778753 0 0 1
2596 1 20.573678186301006 23.143215357141663 6.017147544094413 0 0 0
448 1 25.038502159126523 23.442100866104507 5.943031292951728 0 0 0
3215 1 50.352768179627056 23.959139216168072 13.851083158112516 -1 0 0
2636 1 36.832283867015974 24.816115424724405 6.23538390073514 0 0 0
681 1 38.09974483870082 22.25683085253753 2.1384119790201805 0 0 0
299 1 36.36733872498964 22.556933379536225 4.379514380349127 0 0 0
1790 1 40.650824186480094 22.445464992720538 3.1196197791859515 0 0 1
1733 1 45.329007586889865 23.905497554526423 2.144769973374278 0 0 1
2706 1 8.26458121359126 24.771893885380525 5.065091883814615 0 0 0
2546 1 6.239215206287414 1.7306267611697934 7.610299039082847 0 1 0
198 1 9.112596111657078 1.75864579966477 7.860310255190839 0 0 0
1320 1 43.98400960183234 23.270036508346703 13.922926064999078 0 0 0
2443 1 15.200564101335798 1.2955041805698555 9.753374466996208 0 1 0
563 1 17.373355477720434 1.8880752374831618 7.561157853491707 0 0 0
166 1 45.44602034288894 8.013673239089718 16.19250903563468 0 0 0
129 1 22.448817151656165 2.5868636388256885 6.615886131219098 0 0 0
2182 1 23.51475518259222 1.8158110928704758 9.108771710182841 0 1 0
148 1 31.837367292033285 -0.3074467966883785 8.938179738783967 0 0 0
434 1 35.54692463873023 1.3221226678428186 8.68916126746116 0 0 0
94 1 25.27366553990826 -0.12105285929415444 8.107594551284485 0 0 0
2130 1 46.28315708292216 2.1832562972275693 7.769946324706231 0 1 0
233 1 29.60427425464071 0.0450701132498581 11.219808754616798 0 0 0
126 1 26.807062032694578 -0.5531587977077375 10.324150359878063 0 0 0
1851 1 -0.677941441075784 2.4346092389978384 6.256632332895059 1 0 1
1505 1 0.5859873312718646 3.446870907423839 8.564061363460734 0 0 1
190 1 2.6332555024588555 4.98021559954291 7.2730183128856005 1 0 0
432 1 4.99940602876182 4.148728317414917 8.611167106720256 1 0 0
494 1 10.329252843915915 4.515551104835211 7.58618462423215 0 0 0
213 1 12.924211845181702 4.804478745114836 8.136784497291604 0 0 0
89 1 18.8840099314286 3.6784624229408376 8.931214288100227 0 0 0
173 1 20.795305425150683 4.662082113932733 7.20832864745788 0 0 0
1196 1 25.154056888048885 3.5108468285345724 9.788805203372455 0 0 0
620 1 26.95944705602491 4.536623579165147 7.620653492904593 0 0 0
206 1 30.139971863053905 3.0036881801134316 6.7061143938699885 0 0 0
315 1 29.771037760896405 3.345790602592955 9.508678320908475 0 0 0
696 1 33.96485846231095 3.558214342747058 8.82283306940101 0 0 0
163 1 39.36588682785858 3.1074615003167643 8.744248782590944 0 0 0
652 1 44.08252194820324 3.9215231909396726 8.425644552268032 0 0 0
2518 1 48.07132757293394 3.2292609674519315 6.0723490763085515 0 1 0
2421 1 49.97325326612617 5.1790312836817245 9.48004417154092 0 1 0
517 1 3.527547430882313 7.7240992059423785 6.457231095995548 0 0 0
446 1 3.93850923012426 7.716683750705638 9.264219165297527 0 0 0
447 1 6.561067066928775 6.42039864699771 8.543886432988167 0 0 0
616 1 9.09685738731846 5.689230991519314 9.679018853021114 0 0 0
626 1 10.031649707641899 8.465820520598905 9.109590479317523 0 0 0
2057 1 12.841979093656642 7.714651583655792 9.433249168121968 0 0 1
595 1 15.40613279791873 5.942965204909293 6.964449473784677 0 0 0
38 1 14.326016138833669 8.899007584473848 6.924866554767689 0 0 0
1052 1 17.36166680116678 5.893910129665476 9.135500806359351 0 0 0
572 1 22.073503817784566 6.22637189194606 8.997800809880491 0 0 0
680 1 23.69224220196785 7.616728053773217 7.204531183553041 0 0 0
625 1 25.641089201676888 8.247382935456336 9.169093122596962 0 0 0
898 1 27.77377830515462 7.185707794209771 8.132691469533421 0 0 0
231 1 31.6040949066534 7.310721752873981 6.907628255819359 0 0 0
224 1 30.129336468570614 8.057056141371515 9.23004256617146 0 0 0
44 1 34.16980356232896 8.114519497398973 7.763527432586493 0 0 0
322 1 34.994963673851906 6.1887404899004625 9.660579617940279 0 0 0
72 1 39.596393144367866 5.869620954197204 8.968195414744363 0 0 0
131 1 40.669058629602844 7.744524899862347 7.125601274900758 0 0 0
475 1 46.89123812399606 7.585402045697332 7.7528743136694676 0 0 0
1592 1 45.2488319058357 6.214175620107924 9.49239610699459 0 0 1
2154 1 48.78138986258533 5.799899083421143 6.867814981489849 0 1 0
19 1 1.9098602898737171 10.129688020883556 6.216144685171632 0 0 0
918 1 -0.4573124470809439 9.62388355901883 6.970072785674498 0 0 0
544 1 4.834370846859287 10.282331655951314 9.344193086749813 0 0 0
666 1 7.258820823538854 11.690382339706796 8.734948757889471 1 0 0
73 1 10.051366541671673 10.353772772114807 6.858377990826187 1 0 0
33 1 7.3982396899310725 11.70488141160797 5.809368067280135 0 0 0
392 1 14.719947709471077 10.785727379572972 9.082905044484558 0 0 0
1265 1 17.567464755413997 11.10868261377917 9.394916077069281 0 0 0
1266 1 18.85696117745212 11.953562023284919 7.071060933312369 0 0 0
531 1 25.31917016319097 11.174725572053031 9.48748278415594 0 0 0
410 1 29.341954652023823 12.359492260394317 8.835665806460435 0 0 0
435 1 34.328208880570635 10.779438875103622 8.69287000799872 0 0 0
182 1 38.50041232554162 10.85871975551852 7.496639458383882 0 0 0
281 1 41.17541078708763 11.502476085511981 8.365571132914617 0 0 0
202 1 42.6493586593294 9.177793957957517 8.20609625716902 0 0 0
23 1 44.69339753968635 8.842132118974506 6.5140334842432495 0 0 0
553 1 46.8156767775293 10.196843692121323 9.002381935253503 0 0 0
290 1 49.57257355891398 9.856956445523638 9.294976272736564 0 0 0
945 1 -0.32476272004411844 14.949817732661076 8.279461538307826 1 0 0
613 1 2.8670069921174846 12.039654681255453 7.957302949873691 1 0 0
1641 1 3.7693037946665653 14.861504012585913 7.069531663190673 0 0 1
113 1 10.137919976081855 13.318647481575827 7.102689069401623 0 0 0
386 1 13.902540760142669 15.566065294029762 9.787823055331005 0 0 0
533 1 11.407691531715553 13.928453813205149 9.680327813215968 0 0 0
1471 1 14.62151066098526 13.589105315287966 8.004722666027284 0 0 1
370 1 17.23483172171808 14.608225305559609 6.621083079737157 0 0 0
992 1 21.63058791012442 11.938320646794184 7.0333933430860816 0 0 0
153 1 26.242606021194078 15.014550744761632 7.6454255566438825 0 0 0
554 1 26.809182096399326 12.374675494537575 7.812899847620576 0 0 0
181 1 29.37189496163921 14.971917064981819 9.764402147301308 0 0 0
438 1 33.66005670474118 12.706548748354784 6.746831052531254 0 0 0
534 1 33.54463828736785 15.167312370893953 8.030574335087845 0 0 0
51 1 36.0643128858575 15.548951490791833 8.999808295545167 0 0 0
420 1 42.3816230976405 13.916036991508863 7.642246000633547 0 0 0
346 1 44.76722175502305 14.820070160385113 8.933302349131214 0 0 0
519 1 46.69667348403556 13.01070136121595 8.67995795326603 0 0 0
1582 1 48.890360067867086 14.042042800947593 6.931435304387277 -1 0 1
1782 1 1.7461424757225052 16.74413075948005 7.414559202029347 0 0 1
1649 1 2.9646297865695272 19.021517839160108 8.941668240726912 1 0 1
409 1 5.930038843658634 16.3218099695956 8.252941841475597 0 0 0
189 1 12.308519514917423 17.74182143941954 8.719675378106915 0 0 0
2654 1 16.169534124459915 16.70723219695991 8.19234333305065 0 0 0
288 1 19.825946929619477 16.029003174354404 6.8274882562482375 0 0 0
442 1 20.731685328712537 16.771975443467966 9.306478855460002 0 0 0
11 1 28.812037179288893 16.478490200370622 7.594340995499019 0 0 0
587 1 32.80680771158229 17.050614089415923 6.246082772311922 0 0 0
40 1 37.944409642348425 15.597548214683513 6.98217087469161 0 0 0
485 1 40.39065255225042 15.813048437904026 8.30516409443131 0 0 0
673 1 41.18527111321996 18.03218559417116 7.083816965632648 0 0 0
108 1 45.44150296337572 17.33075684872267 8.043730987759531 0 0 0
111 1 0.6883385527671038 22.181671248958445 6.672573453971737 0 0 0
275 1 3.453396210688653 21.132954989402776 6.86181368288022 1 0 0
633 1 7.413680218235916 19.903257089476433 7.128829874297912 0 0 0
54 1 8.185102047218617 19.801917775600444 10.029123995283177 1 0 0
1133 1 14.146622761153752 19.76605480823536 9.566076242721318 0 0 0
549 1 16.203419236405303 19.279662395009083 7.968338681939928 0 0 0
1057 1 17.860016828477235 21.504642536583756 8.27595240904459 0 0 0
667 1 20.11679133662803 20.690766055262152 7.106526422327745 0 0 0
1187 1 21.523179235540233 19.410506110488345 9.144398489720338 0 0 0
483 1 23.982185548241556 19.99273303881543 8.908013603339565 0 0 0
568 1 28.468765176439447 18.927164731712022 8.760377408298229 0 0 0
165 1 27.949160138029963 20.648851526086236 6.725779572911693 0 0 0
904 1 31.100805194807016 19.598820931019404 9.616819673073563 0 0 0
177 1 33.06798081433223 19.47587479108392 7.455488212823642 0 0 0
1212 1 35.535539897219415 20.075910979905974 8.220800736435818 0 0 0
2137 1 36.989086972333965 20.50975014254637 5.916109626396831 0 0 0
669 1 39.462584123125886 20.264776669081705 7.310441210360807 0 0 0
498 1 43.33135090730103 19.24017236104259 8.362605450649621 0 0 0
2455 1 47.88079874150718 18.40915656626169 7.678841355451398 0 0 0
490 1 4.484674158496512 23.30685555644503 8.685298330530582 1 0 0
254 1 11.261230582951692 3.335018505227615 -0.04188909683394981 0 0 0
499 1 7.359774090113747 23.703907351535815 9.131658749104552 0 0 0
1699 1 9.609735194953194 23.776812627597995 7.245960169792428 0 0 1
1996 1 11.169594606374288 21.75128877266438 6.8993115953975686 0 0 1
365 1 14.2803310371219 24.110745708755104 8.87857273576115 0 0 0
41 1 15.806844059359925 23.062082326332057 7.064668870087264 0 0 0
556 1 18.965581275973488 -0.28252119676738924 6.936000846143903 0 0 0
2729 1 29.0963358265493 24.024978163749434 5.413392133093927 0 0 0
105 1 25.938934865581388 12.527042752341641 16.029839633639487 0 0 0
2457 1 28.508418599234666 22.710568660639986 8.619034902524303 0 0 0
2259 1 31.090178332581676 23.66115790863773 8.766832492732043 0 0 0
2 1 31.951497441620354 23.869720127757947 6.127749729073966 0 0 0
2468 1 47.89779560665911 -0.37735170330452433 5.336001420430836 -1 1 0
944 1 34.92344109701517 22.464644335523634 9.483371251681945 0 0 0
2041 1 29.160813848743064 0.1797292372014222 4.1711767211299104 0 0 1
292 1 40.512464551572734 22.4403664499165 6.013156911272766 0 0 0
874 1 43.293377990727215 21.50831351677271 6.652814297110327 0 0 0
151 1 44.17170929269723 23.881971547541873 8.021080203050733 0 0 0
2020 1 -0.6122576835309009 22.671999169024566 9.306098533235504 0 0 1
628 1 48.220497400641264 22.854296872951938 7.9279415832894085 -1 0 0
2525 1 1.9393462497892648 1.5861381394798104 10.323114067306893 1 1 0
2053 1 4.357169880708638 3.5129906997482854 -0.08493636302493435 0 0 1
12 1 8.136072577648507 0.6138702411537149 11.798475860367002 0 0 0
2486 1 10.316695540931093 0.6754641505182661 10.163140364557917 0 1 0
2792 1 44.20918448952594 -0.29130163056757363 15.669296180887105 0 1 0
2791 1 20.14999634688339 2.530490425492526 11.20230278711039 0 1 0
2245 1 18.167746271588285 1.3607525304479537 12.910236126994187 0 1 0
558 1 21.42029909819869 0.11063856386858639 10.518260032286124 0 0 0
630 1 27.227719305501736 0.10122434096280775 16.168072011552905 0 0 0
1356 1 27.43835856027743 2.361250977553559 10.805946414020232 0 0 0
283 1 32.0806050980375 2.250465972383579 10.267896301810419 0 0 0
585 1 32.517155794526516 2.1127617796788405 12.858539569486044 0 0 0
3246 1 30.02825883398643 0.9444330868930868 13.815795020848642 0 1 0
158 1 37.75269379200772 1.2823369718282824 10.388572850029224 0 0 0
699 1 36.911106971677796 2.1230600126762096 12.778364068228736 0 0 0
2172 1 43.03032860944761 0.25223541229399804 9.835554695404475 0 1 0
481 1 5.144110322198241 13.989352249026213 15.781360491336585 1 0 0
2662 1 47.53018608206065 1.1122393502461747 10.065882401425965 -1 1 0
578 1 4.126673587825939 3.485722980662942 11.2778988386851 0 0 0