
# Create simulation box of size 50 x 50 x 50 Angstrom
#
lattice	            sc 1
Lattice spacing in x,y,z = 1.0000000 1.0000000 1.0000000
region 	            all block 0 50 0 50 0 50 units box
create_box          1 all
Created orthogonal box = (0.0000000 0.0000000 0.0000000) to (50.000000 50.000000 50.000000)
  1 by 2 by 3 MPI processor grid

# fill box with 4175 randomly distributed atoms
#
create_atoms        1 random 4175 63782 all
Created 4175 atoms
  create_atoms CPU = 0.001 seconds
mass                1 18.015

# Define potential
#
pair_style          sw
pair_coeff          * * ML_mW.sw mW
Reading sw potential file ML_mW.sw with DATE: 2019-02-27

# Run minimization
#
minimize            1.0e-8 1.0e-8 10000 1000
WARNING: Using 'neigh_modify every 1 delay 0 check yes' setting during minimization (../min.cpp:187)
Neighbor list info ...
  update every 1 steps, delay 0 steps, check yes
  max neighbors/atom: 2000, page size: 100000
  master list distance cutoff = 6.0032907
  ghost atom cutoff = 6.0032907
  binsize = 3.0016454, bins = 17 17 17
  1 neighbor lists, perpetual/occasional/extra = 1 0 0
  (1) pair sw, perpetual
      attributes: full, newton on
      pair build: full/bin/atomonly
      stencil: full/bin/3d
      bin: standard
Per MPI rank memory allocation (min/avg/max) = 4.255 | 4.258 | 4.261 Mbytes
Step Temp E_pair E_mol TotEng Press 
       0            0    7792709.3            0    7792709.3    5898794.3 
     630            0   -45180.336            0   -45180.336   -154.07449 
Loop time of 1.15718 on 6 procs for 630 steps with 4175 atoms

99.2% CPU use with 6 MPI tasks x no OpenMP threads

Minimization stats:
  Stopping criterion = max force evaluations
  Energy initial, next-to-last, final = 
      7792709.32924461  -45180.0188663597   -45180.336116598
  Force two-norm initial, final = 2.0191930e+08 4.9721331
  Force max component initial, final = 1.0948746e+08 0.73126211
  Final line search alpha, max atom move = 0.053306038 0.038980685
  Iterations, force evaluations = 630 1000

MPI task timing breakdown:
Section |  min time  |  avg time  |  max time  |%varavg| %total
---------------------------------------------------------------
Pair    | 0.8827     | 0.98793    | 1.0475     |   5.7 | 85.37
Neigh   | 0.023799   | 0.024631   | 0.025565   |   0.4 |  2.13
Comm    | 0.065137   | 0.12458    | 0.23096    |  16.0 | 10.77
Output  | 0          | 0          | 0          |   0.0 |  0.00
Modify  | 0          | 0          | 0          |   0.0 |  0.00
Other   |            | 0.02004    |            |       |  1.73

Nlocal:        695.833 ave         704 max         685 min
Histogram: 1 1 0 0 1 0 0 1 0 2
Nghost:        1494.17 ave        1515 max        1468 min
Histogram: 1 1 0 0 0 0 1 1 1 1
Neighs:        0.00000 ave           0 max           0 min
Histogram: 6 0 0 0 0 0 0 0 0 0
FullNghs:      19997.0 ave       20462 max       19320 min
Histogram: 1 1 0 0 0 0 0 2 0 2

Total # of neighbors = 119982
Ave neighs/atom = 28.738204
Neighbor list builds = 26
Dangerous builds = 0

# Add velocity/set timestep
#
velocity            all create ${TEMP} 120598 rot yes dist gaussian
velocity            all create 215 120598 rot yes dist gaussian
timestep            5.0

# Define output
#
compute	            1 all msd
thermo	            100
thermo_style        custom step temp press vol etotal ke pe c_1[4] density

# Neighbor lists
#
neigh_modify        delay 0 every 1 check yes

# Set fixes
#
fix                 1 all momentum 10 linear 1 1 1 rescale
fix                 2 all nve
fix                 3 all temp/csvr ${TEMP} ${TEMP} 500.0 928347
fix                 3 all temp/csvr 215 ${TEMP} 500.0 928347
fix                 3 all temp/csvr 215 215 500.0 928347
fix                 4 all press/berendsen iso ${PRES} ${PRES} 1000.0 modulus 20000
fix                 4 all press/berendsen iso -500 ${PRES} 1000.0 modulus 20000
fix                 4 all press/berendsen iso -500 -500 1000.0 modulus 20000

# Run 0.5 ns equilibration
#
dump                1 all custom 1000 eq.${NAME}.dump id type x y z vx vy vz
dump                1 all custom 1000 eq.liquid_density_MLmW.dump id type x y z vx vy vz
run                 100000
Per MPI rank memory allocation (min/avg/max) = 3.506 | 3.508 | 3.511 Mbytes
Step Temp Press Volume TotEng KinEng PotEng c_1[4] Density 
     630          215    824.17143       125000   -42505.327    2675.0087   -45180.336 2.7295415e-33   0.99914793 
     700    137.13132   -401.99681    125917.68   -41679.315    1706.1743   -43385.489   0.25199223   0.99186624 
     800    167.99558   -608.29861     126195.4   -40929.565    2090.1845    -43019.75   0.57079003   0.98968341 
     900    187.86131   -350.85401    126281.72   -40508.514    2337.3519   -42845.865   0.92708789   0.98900693 
    1000     197.5937   -307.37329    126548.34   -40237.362    2458.4413   -42695.803    1.3316715   0.98692322 
    1100    207.04477   -444.87642    126513.02   -40055.376    2576.0306   -42631.407     1.681155   0.98719868 
    1200    208.35823   -514.80885    126919.98    -40087.32    2592.3725   -42679.692    1.9856628   0.98403337 
    1300    210.28506   -244.20045    127202.17   -40090.117    2616.3459   -42706.463    2.3259256    0.9818503 
    1400    206.63346    -611.9388    127311.96    -40110.89    2570.9131   -42681.803    2.5959442   0.98100363 
    1500    207.68648   -233.43991    127386.95   -40060.824    2584.0147   -42644.839    2.9423699    0.9804261 
    1600    216.57011   -441.73734    127562.91   -39974.367    2694.5439   -42668.911    3.2449083   0.97907373 
    1700    211.93761   -490.65747    127827.21    -40028.13    2636.9068   -42665.037    3.4899084   0.97704938 
    1800    213.87166   -410.71332    127679.71   -40130.577      2660.97   -42791.547     3.709471    0.9781781 
    1900    217.65926   -642.91192    127758.88   -40146.936     2708.095   -42855.031    3.9903031   0.97757192 
    2000    215.34918   -491.77584    127879.98   -40108.716    2679.3532   -42788.069    4.3420208   0.97664614 
    2100    215.16536   -414.65945    127876.61   -40072.143    2677.0661   -42749.209    4.6450786   0.97667187 
    2200     218.8848   -414.47563    128149.81   -40116.805     2723.343   -42840.148    4.9478966   0.97458974 
    2300    218.54501   -461.64918    128336.31   -40111.752    2719.1154   -42830.867    5.1321755   0.97317345 
    2400    221.21298   -563.53147    128477.21   -40143.003      2752.31   -42895.313    5.3209227   0.97210618 
    2500    220.20055   -407.55617    128629.25   -40127.804    2739.7135   -42867.517     5.605609   0.97095718 
    2600    217.65822   -566.01938    128772.09   -40092.096    2708.0821   -42800.178    5.9168835    0.9698801 
    2700    217.28602   -549.29213       128599    -40124.41    2703.4511   -42827.861    6.1049397   0.97118556 
    2800    223.60953   -463.58154    128664.08   -40131.133    2782.1277    -42913.26    6.3533456   0.97069431 
    2900    217.82477   -652.14484    128704.98   -40231.307    2710.1543   -42941.462     6.556521   0.97038583 
    3000     218.2824   -388.41236    128791.67   -40266.682     2715.848    -42982.53    6.7807759   0.96973268 
    3100    215.71714   -574.87264    128964.16   -40252.479    2683.9314   -42936.411    7.0302905   0.96843568 
    3200    218.09142   -628.52993    129067.75   -40325.483    2713.4719   -43038.955    7.3313423   0.96765835 
    3300    217.93435   -351.03569    129140.54   -40339.698    2711.5176   -43051.215    7.5539317   0.96711294 
    3400    217.04907   -521.95883    129437.43   -40394.976    2700.5031   -43095.479    7.6407156   0.96489473 
    3500    219.75297   -492.96696    129331.82   -40444.294    2734.1447   -43178.439    7.7581027   0.96568264 
    3600    212.44806   -431.77372    129374.35   -40493.709    2643.2578   -43136.967    7.8409744   0.96536518 
    3700    213.14663   -501.56341    129536.57   -40554.189    2651.9493   -43206.138    8.1138353   0.96415621 
    3800    215.94918   -343.74895    129433.54   -40518.158    2686.8184   -43204.977    8.2331186   0.96492367 
    3900    212.37597   -467.57278    129303.44   -40553.344    2642.3609   -43195.705    8.4178107   0.96589461 
    4000    211.76009   -446.49938    129316.06   -40547.704    2634.6981   -43182.402    8.6119889   0.96580034 
    4100    214.41805   -558.64796     129318.3   -40529.998    2667.7681   -43197.766    8.7670398   0.96578361 
    4200    215.97018   -286.88487    129540.68   -40544.993    2687.0797   -43232.073    8.8046744   0.96412565 
    4300    214.03054   -190.09354    129797.93   -40553.522    2662.9468   -43216.469    8.9763777   0.96221484 
    4400    216.90907   -411.38389    130216.13   -40565.789    2698.7613    -43264.55    9.1430988   0.95912458 
    4500    214.54723   -603.33479    130288.04    -40590.68    2669.3755   -43260.056    9.3026649   0.95859524 
    4600    216.22269   -551.17706    130279.51   -40653.882    2690.2213   -43344.104    9.4304072     0.958658 
    4700    215.87139   -542.42515    130309.04    -40589.56    2685.8505   -43275.411    9.5981181   0.95844069 
    4800    211.53804   -528.40946    130388.56    -40658.14    2631.9354   -43290.075    9.9025556   0.95785618 
    4900     218.5021   -522.27561    130570.89   -40538.862    2718.5816   -43257.444    9.9819807   0.95651862 
    5000    219.53422   -440.27463    130680.78   -40508.313    2731.4231   -43239.736    10.054668   0.95571433 
    5100    217.64407   -498.22197    130724.81   -40578.323     2707.906   -43286.229    10.201868   0.95539239 
    5200    217.37659   -413.23959    130750.16   -40652.436    2704.5781   -43357.014     10.32447   0.95520716 
    5300    217.25792   -610.72362    130952.55   -40647.235    2703.1016   -43350.336    10.449357   0.95373089 
    5400    219.09545   -473.68038    130882.63   -40707.375    2725.9639   -43433.339    10.279484   0.95424035 
    5500    215.71664   -474.66373    130979.32   -40732.736    2683.9251   -43416.661    10.562249   0.95353599 
    5600    214.79968   -491.94042     131056.5   -40734.904    2672.5164    -43407.42    10.652394   0.95297444 
    5700    211.20014   -424.87068    130967.69   -40731.642    2627.7312   -43359.374    10.872808    0.9536206 
    5800    215.25714   -489.59246    131004.61   -40772.081    2678.2081   -43450.289    10.854544   0.95335187 
    5900    211.78266   -539.84775     131070.1   -40820.351     2634.979    -43455.33    11.110702    0.9528755 
    6000     216.2072   -370.53588    131300.74    -40821.67    2690.0286   -43511.699    11.117737   0.95120174 
    6100    215.51964    -340.5697    131566.67   -40779.214     2681.474   -43460.688    11.239683   0.94927912 
    6200    217.13954   -480.82135    131788.99   -40868.344    2701.6287   -43569.972    11.395021   0.94767774 
    6300    212.88809   -545.12747     131801.2   -40846.467    2648.7326     -43495.2    11.478499   0.94758993 
    6400    215.75384    -414.5042    131793.29   -40825.804    2684.3879   -43510.192    11.592455    0.9476468 
    6500    214.86569   -576.22453    131704.97   -40778.561    2673.3377   -43451.899    11.656307   0.94828233 
    6600    213.80746   -336.27233    131570.53   -40841.829    2660.1713       -43502    11.631288   0.94925129 
    6700    213.43009   -530.64878    131656.77   -40916.282    2655.4761   -43571.758    11.823665   0.94862949 
    6800    213.72344    -426.5216    131655.57   -40849.912    2659.1259   -43509.038    11.955476   0.94863808 
    6900    215.54799   -510.05267    131763.98   -40801.347    2681.8267   -43483.174    11.915215    0.9478576 
    7000    217.15025   -497.79866    131478.74   -40806.511     2701.762   -43508.273    11.982793   0.94991399 
    7100     217.1793   -329.20465    131587.18   -40820.715    2702.1234   -43522.839    11.962846   0.94913116 
    7200    210.95055   -520.76946    131649.69   -40877.143    2624.6259   -43501.769    12.237692   0.94868051 
    7300    211.65503   -675.88808    131621.37   -40927.444     2633.391   -43560.835    12.317703    0.9488846 
    7400    215.77086   -401.75329    131678.29   -40948.893    2684.5998   -43633.493    12.393695   0.94847441 
    7500    215.53723   -349.54654    131807.42    -40921.51    2681.6929   -43603.202    12.466784   0.94754523 
    7600    209.65223   -508.89394    131686.02    -41004.05    2608.4723   -43612.522     12.57992   0.94841877 
    7700    214.28479   -423.17713    131986.32   -40911.812    2666.1102   -43577.922    12.710517   0.94626089 
    7800    216.88263    -418.3121    132042.63   -40893.753    2698.4323   -43592.186    12.725311   0.94585737 
    7900    213.69178   -521.01364     132124.6   -40966.017    2658.7319   -43624.749    12.823579   0.94527056 
    8000    213.85743   -519.55493     132108.4   -40947.382     2660.793   -43608.175    12.918264   0.94538642 
    8100    213.55544   -545.23155    132102.42   -41013.293    2657.0357   -43670.329    13.027616   0.94542921 
    8200    210.16778   -432.32434    132092.17   -41036.495    2614.8867   -43651.382    12.966837   0.94550258 
    8300    213.89995   -530.10019    132396.16   -41040.614     2661.322   -43701.936      13.1589   0.94333171 
    8400    215.23358    -477.5053    132300.62   -41014.799    2677.9149   -43692.714    13.253335   0.94401287 
    8500    220.67825   -528.52669    132302.15   -40961.535     2745.657   -43707.192    13.199304   0.94400198 
    8600    213.94018   -464.79501    132272.53   -40983.481    2661.8226   -43645.303    13.297676   0.94421336 
    8700    214.67976   -372.19996    132311.88   -40967.178    2671.0243   -43638.202    13.373195   0.94393257 
    8800    212.06417   -524.88875    132404.43   -41003.347    2638.4814   -43641.828    13.408879   0.94327274 
    8900    210.44079   -621.90589    132310.85   -41090.926    2618.2836   -43709.209    13.343863   0.94393987 
    9000    213.60704   -410.30357    132240.38   -41041.717    2657.6776   -43699.394    13.545597   0.94444291 
    9100      208.004   -444.40746    132334.26   -41109.308    2587.9652   -43697.273    13.676218   0.94377289 
    9200    214.99119   -494.06199    132356.84   -41016.358    2674.8991   -43691.257    13.944475   0.94361195 
    9300    211.21942   -425.16548    132388.96   -41055.571    2627.9712   -43683.542    13.915481   0.94338298 
    9400    216.47089   -386.81147    132429.58   -41021.181    2693.3094   -43714.491    13.991931   0.94309363 
    9500    213.42637   -444.73524    132402.21   -41046.009    2655.4298   -43701.439    14.060647   0.94328859 
    9600    212.94127   -482.17836    132580.77   -41025.667    2649.3942   -43675.062    14.156586   0.94201815 
    9700    214.87982   -769.33882    132637.61   -40965.275    2673.5135   -43638.788    14.239441   0.94161448 
    9800    213.63466   -532.02779    132632.32   -41025.281    2658.0214   -43683.302     14.28766   0.94165202 
    9900    208.75995   -468.17643    132676.18   -41089.176    2597.3707   -43686.547    14.400419   0.94134069 
   10000    213.12473     -490.821    132885.72   -41087.402    2651.6768   -43739.079    14.404623   0.93985635 
   10100    212.77029   -527.12215    132971.17   -41045.628     2647.267   -43692.895    14.485547    0.9392524 
   10200    212.73548   -561.32642    132803.22    -41106.67    2646.8338   -43753.504    14.633399   0.94044024 
   10300    213.60267   -487.55789    133012.25   -41094.663    2657.6233   -43752.286    14.740823   0.93896232 
   10400    212.92619    -459.0154    133063.69   -41043.047    2649.2066   -43692.254    14.735749   0.93859935 
   10500    214.35049   -504.71187    133081.05   -41013.221    2666.9276   -43680.148    14.681035   0.93847689 
   10600    218.39996    -390.1755     133129.3   -40938.649    2717.3107    -43655.96    14.879171   0.93813679 
   10700    215.23895   -493.07466    132984.32   -40931.675    2677.9817   -43609.657    14.973057   0.93915955 
   10800    219.42367   -345.79192    133036.42    -40914.21    2730.0477   -43644.258     15.06026    0.9387917 
   10900    216.60936   -511.75899    132931.82   -40950.013    2695.0323   -43645.046    14.939506   0.93953046 
   11000    219.15222   -534.48503    132921.35   -40950.713    2726.6702   -43677.383    15.032744   0.93960445 
   11100    215.17823   -644.48428    132940.31   -41002.241    2677.2263   -43679.467    15.092111   0.93947043 
   11200    214.36149   -505.89933    132870.37   -41002.276    2667.0645    -43669.34    15.141352   0.93996496 
   11300    214.38432   -420.34152    132845.98   -40992.136    2667.3485   -43659.485    15.197279   0.94013755 
   11400    216.40803   -549.87495       132839   -41004.123    2692.5273    -43696.65    15.341694    0.9401869 
   11500     213.4642   -555.59776    132882.83   -41032.602    2655.9004   -43688.503     15.50648   0.93987681 
   11600    212.07025   -426.62512    132783.34   -41040.545    2638.5571   -43679.102    15.529996   0.94058101 
   11700    218.24855   -418.56628    132933.34   -40934.774    2715.4269   -43650.201    15.610738   0.93951966 
   11800     210.6218   -631.38294    132875.09   -41004.156    2620.5356   -43624.692    15.857955   0.93993157 
   11900    217.46034   -450.61082    132950.05   -41030.419      2705.62   -43736.039     15.86991   0.93940163 
   12000    215.40042   -415.51311    132941.72   -41030.782    2679.9907   -43710.773    15.947499   0.93946044 
   12100      219.117   -524.91997    132971.48   -40982.085    2726.2321   -43708.317    16.126558   0.93925018 
   12200    216.04711    -727.0124    132969.82   -40983.187    2688.0368   -43671.224    16.050119   0.93926191 
   12300    214.74643   -515.77003       133003   -41000.194    2671.8539   -43672.048    15.973214   0.93902763 
   12400    218.11199    -612.1119    133182.82   -40988.549    2713.7278   -43702.277    16.031814   0.93775974 
   12500    215.01959   -499.61771    133142.64   -41097.247    2675.2525   -43772.499    15.968013   0.93804279 
   12600    217.69474   -322.35071    133235.33   -41023.686    2708.5364   -43732.223    16.280424   0.93739017 
   12700    215.12584   -503.22437     133358.3   -41017.962    2676.5744   -43694.537    16.430351   0.93652585 
   12800    219.86723   -630.65164    133219.83   -41015.036    2735.5663   -43750.602    16.409363   0.93749928 
   12900    216.50708   -456.93997    133095.72   -41077.879    2693.7597   -43771.639    16.505167   0.93837344 
   13000    212.75784   -354.80599    133309.46   -41011.209     2647.112   -43658.321    16.419409   0.93686893 
   13100    217.15941   -656.51939    133322.51   -41015.207    2701.8759   -43717.083    16.392146   0.93677723 
   13200    221.32257   -603.88678    133273.23   -40931.388    2753.6736   -43685.062    16.499143   0.93712362 
   13300    218.58612   -592.53353    133103.67   -40980.535    2719.6269   -43700.162    16.563621    0.9383174 
   13400    212.45231   -454.72585     133070.3   -41054.684    2643.3106   -43697.995    16.656649   0.93855275 
   13500    216.08782   -462.17819    133078.76   -41074.142    2688.5433   -43762.686    16.712093   0.93849308 
   13600    215.92542    -382.3483    133382.66   -41096.354    2686.5228   -43782.877     16.76711   0.93635481 
   13700    218.35973   -310.79662    133452.01   -41105.988    2716.8102   -43822.798    16.760693   0.93586818 
   13800    215.03846   -546.92981    133536.25   -41014.934    2675.4873   -43690.421    16.794857   0.93527779 
   13900    217.53162   -463.52812    133394.97    -41061.33    2706.5069   -43767.837     16.79209   0.93626838 
   14000    215.12284   -575.11358    133615.32   -41044.401    2676.5371   -43720.939    16.900835   0.93472435 
   14100    211.58699   -518.83209     133325.1   -41049.945    2632.5444   -43682.489    17.036738   0.93675902 
   14200    213.70275   -767.72064    133407.98    -41089.53    2658.8684   -43748.399    17.204103   0.93617705 
   14300    211.99566   -442.50937    133387.01   -41143.259     2637.629   -43780.888    17.363591   0.93632427 
   14400    215.75795    -740.8718    133264.73   -41109.348    2684.4391   -43793.787    17.337645   0.93718336 
   14500    216.02234   -454.73066     133243.5   -41065.184    2687.7285   -43752.912    17.201544   0.93733271 
   14600     215.5477   -454.78391    133383.51   -41078.918    2681.8232   -43760.742    17.233104   0.93634882 
   14700    211.54455   -609.76978       133354   -41124.348    2632.0163   -43756.364    17.313252   0.93655601 
   14800      211.273   -488.37476    133458.88   -41158.217    2628.6378   -43786.855    17.440384   0.93582004 
   14900    209.15016   -358.67314    133317.08    -41235.22    2602.2257   -43837.445    17.635933    0.9368154 
   15000    210.06174    -425.3936    133469.68   -41236.127    2613.5674   -43849.694    17.609917   0.93574429 
   15100    207.22613   -648.60316    133435.16   -41268.064     2578.287   -43846.351      17.5914   0.93598638 
   15200     211.3922   -505.93501    133290.66   -41199.224    2630.1209   -43829.345    17.420265   0.93700107 
   15300    214.28506   -462.04064    133486.58   -41205.429    2666.1135   -43871.543    17.530867   0.93562582 
   15400    215.57156   -445.28234    133653.79   -41192.192      2682.12   -43874.312    17.678337   0.93445529 
   15500    212.92585   -572.95744    133547.92   -41174.382    2649.2023   -43823.585     17.73102   0.93519605 
   15600    217.42597   -430.95209    133592.98   -41115.833    2705.1925   -43821.025    17.715869   0.93488068 
   15700    214.54544   -572.51692     133433.2   -41206.735    2669.3532   -43876.088    17.767643    0.9360001 
   15800     212.1006   -474.37446    133298.02   -41193.376    2638.9347   -43832.311    17.875435   0.93694937 
   15900    212.23247   -604.04727     133213.9   -41232.556    2640.5755   -43873.131    17.847054   0.93754101 
   16000     212.3963   -382.86297    133192.11   -41167.114    2642.6137   -43809.728    17.820628   0.93769434 
   16100     215.3607   -514.89231    133228.41   -41114.207    2679.4966   -43793.704     17.94867   0.93743887 
   16200    216.29429   -447.04353    133375.31   -41179.905    2691.1122   -43871.017    17.924351   0.93640638 
   16300    210.07591   -383.78641     133302.5   -41197.562    2613.7437   -43811.305    18.065011   0.93691783 
   16400    216.38299   -451.65786    133393.21   -41094.695    2692.2158   -43786.911    18.152711   0.93628075 
   16500    219.62229   -466.63248    133456.44   -41078.664    2732.5188   -43811.183    18.270085    0.9358371 
   16600    217.45812   -504.78924    133562.57   -41064.288    2705.5925    -43769.88    18.298394   0.93509348 
   16700    213.74257   -371.02301    133456.89   -41101.754    2659.3639   -43761.118    18.330932   0.93583394 
   16800    216.18465   -427.49216    133546.83    -41102.07     2689.748   -43791.818    18.332189   0.93520372 
   16900    218.15096   -483.31352    133577.17   -41088.755    2714.2127   -43802.968    18.390326   0.93499131 
   17000    214.11456   -481.05502    133700.41   -41097.755    2663.9922   -43761.747    18.419529   0.93412949 
   17100    217.43576   -495.69083    133776.13   -41017.989    2705.3143   -43723.303    18.528393   0.93360074 
   17200    221.41432   -641.23082    133699.68   -41033.068    2754.8151   -43787.883      18.6487   0.93413456 
   17300    218.73026   -438.78978    133608.89   -41096.518    2721.4203   -43817.939    18.714478   0.93476934 
   17400    217.93058   -497.08244     133707.4   -41108.941    2711.4708   -43820.412    18.879291   0.93408064 
   17500    215.68558   -479.40767    133489.67   -41105.226    2683.5387   -43788.764     18.81619   0.93560416 
   17600    219.01068   -487.27513    133356.22   -41090.644    2724.9092   -43815.553    18.742371   0.93654041 
   17700    216.33598   -583.61501    133429.21   -41123.105    2691.6309   -43814.735    18.746419   0.93602809 
   17800    213.83601   -593.81546    133270.99   -41129.462    2660.5265   -43789.989    18.885886   0.93713938 
   17900    219.03958   -432.41797    133245.68    -41093.38    2725.2689   -43818.649    18.993283    0.9373174 
   18000    218.77647    -460.2973    133378.33   -41042.468    2721.9952   -43764.463    19.008019   0.93638518 
   18100    215.09808   -436.88193    133389.31   -41160.008    2676.2291   -43836.237    19.010749   0.93630811 
   18200     213.4194   -441.23949    133394.99   -41166.986    2655.3431   -43822.329     19.06753   0.93626821 
   18300    219.60471   -516.36406    133388.74   -41082.262    2732.3001   -43814.563    19.174059   0.93631212 
   18400     213.3723   -674.38883     133469.1   -41153.775    2654.7571   -43808.533    19.267785   0.93574833 
   18500     218.6941   -440.12696    133351.89   -41127.071    2720.9704   -43848.041    19.314114   0.93657081 
   18600    214.03651   -601.67367     133421.7   -41179.348    2663.0211   -43842.369    19.253174   0.93608081 
   18700    212.41142   -368.85836    133396.91   -41138.234    2642.8019   -43781.036    19.352989   0.93625478 
   18800    213.62401   -716.35491    133410.76   -41113.682    2657.8888   -43771.571    19.278658   0.93615756 
   18900    218.40954   -554.69178    133546.72   -41143.174    2717.4299   -43860.604    19.274895   0.93520448 
   19000    216.79639   -542.45601    133439.68   -41122.232    2697.3592   -43819.591    19.544904   0.93595466 
   19100    217.09246   -521.94333    133417.63   -41179.321     2701.043   -43880.364    19.498278   0.93610934 
   19200    216.67742   -524.03588    133329.72   -41142.748     2695.879   -43838.627    19.878698   0.93672656 
   19300    220.82784   -496.42601    133297.08   -41090.507    2747.5181   -43838.025    19.888739   0.93695596 
   19400    221.33505    -331.6422    133489.57   -41105.289    2753.8288   -43859.118     19.81165    0.9356049 
   19500    218.26742   -485.53993    133562.65   -41107.979    2715.6616   -43823.641    19.753839   0.93509294 
   19600    216.18602   -554.68507    133440.52   -41156.434    2689.7651   -43846.199    19.759495   0.93594881 
   19700    218.07051   -446.80267    133520.07   -41143.618    2713.2117    -43856.83    19.744119   0.93539114 
   19800     216.9076    -426.9643    133359.12   -41184.955    2698.7429   -43883.698    19.894972   0.93652003 
   19900    215.60021   -472.67136     133428.4   -41186.954    2682.4765   -43869.431    19.919353   0.93603379 
   20000    218.12387   -401.23599    133431.17   -41239.571    2713.8756   -43953.447    20.007022   0.93601439 
   20100    214.25397   -538.48124    133557.53   -41171.733    2665.7267   -43837.459    20.174973   0.93512882 
   20200    216.47836   -468.27494    133379.09   -41216.208    2693.4024   -43909.611    20.160393   0.93637987 
   20300    216.46398   -478.21043     133464.1   -41245.382    2693.2235   -43938.606    20.170368   0.93578344 
   20400    216.21528   -482.30484    133541.67   -41237.872    2690.1292   -43928.001    20.011766   0.93523986 
   20500    216.61508   -343.01695    133652.08   -41210.675    2695.1034   -43905.779    20.164027   0.93446724 
   20600    214.04348   -503.56696    133776.95   -41237.331    2663.1078   -43900.438    20.396362   0.93359497 
   20700    213.31337   -444.41151    133959.69   -41188.618    2654.0238   -43842.642    20.476913   0.93232145 
   20800    213.66548   -404.28995     134164.4   -41183.299    2658.4048   -43841.703    20.502841   0.93089887 
   20900    214.88702   -584.89435    134059.34   -41225.692    2673.6031   -43899.295    20.589361   0.93162839 
   21000    214.73539   -464.64412    133906.53   -41317.426    2671.7165   -43989.143    20.594965   0.93269155 
   21100    212.31101   -470.34202    133957.61   -41339.423    2641.5526   -43980.975    20.526487   0.93233591 
   21200    210.04324   -460.12804    133976.62   -41327.162    2613.3373   -43940.499    20.486426   0.93220365 
   21300    213.41543   -516.98841    133984.09   -41345.926    2655.2937   -44001.219    20.665216   0.93215167 
   21400    212.53941   -379.13954    133876.25   -41315.196    2644.3943   -43959.591     20.56615   0.93290253 
   21500    213.30602   -594.30703    133967.14   -41316.731    2653.9324   -43970.664     20.69556    0.9322696 
   21600    214.04347   -632.87542    133933.98   -41254.209    2663.1076   -43917.316    20.771971   0.93250042 
   21700    216.24598   -582.00791    133878.06   -41232.928    2690.5111   -43923.439    20.696426   0.93288991 
   21800    218.22572   -343.45106     133960.7   -41220.679    2715.1428   -43935.822    20.569372   0.93231443 
   21900    212.96091   -500.63215     133848.7   -41239.398    2649.6386   -43889.037    20.606047   0.93309452 
   22000    211.64853   -452.45433    133887.08   -41267.715    2633.3101   -43901.025    20.794307   0.93282703 
   22100    216.63014   -346.59401    133922.99   -41211.034    2695.2908   -43906.325    20.763676    0.9325769 
   22200    212.67164   -425.67668    133924.97   -41245.934    2646.0395   -43891.974    20.801698   0.93256316 
   22300    214.55904   -536.54231    133760.12    -41222.46    2669.5224   -43891.982    20.929254   0.93371247 
   22400    217.54597   -397.89193    133922.94   -41174.509    2706.6855   -43881.195    21.043955   0.93257729 
   22500    216.99236   -509.45837    134172.09   -41181.577    2699.7974   -43881.375     21.10474   0.93084556 
   22600    215.13805   -430.23651    134109.78   -41156.941    2676.7263   -43833.668    21.029424   0.93127806 
   22700    217.34596   -496.43625    134011.78   -41161.485    2704.1969   -43865.682    20.826877   0.93195905 
   22800    220.96849   -531.35614    133967.53   -41144.831    2749.2681   -43894.099    20.825156   0.93226691 
   22900    215.57469   -521.19719    134081.29    -41206.16     2682.159   -43888.319    21.181961   0.93147591 
   23000    216.92887   -463.78285    134146.52   -41182.878    2699.0075   -43881.885     21.34546   0.93102297 
   23100    212.14282   -529.64574    133973.83   -41279.259      2639.46   -43918.719    21.255737   0.93222302 
   23200    214.25386   -432.15504    134118.21   -41227.794    2665.7253   -43893.519    21.411199   0.93121949 
   23300    211.22597   -596.03896    133853.01   -41269.328    2628.0526   -43897.381     21.23393   0.93306446 
   23400    216.95041   -466.30699    133883.37   -41194.316    2699.2756   -43893.591    21.240919   0.93285293 
   23500    213.25553   -499.18878    134055.01   -41224.123    2653.3042   -43877.428    21.195089    0.9316585 
   23600    214.31866   -398.37943     133965.4   -41202.092    2666.5316   -43868.623    21.267767    0.9322817 
   23700     214.2052   -488.17401    133925.36   -41236.843    2665.1199   -43901.963    21.394065   0.93256043 
   23800    213.79355   -626.03312     133874.3    -41293.71    2659.9982   -43953.708    21.603107   0.93291608 
   23900    212.87002   -499.78424    133853.98   -41307.886    2648.5078   -43956.394    21.598051   0.93305775 
   24000     213.4848   -424.05741     133961.1   -41243.596    2656.1568   -43899.753    21.524819   0.93231162 
   24100     216.3613   -526.50204    134027.01   -41259.931    2691.9459   -43951.877    21.517604   0.93185311 
   24200    214.14278   -568.92642    134116.74   -41323.812    2664.3433   -43988.155    21.494748   0.93122973 
   24300    213.79122   -412.91836    134136.22   -41288.016    2659.9693   -43947.985    21.602089   0.93109449 
   24400    210.07593   -480.38638    134048.86   -41330.926    2613.7439    -43944.67    21.663965   0.93170124 
   24500    214.58404   -448.92042    134018.29   -41283.702    2669.8335   -43953.535    21.665634   0.93191381 
   24600    215.22259   -410.16857    134080.46   -41276.257    2677.7782   -43954.036    21.739618   0.93148171 
   24700    214.15514   -465.96887    134185.72   -41294.435    2664.4971   -43958.932    21.883712   0.93075096 
   24800    214.85981   -451.72065    134205.99   -41293.069    2673.2646   -43966.333    21.777025   0.93061039 
   24900     216.1323   -474.39491    134189.83   -41240.855    2689.0967   -43929.951    21.904429   0.93072244 
   25000    218.38658   -470.16082    134122.89   -41230.605    2717.1442    -43947.75    21.854905   0.93118698 
   25100    216.14532    -459.8906     134084.3   -41236.833    2689.2588   -43926.092    21.862571   0.93145497 
   25200    214.18843   -495.69828    133981.04    -41276.99    2664.9112   -43941.902    21.995275   0.93217284 
   25300    215.21883   -538.69526    133952.72   -41290.404    2677.7315   -43968.136    21.906197   0.93236996 
   25400    217.17379   -598.60121    134022.91   -41276.784    2702.0549   -43978.839     21.93473   0.93188168 
   25500    214.31122   -589.53202    134132.28   -41223.847     2666.439   -43890.286    21.870917   0.93112181 
   25600    214.56388   -559.47027    134205.96   -41298.816    2669.5826   -43968.398    21.983949   0.93061059 
   25700    212.37914   -642.52965    134179.25   -41312.662    2642.4002   -43955.062    21.948813   0.93079588 
   25800    216.68621   -528.30569    134143.19   -41286.112    2695.9884     -43982.1    21.977228   0.93104611 
   25900    215.57744   -533.18099    134254.94   -41238.131    2682.1932   -43920.324    22.114562   0.93027111 
   26000     217.8011   -399.23603    134255.36   -41169.869    2709.8598   -43879.729    22.199822   0.93026818 
   26100    212.25159    -516.0211     134477.2   -41238.161    2640.8133   -43878.974    22.134787   0.92873357 
   26200    218.27372   -334.94679    134386.64    -41228.73      2715.74    -43944.47     22.23422   0.92935942 
   26300    215.89819   -556.29091    134379.42   -41191.676     2686.184    -43877.86    22.265906   0.92940937 
   26400      216.642   -602.03626    134181.74   -41188.074    2695.4383   -43883.512    22.208274   0.93077859 
   26500     214.1141   -595.99345    134092.23   -41241.721    2663.9865   -43905.708    22.263048   0.93139989 
   26600    214.27116   -466.04521    134169.04   -41296.186    2665.9406   -43962.127    22.456798    0.9308667 
   26700    212.11437   -538.59919    134052.89   -41328.025     2639.106   -43967.131    22.557054   0.93167327 
   26800    213.85654   -499.86916    133882.83   -41260.253     2660.782   -43921.035    22.636129   0.93285667 
   26900    214.38556   -453.37579    133890.38   -41251.077    2667.3639   -43918.441    22.454779   0.93280409 
   27000    215.50646   -452.77139     133897.5   -41305.309    2681.3101   -43986.619    22.493519   0.93275447 
   27100    212.42671   -514.48198    133864.22    -41302.71    2642.9921   -43945.702    22.556485   0.93298636 
   27200    213.95691   -544.24414    133679.13    -41312.13    2662.0307    -43974.16    22.745654   0.93427814 
   27300    208.47109   -557.58084    133585.28    -41325.13    2593.7767   -43918.906    22.799419   0.93493455 
   27400    213.73215   -490.21159    133712.75   -41261.804    2659.2342   -43921.039    22.733571   0.93404325 
   27500    216.17177   -462.53866    133706.02   -41200.005    2689.5878   -43889.593    23.046931   0.93409025 
   27600    213.86127   -711.17467    133550.52   -41226.289    2660.8407    -43887.13    23.003916   0.93517791 
   27700    214.98737   -562.15244    133418.94   -41226.418    2674.8517    -43901.27    22.914101   0.93610018 
   27800    218.40819    -365.9934     133775.7   -41153.398    2717.4131   -43870.811    23.003246   0.93360372 
   27900     214.0463    -624.1505    133774.02   -41176.985    2663.1429   -43840.128    23.056993   0.93361547 
   28000    214.19005    -476.8735    133826.69   -41219.764    2664.9314   -43884.695    23.126798   0.93324802 
   28100    217.61717   -593.28617    133851.55   -41218.689    2707.5713    -43926.26    23.322765   0.93307464 
   28200    211.21302   -673.06245    133925.65   -41273.446    2627.8915   -43901.338    23.267003   0.93255841 
   28300    212.40207   -472.58788    133860.75   -41267.829    2642.6856   -43910.515    23.196035   0.93301056 
   28400    214.75474   -502.47115    133881.72   -41315.109    2671.9572   -43987.066    23.119469   0.93286442 
   28500    214.05283   -434.16323    133935.51   -41332.365    2663.2241   -43995.589     23.32516   0.93248975 
   28600    216.61738   -361.09613       134121    -41290.04     2695.132   -43985.172    23.324693   0.93120013 
   28700    213.94755   -197.43046    134173.93   -41294.299    2661.9143   -43956.213    23.420048   0.93083274 
   28800    217.79597   -455.38027    134199.11   -41266.073    2709.7959   -43975.869    23.321532   0.93065815 
   28900    215.02442   -548.85272    134099.11   -41246.755    2675.3125   -43922.067    23.377291   0.93135213 
   29000    213.91165   -387.99756    134192.81   -41319.177    2661.4676   -43980.644    23.429796   0.93070178 
   29100    215.43216   -298.32057    134323.36   -41254.853    2680.3857   -43935.239    23.651365   0.92979724 
   29200    215.96979   -558.67336    134247.63   -41223.197    2687.0748   -43910.272    23.784285   0.93032175 
   29300    212.64457   -463.24873    134385.11    -41279.54    2645.7027   -43925.243    23.842597   0.92937003 
   29400    210.04698   -428.26168    134427.59    -41323.32    2613.3837   -43936.704    23.845113   0.92907629 
   29500    211.46831   -366.08125    134271.46     -41360.9    2631.0678   -43991.968    23.764936   0.93015663 
   29600    217.04615   -523.16771     134384.7   -41285.822    2700.4668   -43986.288    23.778603   0.92937285 
   29700    211.94772   -479.41949    134379.64   -41335.782    2637.0325   -43972.814    23.773309   0.92940786 
   29800    215.34654   -448.42782    134280.28   -41315.312    2679.3204   -43994.633    23.951079   0.93009555 
   29900    213.09004   -406.01756    134268.01   -41349.551    2651.2452   -44000.796    23.843375   0.93018057 
   30000    220.84397   -337.93313    134498.65   -41337.769    2747.7188   -44085.487    23.759956   0.92858548 
   30100    215.52912   -455.30768    134717.31   -41348.321     2681.592   -44029.913    23.908015   0.92707825 
   30200    211.16744   -425.74709    134587.77   -41376.055    2627.3244   -44003.379    24.024963   0.92797056 
   30300    215.08036   -502.28392    134415.44   -41350.028    2676.0086   -44026.037      23.8704   0.92916029 
   30400    214.33216   -408.94048    134469.31    -41349.37    2666.6995   -44016.069    23.813022   0.92878806 
   30500    213.78769   -520.23266    134449.41   -41358.319    2659.9253   -44018.244    23.861919   0.92892558 
   30600    214.89095   -557.28685    134245.81   -41345.521     2673.652   -44019.173    24.020085   0.93033437 
   30700    212.31222   -534.27832    134299.25   -41348.521    2641.5677   -43990.089     24.26781   0.92996415 
   30800    214.62812   -573.29442    134275.43   -41286.539    2670.3818    -43956.92    24.236569   0.93012915 
   30900    211.89352   -446.73758    134200.82   -41402.154    2636.3582   -44038.513    24.011683   0.93064628 
   31000    210.16009   -548.03615    134281.16   -41434.859    2614.7911    -44049.65    24.199851   0.93008944 
   31100    215.24881   -552.48292    134237.03   -41426.012    2678.1044   -44104.117    24.214808   0.93039522 
   31200     212.8418   -497.73754    134281.06   -41438.042    2648.1566   -44086.199    24.239076   0.93009014 
   31300    215.32213   -622.99848    134256.34   -41403.773    2679.0167    -44082.79    24.156875   0.93026142 
   31400    217.32972   -510.28772    134337.95   -41362.627    2703.9949   -44066.622    24.114566    0.9296963 
   31500     213.1725   -679.90289    134183.68   -41413.455    2652.2712   -44065.726    24.329542   0.93076511 
   31600    217.17796   -600.27006     134085.1   -41346.008    2702.1067   -44048.115    24.472845   0.93144946 
   31700    214.81993   -679.18048     133925.1   -41381.509    2672.7683   -44054.278    24.449315   0.93256221 
   31800    215.85936    -612.6987    133920.15   -41314.839    2685.7008    -44000.54    24.553245   0.93259674 
   31900    219.16958   -499.46265    134180.64   -41304.352    2726.8862   -44031.238    24.367899   0.93078623 
   32000    221.42222   -506.84562    134285.14   -41309.316    2754.9133    -44064.23    24.499856    0.9300619 
   32100    216.33037   -566.48661    134128.94   -41336.499     2691.561    -44028.06    24.556417     0.931145 
   32200       215.25   -535.48853    134119.25   -41336.526    2678.1192   -44014.645    24.604279    0.9312123 
   32300    221.26036   -447.14841    134185.56   -41326.923    2752.8995   -44079.822    24.367487   0.93075208 
   32400    214.64006   -431.16119    134077.71    -41387.32    2670.5305    -44057.85    24.356592   0.93150074 
   32500    216.71932   -425.46832    134216.38   -41402.925    2696.4003   -44099.325    24.446111   0.93053836 
   32600    217.35613   -580.87152    134317.44   -41347.732    2704.3235   -44052.055    24.633819   0.92983825 
   32700    211.34086   -547.34568    134038.72   -41410.684     2629.482   -44040.166    24.816877   0.93177172 
   32800    212.92651    -412.2559    134195.94   -41437.366    2649.2106   -44086.577    24.741344   0.93068007 
   32900    212.68364   -543.13211     134189.6   -41435.041    2646.1888    -44081.23    24.725517   0.93072407 
   33000    210.67033   -456.96471    133990.67   -41480.349    2621.1394   -44101.489    24.727066   0.93210589 
   33100    217.57577   -479.78244    134140.01   -41405.427    2707.0562   -44112.483    24.690351   0.93106812 
   33200    216.17091   -459.33064    134199.28   -41446.905     2689.577   -44136.482    24.773148   0.93065696 
   33300    211.89857   -444.58584    134110.86   -41378.975    2636.4211   -44015.397     25.11182   0.93127049 
   33400    213.41433   -445.32448    134098.47   -41445.997      2655.28   -44101.277    25.017357   0.93135659 
   33500     214.3287   -413.77955    134226.41   -41411.752    2666.6565   -44078.408    25.058259   0.93046886 
   33600    216.97807   -505.88475    134337.35   -41389.192    2699.6197   -44088.812    25.056019   0.92970044 
   33700    214.59879   -557.28472    134170.85   -41388.036    2670.0169   -44058.053    25.020123   0.93085412 
   33800    216.52943   -482.06993    134287.38   -41394.537    2694.0378   -44088.575     25.17487   0.93004639 
   33900    215.58787   -500.86621    134355.91   -41423.585    2682.3229   -44105.908    25.214615   0.92957203 
   34000    217.55573   -349.15274    134404.63    -41389.86    2706.8069   -44096.667    25.308716   0.92923501 
   34100    215.60936   -523.08707    134362.93    -41428.72    2682.5904    -44111.31    25.157702   0.92952344 
   34200     211.6128   -481.51355       134361   -41444.493    2632.8656   -44077.358    25.205571   0.92953677 
   34300    210.54461   -483.97535    134268.09   -41486.272    2619.5752   -44105.847    25.095418   0.93017997 
   34400    213.89017   -524.64873    134307.49   -41409.577    2661.2004   -44070.777    25.244748   0.92990713 
   34500    211.32446   -598.18398    134115.99   -41432.385    2629.2781   -44061.663    25.306443   0.93123492 
   34600    215.18912   -308.51688    134079.64   -41411.645    2677.3618   -44089.006    25.240526   0.93148739 
   34700    210.27429   -470.21899    134124.44    -41487.16    2616.2119   -44103.372    25.079721   0.93117623 
   34800    212.17864   -531.56475    134174.74     -41474.2    2639.9057   -44114.105     25.17822   0.93082715 
   34900     213.9288     -434.138    134040.71   -41490.478    2661.6809   -44152.159    25.299138   0.93175794 
   35000    208.93083   -584.12071    133924.04   -41549.005    2599.4968   -44148.502     25.20774   0.93256964 
   35100    212.01031    -315.8385    133969.63    -41479.22    2637.8113   -44117.031    25.227867   0.93225229 
   35200    213.23847    -471.6331    134130.86   -41473.965     2653.092   -44127.057    25.428338   0.93113164 
   35300    214.59944   -375.20253       134146   -41457.368     2670.025   -44127.393    25.530008   0.93102657 
   35400    210.77361   -566.77928    134043.58   -41482.672    2622.4245   -44105.097    25.382338   0.93173797 
   35500    215.14728   -420.73228    134217.29   -41380.394    2676.8412   -44057.235    25.394172   0.93053204 
   35600    213.97112   -440.88279    134214.04   -41425.045    2662.2075   -44087.253    25.412864   0.93055456 
   35700    213.92709   -490.95128    134233.03   -41397.904    2661.6597   -44059.563    25.405463   0.93042296 
   35800    214.78771    -401.3912    134183.65   -41438.896    2672.3674   -44111.263    25.453465   0.93076531 
   35900    219.48534   -505.70764    134165.76   -41391.637    2730.8149   -44122.452    25.444424   0.93088945 
   36000    214.76873   -428.18844    134315.33   -41356.419    2672.1313   -44028.551    25.508444   0.92985283 
   36100    218.71196   -462.84019    134425.29   -41377.664    2721.1925   -44098.857    25.576758   0.92909223 
   36200    216.53103   -597.10485    134376.09   -41418.465    2694.0577   -44112.523    25.721935   0.92943243 
   36300    212.60046   -468.86134    134334.16   -41479.807    2645.1539   -44124.961    25.700281   0.92972251 
   36400    217.13157   -431.22335       134404   -41426.167    2701.5295   -44127.697    25.705856   0.92923942 
   36500    215.97626   -547.93639    134572.08   -41413.316    2687.1552   -44100.471    25.778494   0.92807879 
   36600    210.69676   -580.80994     134330.9   -41542.649    2621.4683   -44164.117    25.724363   0.92974504 
   36700    213.91947   -601.42366    134315.12   -41487.968    2661.5648   -44149.532    25.696845   0.92985432 
   36800    213.82857   -400.93827    134256.49   -41477.035    2660.4339   -44137.469    25.773821   0.93026035 
   36900    211.94471   -613.04671    134135.39   -41492.431    2636.9951   -44129.426    25.582772   0.93110025 
   37000    213.00637   -342.55887    134193.89   -41412.939    2650.2041   -44063.143    25.721356   0.93069431 
   37100    216.07888   -454.32904     134286.2   -41379.538    2688.4321    -44067.97    25.771886   0.93005452 
   37200    212.49861   -538.35263    134248.04   -41440.056    2643.8868   -44083.942    25.772646    0.9303189 
   37300    213.25313   -557.99484    134242.65   -41445.102    2653.2743   -44098.376    25.910326   0.93035628 
   37400    215.33228   -656.57953    134044.18   -41477.946     2679.143   -44157.089    25.840868    0.9317338 
   37500    214.91409   -457.32124    134041.44   -41482.234    2673.9398   -44156.174    25.902257   0.93175281 
   37600    213.59779   -594.16568    133893.44   -41433.552    2657.5626   -44091.115    25.844536   0.93278276 
   37700    213.69846   -494.75423    133949.38   -41443.598    2658.8151   -44102.413     25.82116   0.93239323 
   37800    211.07857    -430.8617    134040.86   -41533.179    2626.2187   -44159.397    26.111789   0.93175684 
   37900    215.63917   -389.38106    133951.67   -41495.702    2682.9612   -44178.663    25.830167   0.93237724 
   38000      209.856   -451.45327     134021.1   -41459.629    2611.0076   -44070.637    26.121421   0.93189425 
   38100    216.09488   -365.65282    133922.62   -41411.112    2688.6311   -44099.744    26.223554    0.9325795 
   38200    212.36126   -335.50636    133984.14   -41420.995    2642.1778   -44063.173    26.293784   0.93215127 
   38300    218.06106     -382.983    134167.57   -41359.954    2713.0941   -44073.048    26.354027   0.93087689 
   38400    217.01614   -521.13225    134167.24   -41421.397    2700.0933   -44121.491    26.314888   0.93087915 
   38500    214.87188   -610.57372    134109.08   -41437.794    2673.4147   -44111.209    26.170219   0.93128291 
   38600    215.09518   -375.50849    134133.09   -41401.452     2676.193   -44077.645     26.25563   0.93111616 
   38700    217.21456   -445.90422    134067.59   -41419.047    2702.5621   -44121.609    26.472214   0.93157109 
   38800    218.63758   -470.04113    134117.02   -41452.642    2720.2671    -44172.91     26.49707   0.93122774 
   38900    214.11338   -591.59444    134177.31   -41407.794    2663.9775   -44071.771    26.364052   0.93080936 
   39000    214.28492   -522.16102    134074.02   -41454.327    2666.1118   -44120.439    26.376279   0.93152639 
   39100    216.16496   -637.89641    134030.38   -41421.422     2689.503   -44110.925    26.299061   0.93182972 
   39200    214.94395   -470.38132    133977.99   -41444.343    2674.3114   -44118.654    26.526934   0.93219407 
   39300    210.58046   -451.17639    134053.95   -41427.403    2620.0213   -44047.425    26.498064   0.93166591 
   39400    215.95782   -574.85209    134067.67   -41403.644    2686.9259    -44090.57    26.484008   0.93157056 
   39500    215.96092   -446.72239    134000.98   -41392.272    2686.9645   -44079.236    26.475397    0.9320342 
   39600    213.46058    -432.7854    134064.95   -41438.237    2655.8555   -44094.093    26.424751   0.93158941 
   39700    217.13249   -515.82539    134014.21   -41391.132     2701.541   -44092.673    26.484733   0.93194216 
   39800    216.93287   -617.33866    134086.59   -41464.209    2699.0573   -44163.266    26.639129   0.93143906 
   39900    217.89247   -468.32601    134206.26   -41515.932    2710.9966   -44226.929    26.693721   0.93060855 
   40000     208.3912   -554.42798    134141.54   -41541.172    2592.7827   -44133.954    26.606877   0.93105754 
   40100    217.08133   -533.00497    134162.01   -41442.642    2700.9045   -44143.547     26.62956   0.93091549 
   40200    213.54725   -408.22332    134130.82   -41463.304    2656.9337   -44120.237    26.638623   0.93113197 
   40300    216.50585   -469.07589    133963.34   -41439.969    2693.7443   -44133.714    26.827644   0.93229605 
   40400    219.57252   -449.85735    134126.98   -41345.062    2731.8996   -44076.962    26.663034   0.93115858 
   40500    217.20457   -551.88209    134334.11   -41356.123    2702.4378   -44058.561    26.590309   0.92972287 
   40600    218.99937   -480.17245    134288.17   -41399.853    2724.7685   -44124.622    26.763601   0.93004094 
   40700    214.04008   -556.59366    134251.44   -41445.464    2663.0655    -44108.53    26.728326   0.93029534 
   40800    212.25203   -519.31917    134183.55    -41489.99    2640.8188   -44130.809    26.690605   0.93076602 
   40900     213.2584   -459.48862    134265.81   -41525.906    2653.3399   -44179.246    26.699559   0.93019579 
   41000    214.09003   -611.23531    134354.42   -41435.391    2663.6869   -44099.078    26.949313    0.9295823 
   41100     214.3256   -388.02513    134345.12   -41407.566    2666.6179   -44074.184    27.140213   0.92964667 
   41200    213.34697   -572.20087    134295.72   -41425.427    2654.4419   -44079.869    27.028629   0.92998859 
   41300    210.74493   -679.62867    134154.52   -41569.673    2622.0675   -44191.741    27.000495   0.93096743 
   41400    209.92706   -544.79824    134141.88   -41505.144    2611.8917   -44117.036    26.976591   0.93105515 
   41500     212.3266   -394.64921    134144.27   -41507.105    2641.7466   -44148.852    26.941782   0.93103859 
   41600    214.22339    -528.5804    134254.91   -41470.203    2665.3463   -44135.549    26.983945   0.93027129 
   41700    211.99686   -466.72708    134305.68   -41451.397     2637.644   -44089.041    27.028267   0.92991965 
   41800    213.70652   -519.75265    134210.38   -41464.209    2658.9155   -44123.125    27.108758   0.93057998 
   41900    216.50608   -362.89414     134331.7   -41440.839    2693.7472   -44134.586    27.219214   0.92973953 
   42000    214.15157   -605.88406    134185.86   -41431.067    2664.4526    -44095.52    27.165493   0.93074998 
   42100    214.35999   -537.90501    134313.54   -41430.715    2667.0458   -44097.761    27.281983   0.92986524 
   42200    216.68652   -572.44372    134340.34   -41385.602    2695.9923   -44081.594    27.212268   0.92967972 
   42300    215.04743   -563.08407    134089.92   -41371.569    2675.5989   -44047.168    27.039663   0.93141594 
   42400    215.00386   -470.97111    133995.68   -41415.021    2675.0568   -44090.078    27.036843   0.93207105 
   42500    215.81741   -431.44534    134044.88   -41403.584    2685.1789   -44088.762    27.210206   0.93172891 
   42600    215.95738   -615.47021     133980.8   -41418.302    2686.9203   -44105.223    27.284367   0.93217458 
   42700    218.62772   -450.48021    134137.29   -41430.518    2720.1445   -44150.662    27.236268   0.93108705 
   42800    216.06145   -486.99551    134206.99   -41389.205    2688.2152    -44077.42    27.266474   0.93060347 
   42900    212.47967   -523.35095    134161.01   -41471.301     2643.651   -44114.952     27.35597    0.9309224 
   43000    214.78304   -405.57818    134101.58   -41497.034    2672.3093   -44169.343    27.417092   0.93133498 
   43100    217.55451   -454.92941     134157.3   -41470.901    2706.7917   -44177.692    27.388557   0.93094813 
   43200     214.5945   -536.75206    134309.77   -41434.252    2669.9635   -44104.215     27.34578   0.92989133 
   43300     215.5858    -469.7526    134223.15   -41447.119    2682.2973   -44129.416    27.451258   0.93049141 
   43400    217.28077   -427.33784    134324.16   -41391.502    2703.3859   -44094.888    27.662216   0.92979174 
   43500    218.55938   -671.07628     134174.9    -41401.93    2719.2942   -44121.224    27.686423   0.93082602 
   43600    219.42448   -428.21328    134148.04   -41314.661    2730.0577   -44044.718    27.573924   0.93101241 
   43700    221.15466   -485.23789    134222.58   -41348.387    2751.5845   -44099.972    27.547506   0.93049538 
   43800    220.58143   -452.88796     134144.4   -41360.233    2744.4524   -44104.685    27.546789   0.93103767 
   43900    214.57453   -480.75297    133963.11   -41400.499    2669.7151   -44070.214    27.590832   0.93229764 
   44000    213.94694   -521.91654    133942.27   -41427.959    2661.9067   -44089.866    27.720047   0.93244272 
   44100    212.82648   -460.52963    133974.03   -41432.718    2647.9661   -44080.684    27.695609   0.93222167 
   44200    215.62179   -569.82574    133864.59   -41467.026     2682.745   -44149.771    27.554307   0.93298377 
   44300    212.49969   -510.99339    133923.93   -41478.657    2643.9002   -44122.557    27.501523   0.93257038 
   44400    216.75011   -362.17225    133948.15   -41437.612    2696.7834   -44134.395    27.692536   0.93240178 
   44500      213.199   -516.57829    133921.09   -41463.323    2652.6009   -44115.924    27.797301   0.93259015 
   44600    210.03721   -456.13801    134015.53   -41512.443    2613.2621   -44125.705    27.796632   0.93193299 
   44700    213.91083    -512.5125    134183.91    -41480.35    2661.4574   -44141.807    27.719982   0.93076353 
   44800    215.17151   -480.00019    134267.36   -41444.857    2677.1427       -44122    27.726434   0.93018502 
   44900    214.26827   -435.81783    134215.43   -41409.382    2665.9046   -44075.286    27.805162   0.93054498 
   45000    215.42919   -560.83262    134265.53   -41405.405    2680.3487   -44085.753     28.05505   0.93019772 
   45100    216.14559   -443.78405    134265.73   -41350.394     2689.262   -44039.656    28.071018   0.93019635 
   45200    216.17077   -675.57435    134169.98   -41411.974    2689.5753   -44101.549    28.080269   0.93086016 
   45300    211.01284   -352.48197    134229.02   -41423.196    2625.4009   -44048.597    27.912264   0.93045071 
   45400    213.73936   -507.09885    134182.92   -41397.827     2659.324   -44057.151    28.057836   0.93077043 
   45500    217.52516   -395.16369    134301.98    -41403.69    2706.4266   -44110.117     28.18773   0.92994529 
   45600    217.33058   -485.61914    134363.41    -41414.55    2704.0056   -44118.555    28.250431    0.9295201 
   45700    215.32106    -511.1154    134444.82   -41430.572    2679.0034   -44109.575    28.221479   0.92895729 
   45800    219.89362   -558.92878    134465.75   -41375.925    2735.8947    -44111.82    28.265323   0.92881266 
   45900    216.32743     -490.845    134514.71   -41326.879    2691.5245   -44018.403    28.295322   0.92847461 
   46000    218.37749   -682.93836     134568.6   -41305.238    2717.0312   -44022.269    28.318592   0.92810275 
   46100     218.8866   -592.34184     134387.6   -41262.983    2723.3654   -43986.348    28.418395   0.92935277 
   46200     221.7206    -633.7458    134348.65   -41270.076    2758.6258   -44028.702     28.59909   0.92962225 
   46300    219.63913   -586.66381    134159.09   -41295.039    2732.7284   -44027.767    28.458789   0.93093574 
   46400     220.5458   -707.26099    134286.17   -41334.439    2744.0091   -44078.448    28.515169   0.93005477 
   46500     217.6416   -398.41455    134101.47   -41346.852    2707.8753   -44054.727    28.460704    0.9313357 
   46600    220.78364   -445.17204     133974.6   -41335.125    2746.9682   -44082.094    28.507613   0.93221765 
   46700    215.94116   -541.29734    133988.16   -41415.004    2686.7186   -44101.722    28.585365   0.93212335 
   46800    212.34549   -583.11459    134003.01   -41474.458    2641.9816   -44116.439    28.490305   0.93202007 
   46900     217.6284    -417.3428    134033.84   -41401.397     2707.711   -44109.108    28.556561   0.93180565 
   47000    216.08681   -342.99467    134181.32   -41385.578    2688.5307   -44074.108     28.63989   0.93078148 
   47100    218.02361   -576.47305    134219.59   -41367.407    2712.6282   -44080.035    28.616047   0.93051614 
   47200    213.98491   -536.92707     134235.6   -41415.496    2662.3792   -44077.875    28.593897   0.93040514 
   47300    214.92518   -558.72365    134342.26   -41432.993    2674.0779   -44107.071    28.817371   0.92966643 
   47400     214.3849   -481.31849     134207.2    -41392.96    2667.3557   -44060.316     28.63194   0.93060203 
   47500    215.34678   -436.99947    134076.53   -41347.086    2679.3234   -44026.409    28.651284     0.931509 
   47600    221.31005   -615.34292    134161.37   -41313.132    2753.5178    -44066.65    28.744899   0.93091992 
   47700    217.95552   -524.10018    134176.61   -41358.754    2711.7811   -44070.535     28.88298   0.93081421 
   47800    216.09378   -479.31537    134184.14   -41362.409    2688.6175   -44051.027     29.05784   0.93076192 
   47900    214.12538   -531.86937    134214.55   -41446.075    2664.1268   -44110.202    29.037071   0.93055109 
   48000    215.54828   -565.44847    134287.91   -41455.836    2681.8304   -44137.666    29.041043   0.93004269 
   48100    215.96938   -311.70561     134255.9   -41425.032    2687.0696   -44112.101    29.069023   0.93026446 
   48200    214.17173   -374.39022    134210.61   -41451.229    2664.7035   -44115.932    29.115098    0.9305784 
   48300    210.11803   -612.45138    134260.66   -41429.602    2614.2678    -44043.87    29.051831   0.93023148 
   48400    217.23889    -469.7839    134305.49    -41358.78    2702.8648   -44061.645    29.170292   0.92992096 
   48500    217.51849   -431.69954    134273.47    -41417.34    2706.3435   -44123.684    29.266262   0.93014274 
   48600    217.01714   -563.89332     134278.2     -41415.9    2700.1058   -44116.006    29.124258   0.93010997 
   48700    217.41434   -331.45561    134244.93   -41386.058    2705.0477   -44091.105    29.155879   0.93034047 
   48800    213.26366   -547.58943     134300.7   -41408.276    2653.4053   -44061.682    29.199207   0.92995416 
   48900    216.74421   -560.35887    134174.49   -41390.043      2696.71   -44086.753    29.319194   0.93082888 
   49000    215.76202   -464.48579    134318.59   -41431.729    2684.4897   -44116.219    29.248072   0.92983028 
   49100    212.80978   -537.48763    134320.09   -41425.773    2647.7583   -44073.531     29.40916   0.92981987 
   49200    216.16845   -502.34606    134270.96   -41447.538    2689.5465   -44137.085    29.392021   0.93016012 
   49300    214.38314   -561.94377    134356.05    -41397.14    2667.3338   -44064.474    29.397156   0.92957103 
   49400    218.71424   -463.81877    134277.05   -41373.682    2721.2209   -44094.903    29.466166   0.93011795 
   49500    215.57154   -537.75587    134198.62   -41395.475    2682.1198   -44077.594    29.570537   0.93066153 
   49600    219.52113   -590.77156    134262.06   -41391.571    2731.2602   -44122.832     29.58005   0.93022176 
   49700     214.6117   -450.87279    134205.12   -41405.943    2670.1776   -44076.121    29.363264   0.93061641 
   49800    213.62842   -584.12669    134293.42    -41451.85    2657.9436   -44109.794    29.509782   0.93000455 
   49900    216.08229   -463.30447    134270.44   -41338.357    2688.4745   -44026.832    29.551493    0.9301637 
   50000    218.20727   -399.78555    134352.68   -41378.794    2714.9133   -44093.708    29.493412   0.92959436 
   50100     212.7052    -640.0154    134356.49    -41401.56    2646.4571   -44048.017    29.490559   0.92956802 
   50200    217.17445   -469.75981    134444.13   -41448.093     2702.063   -44150.157    29.580917   0.92896199 
   50300    215.52969   -521.43242     134351.8   -41426.059    2681.5991   -44107.658    29.487446   0.92960044 
   50400    216.80352   -542.88687    134412.92   -41464.655     2697.448   -44162.103    29.556431   0.92917769 
   50500    214.83366   -536.74935       134470   -41508.334    2672.9391   -44181.274    29.715782    0.9287833 
   50600    210.20036   -474.61247    134619.12   -41521.666    2615.2922   -44136.958    29.861566    0.9277545 
   50700    214.65102   -625.04289    134732.56   -41531.703    2670.6667    -44202.37    30.037835   0.92697337 
   50800    210.17659   -580.23456    134694.51   -41516.301    2614.9964   -44131.298    29.863811   0.92723521 
   50900     216.1009   -487.97207    134761.27   -41435.976     2688.706   -44124.682    29.898309   0.92677585 
   51000    215.65148   -568.88754    134667.47   -41466.279    2683.1144   -44149.394    29.835332   0.92742142 
   51100    216.27773   -492.40646    134618.99    -41510.04    2690.9062   -44200.946    29.868516   0.92775536 
   51200    214.63842   -512.16928    134671.41   -41495.339      2670.51   -44165.849    29.925504   0.92739426 
   51300     213.4578   -488.10907    134658.85   -41558.014    2655.8208   -44213.835    29.995989   0.92748078 
   51400    209.99669   -508.98147    134716.39   -41553.184    2612.7581   -44165.942    30.045845    0.9270846 
   51500    210.32963   -605.47972    134777.11   -41550.493    2616.9004   -44167.394    30.038315   0.92666694 
   51600    213.62045   -554.02702    134627.98   -41506.955    2657.8446     -44164.8    29.943163   0.92769345 
   51700    213.27734   -349.32889    134805.55   -41499.525    2653.5756     -44153.1    30.151442   0.92647142 
   51800    214.18922   -449.52454     134822.3   -41538.473    2664.9211   -44203.394    30.141129    0.9263563 
   51900    213.66541   -614.05044    134780.12   -41583.231    2658.4039   -44241.635    30.069544   0.92664623 
   52000    208.00028    -532.5248    134653.07   -41604.289     2587.919   -44192.208    29.988452   0.92752059 
   52100    212.89347   -464.69525    134632.04   -41553.741    2648.7995   -44202.541    30.273407   0.92766541 
   52200    213.91742   -386.17815    134650.63   -41578.083    2661.5394   -44239.623    30.182711   0.92753739 
   52300    214.61616   -411.07703    134618.27   -41558.223    2670.2331   -44228.456    30.020427   0.92776035 
   52400    212.93484   -592.51432    134475.72   -41511.699    2649.3142   -44161.013    29.990132   0.92874383 
   52500    214.64752   -556.60746    134472.87   -41496.527    2670.6232    -44167.15    30.070736   0.92876345 
   52600    211.32245   -572.78271    134409.19   -41526.129     2629.253   -44155.382    30.258193    0.9292035 
   52700    209.78814    -535.2834    134349.93   -41522.198    2610.1633   -44132.362    30.314305    0.9296134 
   52800    213.48192   -434.93456    134267.66   -41471.984    2656.1209   -44128.105    30.137127     0.930183 
   52900    213.45834   -427.12321    134438.43   -41460.632    2655.8276   -44116.459    29.968145   0.92900142 
   53000    217.51567   -574.02281     134408.8   -41420.098    2706.3085   -44126.406    30.151659   0.92920623 
   53100    211.15598    -436.8876    134423.67   -41451.849    2627.1819   -44079.031     30.44608    0.9291034 
   53200    213.27985   -485.87359    134366.12   -41449.609    2653.6068   -44103.216    30.410356   0.92950134 
   53300    215.93151   -418.11096    134379.89   -41455.094    2686.5985   -44141.693    30.405243   0.92940611 
   53400     210.6653   -630.54006    134373.21   -41536.062    2621.0768   -44157.139    30.540159   0.92945231 
   53500    214.42384   -477.32346    134521.68   -41549.132    2667.8403   -44216.973    30.461349   0.92842647 
   53600    213.54388   -405.40336    134577.45    -41550.72    2656.8919   -44207.612    30.432607   0.92804174 
   53700    210.49583   -422.92202    134716.59   -41583.671    2618.9683    -44202.64    30.424911   0.92708325 
   53800    214.32022   -529.17875       134734   -41475.093     2666.551   -44141.644    30.568753   0.92696346 
   53900    212.19168   -408.79309    134777.45   -41532.543    2640.0679   -44172.611    30.579034   0.92666463 
   54000    211.63669   -511.20653    134819.42   -41507.545    2633.1627   -44140.708    30.544393   0.92637615 
   54100    217.73758   -421.62869     134859.6   -41524.235    2709.0695   -44233.304    30.552791   0.92610008 
   54200    214.65498   -458.16215    134803.96   -41508.128     2670.716   -44178.844    30.535955   0.92648235 
   54300    211.57607   -676.04651    134663.67   -41480.288    2632.4086   -44112.697    30.649382   0.92744757 
   54400    212.50961   -545.57541     134627.4    -41508.24    2644.0235   -44152.263    30.767969   0.92769741 
   54500     215.0209   -351.89531    134631.73    -41501.34    2675.2688   -44176.609    30.736895    0.9276676 
   54600    215.38126   -324.53861    134632.84   -41411.142    2679.7524   -44090.895    30.886155   0.92765991 
   54700    216.03991   -426.17024    134678.42   -41437.307    2687.9472   -44125.254     30.65965   0.92734598 
   54800    217.12068   -543.42747    134722.32   -41509.411     2701.394   -44210.805    30.633277   0.92704379 
   54900     214.2032    -622.7265    134527.83    -41560.04     2665.095   -44225.135    30.792066   0.92838406 
   55000    210.18969   -529.25496    134562.49   -41605.553    2615.1594   -44220.712    30.701592    0.9281449 
   55100    210.08427   -556.04421    134505.85   -41574.371    2613.8478   -44188.219    30.671041   0.92853578 
   55200    212.72555   -519.24915    134371.96   -41588.292    2646.7102   -44235.002    30.688092   0.92946098 
   55300    214.94333   -460.89965    134526.74   -41535.612    2674.3037   -44209.915    30.679742    0.9283916 
   55400    217.57179   -370.77904    134532.56    -41512.45    2707.0067   -44219.456    30.678889   0.92835142 
   55500    214.09014   -488.70757    134541.94   -41459.915    2663.6884   -44123.603    30.802233   0.92828671 
   55600    214.81045   -376.71254    134464.14   -41501.973    2672.6504   -44174.623    30.881468   0.92882378 
   55700    213.74708   -546.19222    134449.09   -41504.078    2659.4201   -44163.498    30.841138   0.92892776 
   55800    214.77938   -526.94642    134543.31   -41511.799    2672.2638   -44184.063    30.833868   0.92827725 
   55900    219.77324   -452.39626    134499.14   -41478.429    2734.3969   -44212.826    30.838383    0.9285821 
   56000    219.50446   -367.86704    134425.77   -41473.735    2731.0527   -44204.788    30.840935   0.92908892 
   56100    213.61955   -563.46991    134301.24   -41445.737    2657.8333    -44103.57    30.889597   0.92995036 
   56200    219.57295   -500.74145    134394.81   -41450.566     2731.905   -44182.471    30.845721   0.92930291 
   56300    219.43184    -629.6328    134231.04   -41482.745    2730.1492   -44212.894    30.934321   0.93043674 
   56400    216.04652   -466.29421    134310.15   -41459.705    2688.0294   -44147.734    30.956422   0.92988869 
   56500    214.73601   -595.66561    134323.66   -41535.871    2671.7242   -44207.595    31.006102   0.92979515 
   56600    214.05976   -376.26115    134424.03   -41547.025    2663.3104   -44210.335    30.998292   0.92910091 
   56700    212.83605   -427.08462    134550.54   -41580.222    2648.0851   -44228.307    30.941793   0.92822734 
   56800    212.28117   -532.40572    134618.32   -41505.946    2641.1813   -44147.127    31.050329   0.92775997 
   56900    214.37918   -475.60188    134612.32   -41486.658    2667.2846   -44153.943    31.060181   0.92780131 
   57000    215.87845    -461.1508    134565.76   -41432.322    2685.9383    -44118.26    31.082617   0.92812239 
   57100    215.32614   -415.17159    134548.74   -41489.339    2679.0666   -44168.406    30.911615   0.92823977 
   57200    214.96237    -569.6367    134606.51   -41542.155    2674.5406   -44216.695    30.880519   0.92784142 
   57300    213.83603   -435.57003    134578.14   -41593.618    2660.5267   -44254.145    30.938078     0.928037 
   57400    209.42568   -548.90426    134546.43   -41607.648    2605.6536   -44213.302    31.099964   0.92825571 
   57500    207.79214   -534.10732    134641.54    -41645.58    2585.3292   -44230.909    31.095432   0.92760002 
   57600    212.56631   -451.39474    134644.05   -41597.491     2644.729    -44242.22    31.203456   0.92758273 
   57700    209.35221   -459.60744    134690.64   -41636.844    2604.7395   -44241.583    31.223851   0.92726184 
   57800    207.85557   -483.30876    134690.55   -41660.993    2586.1184   -44247.112    31.196299   0.92726248 
   57900    213.88116   -507.30276    134680.39   -41623.894    2661.0882   -44284.982    31.094972   0.92733239 
   58000    208.10753    -572.5646    134418.41   -41613.813    2589.2533   -44203.067    31.099997   0.92913978 
   58100    215.14418   -456.21816    134523.25   -41545.839    2676.8026   -44222.641    31.200782   0.92841565 
   58200    217.90397    -537.5088    134633.63   -41496.117    2711.1397   -44207.257    31.316261   0.92765446 
   58300     217.7835   -357.03002    134506.53   -41432.907    2709.6408   -44142.548    31.443428   0.92853109 
   58400    214.12512   -496.05924    134539.04   -41437.613    2664.1236   -44101.736    31.537424   0.92830669 
   58500    215.77014   -414.00439    134461.89   -41446.218    2684.5908   -44130.809    31.416158   0.92883934 
   58600    217.06317   -414.56208    134651.92   -41410.615    2700.6785   -44111.294    31.452168   0.92752848 
   58700    218.28591   -458.48749    134656.43   -41419.092    2715.8917   -44134.984    31.469813   0.92749744 
   58800     219.0231   -481.58458    134874.14   -41473.122    2725.0638   -44198.186    31.642493   0.92600028 
   58900    214.88007   -507.23011    134849.04   -41522.475    2673.5166   -44195.992    31.836909   0.92617267 
   59000    216.48238   -615.50113    134853.99    -41512.56    2693.4524   -44206.012    31.706352   0.92613867 
   59100    213.22812   -502.60165    134702.49   -41510.106    2652.9632   -44163.069     31.65608   0.92718026 
   59200    213.18436   -558.61958    134792.39   -41527.501    2652.4187    -44179.92    31.774649   0.92656191 
   59300    212.95961   -334.56707    134753.08   -41526.722    2649.6225   -44176.345    31.674168   0.92683217 
   59400    213.01344   -588.86485    134707.04   -41580.447    2650.2922   -44230.739    31.842032   0.92714896 
   59500    214.11368   -375.10666    134701.11   -41548.587    2663.9812   -44212.568    31.789971   0.92718977 
   59600    212.96544   -346.46872    134785.03   -41545.642    2649.6949   -44195.337     31.70215   0.92661249 
   59700    213.39792   -517.31329    134663.55   -41572.315    2655.0758    -44227.39    31.704724   0.92744836 
   59800    210.61903    -481.3117     134640.1   -41577.234    2620.5012   -44197.735    31.852541   0.92760993 
   59900    216.71836   -506.04828    134840.81   -41549.959    2696.3885   -44246.347    32.024677   0.92622917 
   60000    212.77222   -530.29816    134887.46   -41595.092    2647.2909   -44242.383    31.830531   0.92590885 
   60100    215.37934   -382.31949    135031.62   -41556.103    2679.7284   -44235.831    31.705969   0.92492035 
   60200    214.46922   -591.78729    134970.29   -41536.779    2668.4049   -44205.184    31.865881   0.92534065 
   60300    216.50217   -494.05307    134938.69   -41504.206    2693.6986   -44197.904    31.884293   0.92555729 
   60400    215.54619   -468.26634    134954.19   -41461.134    2681.8044   -44142.939     31.95194   0.92545098 
   60500    215.45763   -482.08153    134980.45   -41503.843    2680.7025   -44184.545    31.859922   0.92527096 
   60600    213.92222   -481.16729    135026.34   -41556.754    2661.5991   -44218.353    31.871061   0.92495652 
   60700     215.4896   -619.32061    134833.08   -41582.194    2681.1003   -44263.294    31.824688   0.92628224 
   60800    214.43195   -402.24436    134850.32    -41540.77    2667.9411   -44208.711    31.897554   0.92616388 
   60900    217.87833    -546.2696    134896.74   -41527.741    2710.8206   -44238.562    31.974751   0.92584512 
   61000    212.26547    -455.4851    134843.57   -41561.531     2640.986   -44202.517    32.027395   0.92621023 
   61100    217.04362   -400.21184       134892   -41594.753    2700.4352   -44295.188    32.041717   0.92587765 
   61200    213.52197   -523.96868    134966.55   -41608.274    2656.6193   -44264.893    31.956321   0.92536625 
   61300    214.47423   -480.52532    135040.98   -41600.658    2668.4672   -44269.126    32.072497    0.9248562 
   61400    214.21858   -443.43091    134978.89   -41642.239    2665.2864   -44307.525    32.042714   0.92528169 
   61500    212.43015   -510.25139    134961.49   -41640.391     2643.035   -44283.425    32.103051   0.92540097 
   61600    213.10472   -535.32287    135011.66   -41603.194    2651.4279   -44254.622     31.99416   0.92505707 
   61700    212.66028   -417.95794    134901.86   -41680.513    2645.8982   -44326.411    32.078596   0.92581003 
   61800    209.47684   -514.80214    134863.97   -41749.704    2606.2902   -44355.995     32.21831    0.9260701 
   61900     210.1691   -409.93128    134918.68   -41686.973    2614.9032   -44301.876    32.300877   0.92569456 
   62000    214.36592   -566.76216    135037.25   -41639.703    2667.1196   -44306.823    32.143335   0.92488175 
   62100    215.53641   -503.38114    134806.45    -41651.95    2681.6827   -44333.633    32.014847   0.92646522 
   62200    217.41369   -519.81784    134745.17   -41594.354    2705.0397   -44299.394    32.006732   0.92688658 
   62300    212.49192    -407.1198    134715.77   -41628.452    2643.8035   -44272.255    32.149474   0.92708885 
   62400     213.2727   -461.62771    134725.43   -41561.711    2653.5179   -44215.228    32.239771   0.92702242 
   62500     215.9107   -345.62281    134630.25   -41568.214    2686.3396   -44254.554    32.250273   0.92767781 
   62600    216.87465   -452.09859    134807.11   -41571.676     2698.333   -44270.009    32.212127   0.92646073 
   62700    212.24055    -499.3603    134831.23   -41604.099    2640.6759   -44244.775    32.163995   0.92629496 
   62800     212.3507   -504.09005    134804.29   -41577.206    2642.0464   -44219.252    32.251966   0.92648011 
   62900    211.88796   -588.32283    134821.34   -41522.536    2636.2891   -44158.825    32.347928   0.92636295 
   63000    219.00452   -527.37986    134812.61   -41484.255    2724.8326   -44209.087    32.273512   0.92642294 
   63100    217.71155   -498.01259    134574.82   -41472.931    2708.7456   -44181.677    32.288763   0.92805989 
   63200    215.74963    -497.2572     134659.6   -41503.603    2684.3356   -44187.939    32.235106   0.92747558 
   63300     212.8441   -503.01107    134555.15   -41543.283    2648.1852   -44191.468     32.05332   0.92819556 
   63400    223.03201   -355.88785    134758.27   -41474.341    2774.9422   -44249.283    32.437734   0.92679649 
   63500     214.8867   -526.25873    134844.21   -41564.953    2673.5991   -44238.552    32.402512   0.92620582 
   63600    215.14447   -459.34828    134981.75   -41553.954    2676.8062    -44230.76     32.45054   0.92526207 
   63700    214.90629   -651.50214    134845.32   -41569.085    2673.8429   -44242.928    32.378336   0.92619818 
   63800     209.6491   -559.13512    134822.72   -41668.069    2608.4333   -44276.502    32.183194   0.92635346 
   63900    213.40084   -510.60871    134842.23    -41657.79    2655.1121   -44312.902    32.191745   0.92621944 
   64000    215.26643   -492.37115    134898.14   -41640.494    2678.3236   -44318.818    32.278538   0.92583554 
   64100    214.05667   -395.14065    134966.31   -41556.777    2663.2719   -44220.049    32.260573   0.92536788 
   64200    212.32668    -385.6485    134962.38   -41550.848    2641.7476   -44192.595    32.383947   0.92539488 
   64300    222.17086   -430.21403    134923.22   -41469.262    2764.2279   -44233.489    32.435918   0.92566344 
   64400     219.0674   -463.25289    134901.59   -41498.033     2725.615   -44223.648    32.392479   0.92581188 
   64500    220.24003   -549.93745     134911.2   -41492.013    2740.2047   -44232.218    32.557864   0.92574591 
   64600    214.31609   -490.30927    134880.91   -41541.963    2666.4996   -44208.462    32.648916    0.9259538 
   64700    214.97907   -461.34215    134825.69   -41557.433    2674.7483   -44232.181    32.565811   0.92633302 
   64800     216.2664   -693.92909     134809.7   -41556.071    2690.7652   -44246.837    32.436191   0.92644288 
   64900    213.03154   -579.17578    134815.56   -41523.282    2650.5173     -44173.8    32.378969   0.92640263 
   65000    214.58645   -549.23792    134807.14    -41493.89    2669.8634   -44163.753    32.368047    0.9264605 
   65100     215.9463   -582.51617    134742.87    -41515.75    2686.7825   -44202.532     32.54398   0.92690239 
   65200    218.18776   -606.03553    134541.14    -41504.49    2714.6705   -44219.161     32.46263   0.92829219 
   65300    214.83653   -467.24459     134592.5   -41514.216    2672.9749   -44187.191    32.599218   0.92793795 
   65400    213.39603    -438.8684     134653.5   -41459.281    2655.0523   -44114.334    32.608103   0.92751757 
   65500    213.83195   -643.10079     134694.5   -41522.577     2660.476   -44183.053    32.712738    0.9272353 
   65600    213.80912   -594.92273    134667.65   -41555.449     2660.192   -44215.641    32.615322   0.92742016 
   65700    214.36224   -547.98832    134567.95   -41611.918    2667.0738   -44278.991    32.627496   0.92810726 
   65800    211.20006   -501.66263    134714.33   -41616.495    2627.7303   -44244.225    32.742155   0.92709879 
   65900     209.3149   -563.14867    134732.66   -41587.118    2604.2753   -44191.393    32.707392   0.92697265 
   66000    217.91094   -528.22834    134760.71   -41491.725    2711.2263   -44202.951    32.587637   0.92677974 
   66100    216.42681   -487.99234    134839.12   -41437.018     2692.761   -44129.779    32.766169   0.92624075 
   66200    221.57772   -544.83745    134917.21   -41410.448    2756.8481   -44167.296     32.93321   0.92570464 
   66300    219.13571   -543.87746    134810.44   -41447.966    2726.4648   -44174.431    32.833941   0.92643783 
   66400    217.25963   -562.01704    134614.35   -41496.236    2703.1229   -44199.359    32.834543   0.92778732 
   66500    217.04867   -613.53868    134603.37   -41509.569    2700.4981   -44210.067    32.833564   0.92786307 
   66600    212.50699   -583.97038    134748.08   -41526.316     2643.991   -44170.307    32.896873   0.92686657 
   66700    213.08493   -468.51667    134941.04   -41547.605    2651.1817   -44198.787    33.036357   0.92554117 
   66800    217.32238   -481.93792    134996.45    -41493.91    2703.9036   -44197.814    32.977443   0.92516133 
[...]
   84600    211.24551   -519.46715    134821.27   -41690.011    2628.2958   -44318.306    36.523173   0.92636341 
   84700    211.80271   -518.78685    134730.53   -41710.878    2635.2284   -44346.106    36.493375   0.92698733 
   84800    216.40747   -336.14083    134630.74    -41692.04    2692.5204   -44384.561    36.576068   0.92767437 
   84900    214.40823    -608.0079    134817.95   -41680.587     2667.646   -44348.233     36.68789    0.9263862 
   85000    217.26253   -555.41414    134837.05   -41630.689     2703.159   -44333.848    36.859571   0.92625497 
   85100    216.98256   -427.52578    134890.22   -41632.525    2699.6756     -44332.2    36.794676   0.92588991 
   85200    212.77559   -574.64528    134915.38   -41639.725    2647.3329   -44287.058    36.879945    0.9257172 
   85300    214.32739    -629.5476    134927.61   -41681.415    2666.6402   -44348.055    36.799253   0.92563329 
   85400    212.80445   -512.23117    135024.13   -41673.874    2647.6919   -44321.566    36.659753   0.92497165 
   85500    217.33439   -601.27636     135003.5   -41640.587    2704.0529    -44344.64    36.607251   0.92511298 
   85600    214.43796     -537.334    134890.26   -41618.413    2668.0158   -44286.429    36.818044   0.92588964 
   85700    212.35107   -466.43239    134878.63   -41658.804     2642.051   -44300.855    36.925526   0.92596948 
   85800    216.82894   -479.75799    135036.52   -41657.946    2697.7643    -44355.71    36.863829   0.92488678 
   85900    214.79465   -380.43776    135034.13   -41562.758    2672.4539   -44235.211    36.869597   0.92490317 
   86000    218.20169   -552.76642    134996.29    -41623.58    2714.8438   -44338.424     36.74316   0.92516237 
   86100    216.80449   -664.02042    134949.25   -41625.727      2697.46   -44323.187    36.727727   0.92548491 
   86200    217.36343   -449.23029    134877.74   -41598.773    2704.4144   -44303.187    36.539747   0.92597557 
   86300    214.43637   -391.82592    134908.23   -41637.244    2667.9962   -44305.241    36.788881   0.92576627 
   86400    214.86383    -561.2431    135034.08   -41652.674    2673.3145   -44325.988    36.838298   0.92490351 
   86500    217.09136   -483.26111    135098.46    -41633.17    2701.0293   -44334.199    36.914889   0.92446271 
   86600     217.6479   -470.04493    135045.51   -41580.168    2707.9536   -44288.122    36.949421    0.9248252 
   86700    216.34872    -684.1731    135211.29   -41557.504    2691.7894   -44249.293    36.999227   0.92369126 
   86800    213.70664   -548.25068    135036.27    -41634.93    2658.9169   -44293.847    36.974739   0.92488845 
   86900    215.19819   -459.02906    134998.21   -41609.674    2677.4746   -44287.148    36.951347   0.92514922 
   87000    210.82791   -503.13276    134970.06   -41622.003    2623.1001   -44245.103     37.01249   0.92534222 
   87100      214.118   -546.22662    134905.55   -41658.183     2664.035   -44322.218    37.088967    0.9257847 
   87200    214.65503   -621.76125     134832.4   -41644.564    2670.7167    -44315.28    37.099039   0.92628691 
   87300    216.76568   -451.15133    134924.97   -41647.483    2696.9772    -44344.46    36.988006   0.92565142 
   87400    216.96244   -493.65238    134903.07   -41655.124    2699.4253   -44354.549    36.998855   0.92580171 
   87500    216.62631   -599.19149    135056.98   -41669.331    2695.2431   -44364.574     37.05509   0.92474664 
   87600    214.18897   -563.57865    134948.57     -41686.1    2664.9179   -44351.018    36.877295   0.92548954 
   87700    210.42339   -503.09686    134989.85   -41693.924     2618.067   -44311.991    37.050354    0.9252065 
   87800    217.38352   -507.34833    134953.81   -41667.749    2704.6643   -44372.413    36.993948   0.92545363 
   87900    213.38757   -418.19219    134906.98   -41676.463     2654.947    -44331.41    37.001804   0.92577483 
   88000    211.75873   -441.73951    135015.11   -41690.286    2634.6812   -44324.968    37.074039   0.92503344 
   88100    213.43468   -417.63643    135067.53   -41617.561    2655.5332   -44273.094    37.197549    0.9246744 
   88200    216.45522   -399.27557     135118.1   -41597.052    2693.1144   -44290.166    37.069096   0.92432838 
   88300    214.91103   -439.25311    135004.58   -41636.183    2673.9018   -44310.085    37.111252   0.92510561 
   88400    208.63711   -375.80704    134950.04   -41734.865    2595.8423   -44330.708    37.019664   0.92547946 
   88500    214.98452   -503.84222    135009.18   -41632.484    2674.8162   -44307.301    37.087824   0.92507408 
   88600    215.37785   -460.18518    134851.13   -41599.363      2679.71   -44279.073    37.226465   0.92615829 
   88700    213.88052   -636.67287    134749.63   -41581.508    2661.0803   -44242.588    37.247604   0.92685591 
   88800    218.96802   -555.40637    134783.08    -41519.34    2724.3784   -44243.719    37.185225    0.9266259 
   88900    216.43419   -376.44275    134715.44   -41567.878    2692.8528    -44260.73    37.062828   0.92709112 
   89000    221.61425   -520.62538    134659.89   -41565.924    2757.3026   -44323.227    37.136796   0.92747356 
   89100    214.68424   -497.61659    134645.15   -41662.697    2671.0801   -44333.777    37.308159    0.9275751 
   89200    210.80671    -583.1877    134790.12   -41698.619    2622.8363   -44321.455    37.322444   0.92657749 
   89300    215.84171   -416.90749    134759.89   -41712.775    2685.4812   -44398.256    37.171883   0.92678531 
   89400    210.33007   -537.08395    134823.84   -41740.977     2616.906   -44357.883    37.184537   0.92634573 
   89500    213.61019   -523.68503    134888.02   -41775.501    2657.7168   -44433.218    37.498905   0.92590499 
   89600    212.43786   -507.37329     134923.1   -41819.072    2643.1309   -44462.203    37.459976   0.92566429 
   89700    211.81316   -570.17484     134877.5   -41776.196    2635.3584   -44411.554    37.398621   0.92597719 
   89800    210.41025   -325.18303    134939.86       -41736    2617.9035   -44353.904    37.239666   0.92554929 
   89900    211.04365   -488.26705    134970.43   -41788.948    2625.7842   -44414.733    37.328817   0.92533966 
   90000    213.38566   -448.56886    135117.48   -41704.273    2654.9233   -44359.196    37.562505   0.92433259 
   90100    212.08962   -572.61413    134946.43   -41713.399    2638.7981   -44352.197    37.578856    0.9255042 
   90200    213.94197   -443.93344    134964.57   -41742.501    2661.8448   -44404.346    37.414574   0.92537984 
   90300    213.58571   -490.23258    135062.87   -41738.901    2657.4122   -44396.313    37.480476    0.9247063 
   90400    209.96306   -508.23996    134954.37   -41728.411    2612.3396   -44340.751    37.495687   0.92544977 
   90500    212.41206   -456.01836    134890.86   -41681.569    2642.8098   -44324.378    37.426869   0.92588547 
   90600    215.59731   -363.96213    134890.46   -41585.789    2682.4404   -44268.229    37.635406   0.92588827 
   90700    214.92764   -559.70453    134807.46   -41594.263    2674.1084   -44268.372    37.554996   0.92645829 
   90800    215.18474   -558.10903     134762.7   -41626.279    2677.3073   -44303.586    37.793501   0.92676599 
   90900    214.20792   -492.89494    134758.63   -41726.301    2665.1538   -44391.455    37.827809   0.92679404 
   91000    211.45943   -451.90827    134727.48   -41745.851    2630.9574   -44376.808    37.801075   0.92700831 
   91100    211.04942   -431.05194    135019.57   -41738.907     2625.856   -44364.763    37.735765   0.92500285 
   91200     215.7263   -338.97253    135005.71   -41709.129    2684.0453   -44393.174    37.760036   0.92509783 
   91300      217.067   -437.42974    135067.44   -41612.243    2700.7262   -44312.969    37.782587   0.92467501 
   91400    218.62439   -449.57799    135018.85   -41596.285     2720.103   -44316.388    37.849128   0.92500782 
   91500    218.56879   -490.23263    135015.63   -41613.507    2719.4113   -44332.918    37.896964   0.92502989 
   91600     219.3667   -440.39909    135007.08   -41654.201    2729.3388   -44383.539    37.844037   0.92508844 
   91700    215.87997   -435.65054    135030.18   -41720.917    2685.9572   -44406.875    37.721124    0.9249302 
   91800    211.13854   -567.28147    135067.87   -41695.432    2626.9648   -44322.397    38.009374   0.92467207 
   91900     214.3982   -411.70573     135103.5   -41699.829    2667.5212    -44367.35    37.915717   0.92442822 
   92000    215.79218   -501.17799    135053.73   -41713.534    2684.8649   -44398.399    37.986112   0.92476891 
   92100    212.66539   -594.88417    135110.36   -41764.573    2645.9617   -44410.535    37.936846   0.92438129 
   92200    214.52102   -355.94324     135048.7   -41705.851    2669.0493     -44374.9    37.915626   0.92480335 
   92300    219.39211     -502.685    135039.63   -41627.757    2729.6549   -44357.412    38.013985   0.92486547 
   92400     216.5555   -566.83377    134962.54     -41634.9    2694.3621   -44329.262    37.938188   0.92539378 
   92500    212.35772   -460.75537    135245.57   -41670.514    2642.1338   -44312.648    37.933342    0.9234572 
   92600    215.02816   -354.12802     135162.4   -41645.338    2675.3591   -44320.697    38.141846   0.92402544 
   92700    217.98525   -380.89224    135148.51   -41629.082     2712.151   -44341.233    38.043775   0.92412038 
   92800    209.88552   -525.78145    135195.34   -41666.285    2611.3749    -44277.66    38.089889   0.92380025 
   92900    214.91458   -635.85861    135121.52   -41640.274    2673.9459    -44314.22    38.178197   0.92430494 
   93000    213.56825   -513.43523    135093.95   -41674.523     2657.195   -44331.718    38.054338   0.92449356 
   93100    217.02731   -479.74754    135202.63   -41610.479    2700.2323   -44310.711    38.068631   0.92375048 
   93200     213.8951   -488.26664    135106.48   -41634.263    2661.2616   -44295.525    38.041554   0.92440783 
   93300    218.64976     -508.699    135114.72   -41651.315    2720.4187   -44371.734    38.134297   0.92435149 
   93400    212.85648   -413.12406     135140.1   -41678.059    2648.3393   -44326.398    38.158514   0.92417789 
   93500    212.11259    -511.7047    135159.26    -41710.89    2639.0838   -44349.974    38.434629   0.92404688 
   93600    212.37322   -563.60269    134954.63   -41773.966    2642.3266   -44416.292    38.318143   0.92544802 
   93700    209.93551   -471.88038    134971.51   -41728.576    2611.9969   -44340.573    38.242832   0.92533228 
   93800    214.90759   -527.39058     134949.4   -41686.692     2673.859   -44360.551    38.122796   0.92548384 
   93900    213.01341   -469.41679    134999.94    -41667.43    2650.2918   -44317.722    38.198988   0.92513738 
   94000    215.44349   -488.42209    135176.55   -41681.007    2680.5266   -44361.534    38.087638   0.92392866 
   94100    214.69929   -523.66987    135256.23   -41689.773    2671.2673    -44361.04    38.135064   0.92338437 
   94200    211.37923   -461.45553    135157.14   -41689.104    2629.9595   -44319.063    38.257833   0.92406135 
   94300     214.5439   -513.14939    135061.82    -41632.94     2669.334   -44302.274    38.424707   0.92471351 
   94400    222.82197   -553.61421    135162.17   -41619.573     2772.329   -44391.902    38.393211   0.92402696 
   94500    219.05879   -476.62231    135134.81   -41556.038    2725.5078   -44281.545     38.37237   0.92421403 
   94600    214.91072   -485.97476    135128.41   -41594.532    2673.8979    -44268.43    38.291555   0.92425783 
   94700     215.4867   -381.99972    135079.53    -41637.61    2681.0642   -44318.675    38.267352   0.92459228 
   94800    211.29553   -621.01728    135009.34   -41624.215    2628.9181   -44253.133     38.46589   0.92507298 
   94900     210.9145   -505.41783    134906.87   -41595.947    2624.1773   -44220.125    38.500768   0.92577561 
   95000    214.98103    -548.4555    134719.25   -41582.007    2674.7728    -44256.78    38.477322   0.92706495 
   95100    218.43423   -550.15987    134815.43   -41572.505    2717.7371   -44290.242    38.490906   0.92640355 
   95200    218.01608   -555.44854    134713.59   -41595.674    2712.5345   -44308.208    38.500342   0.92710386 
   95300    219.26349   -461.89341    134677.25   -41498.873    2728.0547   -44226.928    38.322667   0.92735401 
   95400    216.24623   -475.92629    134592.58    -41567.97    2690.5142   -44258.484     38.47889   0.92793742 
   95500     220.5451   -479.38289    134615.89   -41583.975    2744.0003   -44327.975    38.489195   0.92777672 
   95600    217.95595   -527.62476    134763.49   -41570.235    2711.7864   -44282.021    38.585346   0.92676055 
   95700    215.91787   -389.97419    134668.22   -41633.456    2686.4289   -44319.885    38.511198   0.92741624 
   95800    212.67544   -538.63382    134702.08   -41692.445    2646.0868   -44338.532     38.37756   0.92718307 
   95900    214.85501    -592.8591    134804.26   -41633.387    2673.2048   -44306.592    38.516562   0.92648032 
   96000    212.67718   -437.65914    134565.74   -41719.301    2646.1084    -44365.41    38.336893   0.92812248 
   96100    214.72743   -300.17078    134705.53   -41668.397    2671.6175   -44340.015    38.392609   0.92715934 
   96200    211.16748   -575.92464     134776.6   -41706.059    2627.3249   -44333.384    38.705418   0.92667042 
   96300    218.31292   -564.35265    134791.96   -41655.232    2716.2277    -44371.46    38.688237   0.92656484 
   96400    217.60051   -476.73112    134692.98   -41638.392     2707.364   -44345.756    38.519917    0.9272457 
   96500    218.31148   -455.28994    134629.18   -41695.737    2716.2099   -44411.947    38.562397   0.92768514 
   96600    216.35323   -497.54789     134621.6   -41692.825    2691.8455   -44384.671    38.416013   0.92773738 
   96700    213.56802   -472.03044    134668.03   -41768.674    2657.1922   -44425.866     38.46296   0.92741754 
   96800    207.93719   -433.51929    134543.53    -41815.22     2587.134   -44402.354     38.52844    0.9282757 
   96900      213.044   -530.95222    134699.94   -41753.661    2650.6724   -44404.333     38.64447   0.92719785 
   97000    212.91524   -592.33721     134619.4   -41749.651    2649.0704   -44398.722    38.645474   0.92775254 
   97100    213.73609   -675.26915    134438.83   -41741.834    2659.2833   -44401.118    38.609163   0.92899867 
   97200    211.94499   -453.23057    134380.95   -41745.754    2636.9986   -44382.753    38.522253   0.92939881 
   97300     211.6472   -467.04998    134507.37   -41732.832    2633.2936   -44366.125    38.582512   0.92852528 
   97400    210.32136   -626.53575    134366.72   -41733.435    2616.7976   -44350.233    38.487342   0.92949723 
   97500    216.54657   -545.24028    134402.47   -41643.352     2694.251   -44337.603    38.539041   0.92924995 
   97600    212.34462   -615.86417    134229.69   -41701.074    2641.9708   -44343.044    38.624781   0.93044613 
   97700     214.3001   -575.92318    134207.98   -41632.517    2666.3007   -44298.817    38.678184    0.9305966 
   97800    217.77577   -433.02697    134406.19   -41611.052    2709.5446   -44320.597    38.726385   0.92922424 
   97900    217.08645   -591.24774    134411.73   -41570.869    2700.9681   -44271.837    38.676485   0.92918598 
   98000    218.65783   -487.49039    134436.07   -41580.516    2720.5191   -44301.035    38.590406   0.92901774 
   98100    216.26042   -439.63281    134412.45   -41652.562    2690.6908   -44343.252    38.624373   0.92918094 
   98200     214.4041    -535.0983    134428.22    -41611.34    2667.5946   -44278.934    38.621393     0.929072 
   98300    211.48124   -432.39345    134350.11   -41617.315    2631.2287   -44248.544    38.640086   0.92961211 
   98400    214.29217   -482.00968    134366.08   -41619.636     2666.202   -44285.838    38.783621   0.92950165 
   98500    215.36833   -437.40215    134360.36    -41619.18    2679.5914   -44298.772    38.793533   0.92954119 
   98600    213.04749   -415.85617     134356.6   -41649.556    2650.7159   -44300.272    38.741389   0.92956722 
   98700    213.21109   -582.79288    134348.94   -41705.504    2652.7513   -44358.255    38.605585   0.92962023 
   98800    213.40083   -514.40085    134327.87   -41683.392     2655.112   -44338.504    38.671926   0.92976601 
   98900    211.03838   -439.25795     134370.4   -41693.458    2625.7186   -44319.176    38.752916   0.92947179 
   99000     209.6944   -426.55801    134334.11   -41736.783     2608.997    -44345.78    38.867446   0.92972282 
   99100    211.01469   -639.48921    134390.18   -41657.184    2625.4239   -44282.608    38.712498   0.92933493 
   99200    214.82631   -519.31634    134348.17   -41648.172    2672.8477    -44321.02    38.644034   0.92962552 
   99300    212.81872   -476.00864    134335.54     -41606.8    2647.8694    -44254.67    38.600239   0.92971292 
   99400    217.03313   -501.88161    134483.61   -41580.716    2700.3048   -44281.021    38.664223   0.92868928 
   99500    218.45173   -376.57107    134624.96   -41476.222    2717.9548   -44194.177    39.008139   0.92771423 
   99600    221.44139   -374.43592    134696.17   -41505.275    2755.1519   -44260.427    39.159673   0.92722377 
   99700    220.22173   -569.37304    134867.44   -41513.121     2739.977   -44253.098    39.157191   0.92604627 
   99800     218.4601   -568.65416    134850.72   -41540.528    2718.0589   -44258.587    38.970224   0.92616108 
   99900    215.65799   -521.14847    134654.12   -41590.115    2683.1954    -44273.31     38.97567   0.92751336 
  100000    215.16762   -482.97218     134640.1    -41591.16    2677.0943   -44268.255    39.070916   0.92760989 
  100100    215.38272   -502.77503    134709.48   -41523.369    2679.7705   -44203.139    39.186076   0.92713215 
  100200    217.06792   -512.15864    134740.28   -41543.426    2700.7376   -44244.164    39.168426   0.92692022 
  100300    217.05498   -515.28927       134639   -41526.231    2700.5767   -44226.807    39.241903   0.92761747 
  100400     214.1226   -488.79676    134745.84   -41561.098    2664.0922   -44225.191      39.2184   0.92688196 
  100500    220.47114   -395.95412    134891.07   -41483.845    2743.0802   -44226.925    39.418694   0.92588408 
  100600    215.37427   -445.48174    134791.39   -41557.429    2679.6654   -44237.095    39.141071   0.92656874 
  100630    216.69205   -370.10677    134842.45   -41540.739     2696.061     -44236.8    39.085367   0.92621792 
Loop time of 72.0919 on 6 procs for 100000 steps with 4175 atoms

Performance: 599.235 ns/day, 0.040 hours/ns, 1387.118 timesteps/s
98.5% CPU use with 6 MPI tasks x no OpenMP threads

MPI task timing breakdown:
Section |  min time  |  avg time  |  max time  |%varavg| %total
---------------------------------------------------------------
Pair    | 55.986     | 57.856     | 59.364     |  14.8 | 80.25
Neigh   | 4.8191     | 4.8466     | 4.8699     |   0.9 |  6.72
Comm    | 5.3078     | 6.8369     | 8.7314     |  44.0 |  9.48
Output  | 0.15977    | 0.16059    | 0.16419    |   0.4 |  0.22
Modify  | 1.7437     | 1.7719     | 1.8028     |   1.8 |  2.46
Other   |            | 0.62       |            |       |  0.86

Nlocal:        695.833 ave         701 max         687 min
Histogram: 1 0 0 1 1 0 0 0 0 3
Nghost:        1460.00 ave        1470 max        1451 min
Histogram: 2 0 1 0 0 0 0 1 1 1
Neighs:        0.00000 ave           0 max           0 min
Histogram: 6 0 0 0 0 0 0 0 0 0
FullNghs:      18854.3 ave       19135 max       18568 min
Histogram: 2 0 0 0 1 0 1 0 0 2

Total # of neighbors = 113126
Ave neighs/atom = 27.096048
Neighbor list builds = 5298
Dangerous builds = 0

undump              1
unfix               2
unfix               3
unfix               4


################################################
#######         Run Simulation         #########
################################################

reset_timestep      0
log                 log.run_${NAME}
log                 log.run_liquid_density_MLmW
