
# Create simulation box of size 50 x 50 x 50 Angstrom
#
lattice	            sc 1
Lattice spacing in x,y,z = 1.0000000 1.0000000 1.0000000
region 	            all block 0 50 0 50 0 50 units box
create_box          1 all
Created orthogonal box = (0.0000000 0.0000000 0.0000000) to (50.000000 50.000000 50.000000)
  1 by 2 by 3 MPI processor grid

# fill box with 4175 randomly distributed atoms
#
create_atoms        1 random 4175 63782 all
Created 4175 atoms
  create_atoms CPU = 0.001 seconds
mass                1 18.015

# Define potential
#
pair_style          sw
pair_coeff          * * ML_mW.sw mW
Reading sw potential file ML_mW.sw with DATE: 2019-02-27

# Run minimization
#
minimize            1.0e-8 1.0e-8 10000 1000
WARNING: Using 'neigh_modify every 1 delay 0 check yes' setting during minimization (../min.cpp:187)
Neighbor list info ...
  update every 1 steps, delay 0 steps, check yes
  max neighbors/atom: 2000, page size: 100000
  master list distance cutoff = 6.0032907
  ghost atom cutoff = 6.0032907
  binsize = 3.0016454, bins = 17 17 17
  1 neighbor lists, perpetual/occasional/extra = 1 0 0
  (1) pair sw, perpetual
      attributes: full, newton on
      pair build: full/bin/atomonly
      stencil: full/bin/3d
      bin: standard
Per MPI rank memory allocation (min/avg/max) = 4.255 | 4.258 | 4.261 Mbytes
Step Temp E_pair E_mol TotEng Press 
       0            0    7792709.3            0    7792709.3    5898794.3 
     630            0   -45180.336            0   -45180.336   -154.07449 
Loop time of 1.12094 on 6 procs for 630 steps with 4175 atoms

99.0% CPU use with 6 MPI tasks x no OpenMP threads

Minimization stats:
  Stopping criterion = max force evaluations
  Energy initial, next-to-last, final = 
      7792709.32924461  -45180.0188663597   -45180.336116598
  Force two-norm initial, final = 2.0191930e+08 4.9721331
  Force max component initial, final = 1.0948746e+08 0.73126211
  Final line search alpha, max atom move = 0.053306038 0.038980685
  Iterations, force evaluations = 630 1000

MPI task timing breakdown:
Section |  min time  |  avg time  |  max time  |%varavg| %total
---------------------------------------------------------------
Pair    | 0.8742     | 0.97415    | 1.0381     |   5.7 | 86.90
Neigh   | 0.023773   | 0.024399   | 0.024877   |   0.2 |  2.18
Comm    | 0.038444   | 0.10238    | 0.20326    |  17.6 |  9.13
Output  | 0          | 0          | 0          |   0.0 |  0.00
Modify  | 0          | 0          | 0          |   0.0 |  0.00
Other   |            | 0.02001    |            |       |  1.79

Nlocal:        695.833 ave         704 max         685 min
Histogram: 1 1 0 0 1 0 0 1 0 2
Nghost:        1494.17 ave        1515 max        1468 min
Histogram: 1 1 0 0 0 0 1 1 1 1
Neighs:        0.00000 ave           0 max           0 min
Histogram: 6 0 0 0 0 0 0 0 0 0
FullNghs:      19997.0 ave       20462 max       19320 min
Histogram: 1 1 0 0 0 0 0 2 0 2

Total # of neighbors = 119982
Ave neighs/atom = 28.738204
Neighbor list builds = 26
Dangerous builds = 0

# Add velocity/set timestep
#
velocity            all create ${TEMP} 120598 rot yes dist gaussian
velocity            all create 230 120598 rot yes dist gaussian
timestep            5.0

# Define output
#
compute	            1 all msd
thermo	            100
thermo_style        custom step temp press vol etotal ke pe c_1[4] density

# Neighbor lists
#
neigh_modify        delay 0 every 1 check yes

# Set fixes
#
fix                 1 all momentum 10 linear 1 1 1 rescale
fix                 2 all nve
fix                 3 all temp/csvr ${TEMP} ${TEMP} 500.0 928347
fix                 3 all temp/csvr 230 ${TEMP} 500.0 928347
fix                 3 all temp/csvr 230 230 500.0 928347
fix                 4 all press/berendsen iso ${PRES} ${PRES} 1000.0 modulus 20000
fix                 4 all press/berendsen iso 300 ${PRES} 1000.0 modulus 20000
fix                 4 all press/berendsen iso 300 300 1000.0 modulus 20000

# Run 0.5 ns equilibration
#
dump                1 all custom 1000 eq.${NAME}.dump id type x y z vx vy vz
dump                1 all custom 1000 eq.liquid_density_MLmW.dump id type x y z vx vy vz
run                 100000
Per MPI rank memory allocation (min/avg/max) = 3.506 | 3.508 | 3.511 Mbytes
Step Temp Press Volume TotEng KinEng PotEng c_1[4] Density 
     630          230    892.42114       125000   -42318.699    2861.6373   -45180.336 2.7295415e-33   0.99914793 
     700    146.22688     183.7637    125228.99   -41439.762    1819.3403   -43259.102   0.27452783   0.99732095 
     800     179.6966    15.644895    124938.41   -40640.325    2235.7674   -42876.093   0.65672244   0.99964045 
     900    200.58379     202.2438    124512.93   -40192.293    2495.6436   -42687.937    1.1165831    1.0030564 
    1000    208.46917    318.65369    124576.44   -39881.229    2593.7528   -42474.982    1.5922596     1.002545 
    1100    221.12498    238.06982    124530.66   -39673.996    2751.2151   -42425.211    2.0931232    1.0029136 
    1200    221.11611    230.60279    124514.59   -39718.354    2751.1048   -42469.459    2.6476154     1.003043 
    1300    222.91717    276.39664    124797.22   -39698.035    2773.5133   -42471.549     3.110023    1.0007714 
    1400    219.47577    350.65639    124886.64   -39701.119    2730.6958   -42431.815    3.4422972    1.0000549 
    1500    220.37352    353.55871    124832.52   -39653.913    2741.8655   -42395.779    3.7987943    1.0004884 
    1600     229.7063     292.8089    124760.51    -39529.62    2857.9831   -42387.603    4.1776739    1.0010659 
    1700     227.6159    328.00371    124774.55   -39547.991    2831.9746   -42379.966    4.6806872    1.0009532 
    1800    222.73617    246.13421    124826.72   -39624.348    2771.2614    -42395.61    5.0313797    1.0005349 
    1900    227.64335    137.44678    125058.31   -39618.282    2832.3161   -42450.598     5.438307   0.99868208 
    2000    227.84066    456.28683    124963.43   -39568.866     2834.771   -42403.637     5.839537   0.99944033 
    2100    229.60477    159.27654    125339.61   -39509.689    2856.7199   -42366.409    6.2540044   0.99644076 
    2200    232.86496    45.460953    125347.49   -39520.887    2897.2828    -42418.17    6.7049935   0.99637804 
    2300    230.57174     408.5184    125308.58   -39510.401    2868.7508   -42379.152    7.1030168   0.99668746 
    2400    231.14263    434.21719    125441.99   -39523.178    2875.8538   -42399.032    7.4018032   0.99562745 
    2500    234.84972    318.88611    125488.58   -39461.873     2921.977    -42383.85    7.8074807   0.99525785 
    2600    235.52172    9.6799877    125586.39     -39412.5     2930.338   -42342.838    8.3514691   0.99448266 
    2700    234.60035    333.46831    125478.16   -39438.399    2918.8744   -42357.273    8.7100309   0.99534049 
    2800    234.93406    161.21635    125330.52   -39424.923    2923.0264   -42347.949    9.3057521   0.99651296 
    2900    228.13839    245.54736    125190.43   -39491.391    2838.4753   -42329.867    9.7754976   0.99762813 
    3000    233.57521    504.45461    125236.91   -39512.009    2906.1197   -42418.128    10.260069   0.99725781 
    3100    233.99501    349.85809    125219.81   -39479.071    2911.3428   -42390.414    10.627549   0.99739403 
    3200    227.72467    276.00371    125062.12   -39530.754    2833.3279   -42364.082    11.129508   0.99865163 
    3300    233.25005    240.85595    125015.75   -39530.303     2902.074   -42432.377    11.577217   0.99902203 
    3400    228.93235    270.55826    125022.14       -39570    2848.3537   -42418.354    11.903748   0.99897101 
    3500    226.22713    161.24916    125000.51   -39602.964    2814.6956    -42417.66    12.264173   0.99914389 
    3600     224.4742    117.52595    124735.03   -39627.251    2792.8858   -42420.136    12.815072    1.0012704 
    3700    225.80483     393.5167       124864   -39681.737    2809.4414   -42491.178    13.076159    1.0002362 
    3800    227.38392    188.66334     125180.8   -39629.021    2829.0882    -42458.11    13.372655   0.99770482 
    3900    228.51598    432.78787    125307.78   -39651.754    2843.1732   -42494.927    13.738169   0.99669379 
    4000    232.99233    265.47103    125337.84   -39654.498    2898.8675   -42553.365    14.077398   0.99645475 
    4100    229.90395    221.62393    125388.97   -39629.914    2860.4422   -42490.357    14.538664   0.99604849 
    4200    224.01544    434.90484     125383.7   -39645.775     2787.178   -42432.953    14.892065   0.99609034 
    4300    227.90634     174.4269    125635.35   -39640.904    2835.5881   -42476.492    15.218496   0.99409516 
    4400    228.37709    344.93661    125434.55   -39628.733    2841.4452   -42470.178    15.518733    0.9956865 
    4500    226.17793    29.706785    125292.86   -39631.347    2814.0834   -42445.431    15.939347   0.99681255 
    4600     227.9479    454.64703    125120.45   -39689.869    2836.1053   -42525.974     16.38047   0.99818605 
    4700    228.23098    420.63042    125358.79   -39621.008    2839.6273   -42460.635    16.727122   0.99628827 
    4800    228.72458    327.30821    125415.81   -39680.885    2845.7686   -42526.653    17.029869   0.99583534 
    4900    232.56582     412.6271    125678.81   -39559.643     2893.561   -42453.204    17.542758   0.99375137 
    5000     234.3315    529.76627    125722.97   -39504.909    2915.5293   -42420.438    17.969114   0.99340234 
    5100    226.11603    181.38913     125570.8   -39576.429    2813.3132   -42389.742    18.336081   0.99460612 
    5200      228.086    114.18104    125277.14   -39623.718    2837.8235   -42461.542       18.677   0.99693759 
    5300    226.67888    326.96088    125115.19   -39590.183    2820.3162   -42410.499    19.140269   0.99822802 
    5400    226.59042    139.63643    124938.69   -39626.872    2819.2156   -42446.088    19.496413   0.99963824 
    5500    232.91647    379.85355    125192.66   -39622.504    2897.9237   -42520.428      19.9244   0.99761034 
    5600     230.4371    505.72309    125342.44   -39640.533    2867.0756   -42507.608    20.307182   0.99641823 
    5700    227.90301    317.95827    125375.09   -39636.991    2835.5467   -42472.538    20.616456   0.99615871 
    5800    228.90446    384.78651    125301.31   -39675.722    2848.0067   -42523.729    20.841003   0.99674532 
    5900    225.23708    278.18246    125660.43   -39700.246    2802.3775   -42502.623    21.355619   0.99389676 
    6000    228.95658    227.37605    125519.55   -39692.045    2848.6551     -42540.7    21.568542    0.9950123 
    6100     228.6567    268.61776    125616.34   -39631.754    2844.9241   -42476.678    21.950506   0.99424557 
    6200    228.97536    418.91671    125672.97   -39702.323    2848.8888   -42551.212    22.141454    0.9937976 
    6300    232.90958    291.14766     125701.3   -39685.537     2897.838   -42583.375    22.427361   0.99357357 
    6400    230.60341    239.09941    125500.25     -39673.7    2869.1448   -42542.845    22.995171   0.99516529 
    6500    231.09619    617.50043    125735.88   -39611.252    2875.2759   -42486.528    23.067995   0.99330032 
    6600    229.91634    330.72722    125768.99   -39688.752    2860.5964   -42549.348    23.382772   0.99303883 
    6700    223.47515    279.61996    125814.33   -39752.372    2780.4557   -42532.828    23.863559   0.99268094 
    6800    226.22961    456.06115    125634.67   -39664.559    2814.7264   -42479.286     24.45616   0.99410052 
    6900    235.02782    391.81516     125985.9   -39609.309    2924.1929   -42533.502    24.900025   0.99132909 
    7000    231.89932    281.39774    126043.87   -39593.818    2885.2684   -42479.086    25.214074   0.99087323 
    7100     231.7647     343.3444    126057.74   -39629.576    2883.5935   -42513.169    25.226402    0.9907642 
    7200    231.94615    193.84885    125787.32   -39693.817    2885.8511   -42579.668       25.378   0.99289414 
    7300    226.17812    374.18956    125724.71   -39756.303    2814.0858   -42570.388    25.649565    0.9933886 
    7400    227.75668    225.57132    125469.56   -39776.472    2833.7262   -42610.198    25.933676   0.99540869 
    7500    227.04917    417.03395    125663.34   -39754.557    2824.9233    -42579.48    26.419741   0.99387375 
    7600    223.02653    325.20755    125557.81   -39849.072     2774.874   -42623.946    26.835341    0.9947091 
    7700    229.70306    184.24304     125388.7   -39739.673    2857.9427   -42597.615    27.138859   0.99605057 
    7800    230.60482    345.43452    125462.78   -39702.518    2869.1624    -42571.68    27.596447   0.99546245 
    7900    224.86427    55.010888    125371.91   -39759.669     2797.739   -42557.408    28.244465   0.99618402 
    8000    231.02038       273.78    125245.79   -39719.597    2874.3327    -42593.93    28.455079   0.99718711 
    8100     226.7774    240.28306    125109.11   -39800.819     2821.542   -42622.361    28.961608   0.99827653 
    8200    226.28696    434.40738    125297.24    -39819.64      2815.44    -42635.08    29.337492   0.99677767 
    8300    225.62461    449.09956    125536.85   -39816.762    2807.1991   -42623.961    29.606523   0.99487517 
    8400    229.79086    359.53215    125832.72   -39768.012    2859.0352   -42627.047    29.810383   0.99253587 
    8500    228.90041    399.14703    125788.27   -39697.379    2847.9563   -42545.336    30.062488   0.99288663 
    8600    230.77095    281.58211    125683.58   -39728.171    2871.2293   -42599.401    30.345216   0.99371364 
    8700    229.75401    400.10434    125744.78   -39698.414    2858.5767   -42556.991    30.682216   0.99323005 
    8800    231.51773     408.9503    126214.89   -39719.869    2880.5208    -42600.39    31.249189   0.98953054 
    8900     227.5019    303.37897    126210.62   -39799.647    2830.5562   -42630.203    31.673972   0.98956408 
    9000    231.57597    253.51211    126245.71   -39764.685    2881.2453    -42645.93    32.066186   0.98928901 
    9100    225.78836    339.36017    126069.16   -39835.639    2809.2365   -42644.876    32.174132   0.99067438 
    9200    230.67535    62.156142     125799.4   -39747.034      2870.04   -42617.074    32.349116   0.99279879 
    9300    226.27843    401.91932    125657.57   -39786.395    2815.3339   -42601.729    32.615932   0.99391939 
    9400    230.04519    339.60035       125733   -39747.618    2862.1995   -42609.817    32.989511    0.9933231 
    9500    227.23468    246.10931    125757.71   -39751.594    2827.2314   -42578.825    33.453664   0.99312788 
    9600     230.6519    513.25322    126051.62   -39720.742    2869.7481    -42590.49    34.074049   0.99081226 
    9700     230.0496    359.49077    125950.97   -39653.254    2862.2543   -42515.508    34.234382   0.99160407 
    9800    228.81212    279.03896    125977.65   -39741.542    2846.8578     -42588.4    34.645871   0.99139407 
    9900    222.51405    203.20171     126026.4   -39818.362    2768.4978    -42586.86    34.815211   0.99101055 
   10000    222.11319    117.98645     125922.5   -39823.183    2763.5104   -42586.693    35.057415   0.99182823 
   10100    229.01408    257.93281    125960.39   -39794.657    2849.3706   -42644.028    35.409989   0.99152987 
   10200    228.91051      429.833    126064.91   -39863.462    2848.0819   -42711.543    35.815519   0.99070783 
   10300    224.01815    385.18727    126109.23   -39859.694    2787.2117   -42646.905    36.275633   0.99035967 
   10400    228.34728     224.0093    126196.68   -39803.421    2841.0743   -42644.495    36.700627   0.98967338 
   10500    229.79986    342.76708    126183.07   -39784.831    2859.1471   -42643.978    37.034482   0.98978009 
   10600    230.88068    338.55351    126173.61   -39721.539    2872.5946   -42594.134    37.549234   0.98985434 
   10700    236.89477    400.67039    126247.78   -39700.257    2947.4213   -42647.678    38.265764   0.98927281 
   10800     232.6722    283.86915    126367.21   -39681.855    2894.8845    -42576.74    38.708242   0.98833779 
   10900    230.16337      468.168    126408.47    -39705.07      2863.67   -42568.739    39.055715    0.9880152 
   11000    233.45846    278.06916    126485.14   -39702.799    2904.6671   -42607.466    39.469861   0.98741633 
   11100    230.17766    387.46423    126446.88   -39750.875    2863.8477   -42614.723    39.813606   0.98771507 
   11200    231.03785    389.82058    126385.68   -39758.712    2874.5501   -42633.262    40.217487    0.9881934 
   11300    230.15286    150.36464    126107.19   -39761.821    2863.5391    -42625.36    40.364629   0.99037566 
   11400    229.87544    214.00929    125963.54    -39766.11    2860.0875   -42626.198    40.879571    0.9915051 
   11500    226.66348    217.35909    125691.25   -39802.111    2820.1246   -42622.236    41.392986   0.99365304 
   11600    227.25351     153.2781    125610.18   -39777.386    2827.4657   -42604.852    41.784358   0.99429434 
   11700    231.24701     423.7229    125650.19   -39666.782    2877.1524   -42543.934    42.163304   0.99397772 
   11800    228.13708     410.9304    125969.45   -39727.679     2838.459   -42566.138    42.404367   0.99145857 
   11900    229.96301    296.64137    125977.63   -39734.662     2861.177   -42595.839    42.723556   0.99139419 
   12000    231.04443    117.80882    125971.09   -39743.282     2874.632   -42617.914     42.77984   0.99144568 
   12100    233.72293     356.7499    125884.23   -39702.291    2907.9576   -42610.249    43.072768   0.99212974 
   12200    229.93007     281.5694     126070.4    -39702.87    2860.7672   -42563.637    43.222277   0.99066464 
   12300    227.22633    433.47994    126123.68   -39726.087    2827.1275   -42553.215    43.724745   0.99024617 
   12400    228.31379     92.32453    126094.34   -39679.086    2840.6576   -42519.743    43.946536   0.99047655 
   12500     222.2465    345.02073    125914.49   -39771.106    2765.1689   -42536.275    44.283192   0.99189134 
   12600    227.74297    116.31338    125630.53   -39691.147    2833.5556   -42524.702    44.423283   0.99413328 
   12700    234.28619    369.73155    125483.79   -39664.843    2914.9657   -42579.808    44.632657   0.99529578 
   12800    238.16686    186.62895     125470.2    -39652.59    2963.2485   -42615.838    45.069454    0.9954036 
   12900    229.67117    240.44838    125379.84   -39724.414     2857.546    -42581.96    45.331627   0.99612099 
   13000    234.73657    329.89492    125270.92   -39671.607    2920.5692   -42592.177    45.741141   0.99698707 
   13100    231.99698    326.01496    125095.13   -39654.886    2886.4835    -42541.37    45.721178   0.99838813 
   13200    234.47372    260.73638    125187.37   -39560.604    2917.2988   -42477.903    46.010112   0.99765249 
   13300    230.95779    391.87311    125369.53   -39582.789     2873.554   -42456.343    46.385377   0.99620289 
   13400    231.19729    272.79998    125247.38   -39661.484    2876.5339   -42538.018    46.589293   0.99717448 
   13500    234.01034    416.95933    125346.99   -39682.426    2911.5335   -42593.959    47.283278   0.99638205 
   13600    229.26589    269.75131    125402.57   -39693.174    2852.5036   -42545.678    47.817146   0.99594043 
   13700    227.57684    370.42059    125393.66   -39668.256    2831.4886   -42499.744    48.270296    0.9960112 
   13800    234.30045    298.86091    125554.12     -39574.3    2915.1431   -42489.443    48.643062    0.9947383 
   13900    229.45474    295.39585     125623.2   -39619.499    2854.8532   -42474.352     49.04868   0.99419129 
   14000    232.44971    116.84492    125749.34   -39629.876    2892.1163   -42521.993    49.530201   0.99319404 
   14100    228.61785    221.25774    125654.94   -39646.218    2844.4406   -42490.658    49.886546   0.99394015 
   14200    229.10234    602.40186    125906.39   -39703.878    2850.4686   -42554.347    50.252078   0.99195514 
   14300    228.94282    254.13743    125993.81    -39758.76     2848.484   -42607.244    50.424691   0.99126688 
   14400    229.91317    187.46918    126149.69   -39741.657    2860.5569   -42602.214    50.875052   0.99004198 
   14500    233.26105    252.37841    125825.51   -39702.218    2902.2109   -42604.429    51.180323    0.9925928 
   14600    229.76487    207.23838    125755.04   -39712.776    2858.7118   -42571.488    51.444687     0.993149 
   14700    229.97343    162.20902     125502.9   -39761.712    2861.3067   -42623.018    51.890711   0.99514423 
   14800    226.03866    140.42417    125509.09   -39792.634    2812.3507   -42604.985    52.036774   0.99509519 
   14900    225.75627    258.69446    125395.56   -39874.909    2808.8373   -42683.746    52.401044   0.99599615 
   15000    223.82218    405.94782    125515.18   -39868.899    2784.7734   -42653.673    52.827513   0.99504688 
   15100      220.505    244.98873    125554.47   -39880.151    2743.5015   -42623.653    53.060803   0.99473556 
   15200    225.86498    442.93725    125592.21   -39797.541    2810.1897   -42607.731    53.333096   0.99443657 
   15300    227.60415    380.88028    125472.73   -39808.649    2831.8283   -42640.477    53.331047   0.99538351 
   15400    226.39509    432.62191    125561.17   -39793.312    2816.7853   -42610.097    53.691366   0.99468246 
   15500    225.26867    284.09847     125476.2   -39763.067    2802.7705   -42565.838    54.049744   0.99535603 
   15600    231.23545    231.79601    125517.25   -39675.735    2877.0086   -42552.743    54.368607   0.99503049 
   15700     225.3166    331.77452    125653.58   -39776.087    2803.3668   -42579.453    54.555062   0.99395096 
   15800     230.1833    352.15762    125498.77   -39783.323    2863.9179   -42647.241    54.743469   0.99517703 
   15900    229.58266    190.54716    125442.25   -39832.665    2856.4448    -42689.11    55.131064    0.9956254 
   16000    230.60567    212.34921    125300.78   -39767.115     2869.173   -42636.288    55.463753   0.99674955 
   16100    228.04058    313.55778     125263.2    -39704.92    2837.2583   -42542.179    55.701432   0.99704854 
   16200    229.76239    211.01972    125228.82   -39758.517     2858.681   -42617.198    55.815472   0.99732224 
   16300     230.7122    377.68312    125070.82   -39778.001    2870.4983     -42648.5    56.027827    0.9985822 
   16400    232.52534    337.98716    125215.05   -39678.466    2893.0573   -42571.523    56.688095   0.99743192 
   16500    233.44893    547.35098    125414.43    -39664.82    2904.5485   -42569.369     57.34371   0.99584629 
   16600    233.08795    310.27707    125609.03   -39663.605    2900.0572   -42563.663    57.962876   0.99430347 
   16700    233.09145    410.06603    125557.04   -39687.472    2900.1008   -42587.573    58.216559   0.99471513 
   16800    231.67184    325.63881     125572.4   -39697.622    2882.4382    -42580.06    58.700573   0.99459347 
   16900    232.52684    247.47418    125741.38   -39673.876     2893.076   -42566.952    59.151302    0.9932569 
   17000     231.6805    408.06634    125723.07   -39698.948    2882.5459   -42581.494    59.476187   0.99340155 
   17100    232.79199    348.79704    125902.67   -39620.132    2896.3749   -42516.507    59.940742   0.99198445 
   17200    231.22659    192.79802    126002.28   -39636.532    2876.8984    -42513.43    60.295301   0.99120026 
   17300    232.65803    308.58643    125713.35   -39691.061    2894.7083   -42585.769    60.685393   0.99347834 
   17400    228.50016    290.16499    125809.25   -39706.819    2842.9764   -42549.795     61.02265   0.99272108 
   17500    230.33669    236.74718     125875.4   -39680.186    2865.8263   -42546.012    61.412058    0.9921994 
   17600    236.96119    26.395698    125881.41   -39636.733    2948.2477   -42584.981     61.91848   0.99215197 
   17700    229.27294    272.84561    125668.47   -39645.784    2852.5912   -42498.375    62.186038   0.99383312 
   17800    228.67062    198.62906    125436.56   -39636.186    2845.0972   -42481.283     62.61767   0.99567058 
   17900    230.14319    281.65639    125337.08   -39602.004    2863.4188   -42465.423    63.286246   0.99646083 
   18000    233.27318    292.56596    125490.18   -39551.428    2902.3618    -42453.79    63.771881   0.99524515 
   18100    229.13331    310.25369    125643.63   -39665.343    2850.8539   -42516.197    64.439463   0.99402963 
   18200    232.25754     429.5178    125617.17   -39671.345    2889.7254    -42561.07    64.683906   0.99423903 
   18300    234.63822    312.43422    125583.42   -39591.255    2919.3455     -42510.6    65.068198   0.99450622 
   18400    225.95207    348.68728     125473.4   -39654.121    2811.2733   -42465.394    65.341214   0.99537824 
   18500    230.42951    171.31119     125615.2   -39605.634    2866.9812   -42472.615    65.899701    0.9942546 
   18600     226.0825    454.17754     125515.8   -39660.168    2812.8962   -42473.064    66.173509   0.99504199 
   18700     232.1101    384.15087    125471.42   -39626.668    2887.8909   -42514.559    66.322439   0.99539393 
   18800    231.22714    338.17952    125461.08   -39582.167    2876.9052   -42459.073    66.745972   0.99547597 
   18900    231.01457    164.46853    125274.13    -39608.27    2874.2605    -42482.53     67.15071   0.99696157 
   19000    232.27479    500.71533    125625.59   -39567.148      2889.94   -42457.088    68.047819   0.99417237 
   19100    226.87226    337.85858    125605.89   -39634.908    2822.7223    -42457.63    68.272064   0.99432831 
   19200    231.68199     167.1349    125641.68   -39614.167    2882.5644   -42496.732    68.660295   0.99404503 
   19300    234.92778     318.5569    125721.69   -39567.427    2922.9483   -42490.375     68.69278   0.99341241 
   19400    235.84247    192.34065    125719.53    -39587.64    2934.3287   -42521.969    69.601053   0.99342948 
   19500    234.57878    363.30113    125653.87   -39594.689     2918.606   -42513.295    69.686394   0.99394862 
   19600    234.21336    242.31939    125387.33   -39641.496    2914.0595   -42555.555    69.694684   0.99606147 
   19700    234.62108    230.76559    125360.59   -39618.861    2919.1323   -42537.994    70.131707   0.99627392 
   19800    227.20572    319.38612    125163.06   -39661.873    2826.8711   -42488.744    70.523963   0.99784622 
   19900    234.25798    338.07169    125076.49   -39654.607    2914.6146   -42569.221    70.959122   0.99853692 
   20000    228.51405    266.59015    125160.64   -39695.783    2843.1492   -42538.933    71.275393   0.99786559 
   20100    230.78516    327.04665    125250.79   -39656.801    2871.4061   -42528.207    71.656238   0.99714736 
   20200    224.06901     274.1181    125123.77   -39690.612    2787.8444   -42478.456    72.067555   0.99815961 
   20300    227.77839    358.06502    125121.81   -39713.319    2833.9962   -42547.315    72.124372   0.99817524 
   20400     229.7033    340.04697    125181.09   -39705.164    2857.9458    -42563.11    72.740508   0.99770255 
   20500    227.35052    260.41671    125083.19   -39668.809    2828.6728   -42497.481    73.128966   0.99848343 
   20600    226.61321    347.12642    125204.35   -39698.915    2819.4992   -42518.414    73.400902   0.99751721 
   20700    231.30266    298.45505     125381.5   -39629.751    2877.8448   -42507.596    73.976888   0.99610781 
   20800    228.59735    226.36586    125385.29   -39629.504    2844.1856    -42473.69    74.597764   0.99607772 
   20900    237.47026    141.53426    125451.83   -39681.905    2954.5815   -42636.487    75.235845   0.99554936 
   21000    225.12611    382.81289    125529.08   -39782.891    2800.9968   -42583.888    75.436919   0.99493668 
   21100    229.64476    121.98288    125405.37   -39810.721    2857.2175   -42667.939    75.378905   0.99591819 
   21200    222.73963    466.76661    125355.55   -39796.373    2771.3045   -42567.678    75.822791   0.99631402 
   21300    228.12845     405.3427    125447.31   -39812.405    2838.3516   -42650.757    76.220279   0.99558522 
   21400    227.60447    193.60314    125562.52   -39784.884    2831.8323   -42616.717    76.590371   0.99467173 
   21500      230.196    470.08806    125625.56   -39778.255    2864.0759   -42642.331    76.562026   0.99417258 
   21600    231.39062    284.87384     125690.5   -39727.985    2878.9393   -42606.924    76.993563   0.99365897 
   21700    225.83085     291.2283    125870.34   -39701.001    2809.7651   -42510.766    77.026392   0.99223927 
   21800    231.19414    312.30026    126013.64   -39693.462    2876.4946   -42569.957    77.300355   0.99111093 
   21900    232.59618    16.909936    125808.83    -39715.51    2893.9387   -42609.448    77.510782   0.99272438 
   22000    226.59312    253.74371     125764.4   -39761.407    2819.2492   -42580.656    77.651391   0.99307506 
   22100    235.68323    240.55702    125595.21   -39690.722    2932.3475    -42623.07    77.982395   0.99441284 
   22200    230.37818    291.13187    125831.07   -39728.146    2866.3426   -42594.489    78.823791   0.99254889 
   22300    229.21973    131.18557    125901.45   -39711.331    2851.9292    -42563.26    78.892263   0.99199406 
   22400    232.00318    432.17878    125961.72   -39685.275    2886.5606   -42571.836     79.20322   0.99151943 
   22500    231.98966    286.31797    125980.37   -39694.165    2886.3924   -42580.557    79.070053   0.99137266 
   22600    234.43682    143.90108    125963.19   -39665.858    2916.8398   -42582.698    79.582775   0.99150782 
   22700    232.50122    130.46742    125949.93   -39672.374    2892.7572   -42565.132    80.019711   0.99161224 
   22800    228.49768    236.68431    126019.08    -39640.29    2842.9456   -42483.236    80.170539   0.99106815 
   22900    227.88304    304.30894    126142.57   -39662.514    2835.2983   -42497.812    80.698069   0.99009786 
   23000    230.34085    108.58066    125848.83   -39620.425    2865.8781   -42486.303    80.996477   0.99240886 
   23100    230.96111    401.34417    125937.65     -39744.2    2873.5953   -42617.796    81.436576   0.99170895 
   23200    231.71907    495.12354    125854.92   -39702.271    2883.0258   -42585.296    82.154125   0.99236084 
   23300    224.99535     237.2117    125905.35   -39738.344      2799.37   -42537.714    82.440973   0.99196333 
   23400    234.66667    291.17212    125824.68   -39663.037    2919.6996   -42582.736    82.772588   0.99259932 
   23500    230.01461    89.882174    125728.24   -39700.819     2861.819   -42562.638    82.758228   0.99336069 
   23600    227.98488    349.86864    125494.52   -39637.377    2836.5653   -42473.942    83.019223    0.9952107 
   23700    228.71737    333.73857     125675.7   -39684.521    2845.6789     -42530.2    83.097183   0.99377594 
   23800     225.6053    169.69786    125751.38     -39754.3    2806.9588   -42561.259    83.861951   0.99317793 
   23900    225.65952    385.24237    125834.76   -39766.165    2807.6334   -42573.799    84.423433   0.99251981 
   24000    228.35145    303.13693    126060.81   -39696.484    2841.1262    -42537.61    84.886538   0.99074007 
   24100    230.90034    208.51021    126029.51   -39691.621    2872.8392   -42564.461    85.199789   0.99098609 
   24200    231.43664     168.2729    126016.59   -39772.847    2879.5117   -42652.358    85.728703   0.99108767 
   24300    231.56926    544.52645    125760.89   -39762.673    2881.1618   -42643.835    85.609255   0.99310281 
   24400    224.60266    56.956529    125860.19   -39806.603    2794.4841   -42601.087    86.003962    0.9923193 
   24500    230.10502      258.864    125457.08   -39765.717    2862.9439   -42628.661    85.717722    0.9955077 
   24600    226.67647    139.68003    125316.92   -39748.349    2820.2862   -42568.636     85.95813   0.99662111 
   24700    226.52551    236.77214    125274.93   -39765.264    2818.4079   -42583.672    86.091256   0.99695517 
   24800    231.18088    574.99805    125430.47    -39752.65    2876.3297   -42628.979    86.887804    0.9957189 
   24900    234.15729    217.00993    125423.21   -39704.842    2913.3619   -42618.203    87.178939   0.99577657 
   25000     228.0114    453.06916     125456.1    -39677.61    2836.8953   -42514.505     87.91827    0.9955155 
   25100    230.04939     293.1139    125547.55   -39682.308    2862.2517    -42544.56    88.641208   0.99479034 
   25200    227.00165    457.44643    125662.76   -39716.456    2824.3321   -42540.788    88.808619   0.99387828 
   25300    229.61083    425.26832     125530.9   -39720.706    2856.7953   -42577.502    88.852552   0.99492228 
   25400    227.22575    262.85739    125607.34   -39707.759    2827.1204   -42534.879    89.103199   0.99431681 
   25500    234.67107    420.11976    125648.79   -39650.111    2919.7543   -42569.866     89.39356   0.99398878 
   25600    227.54787    186.31175    125592.57   -39734.293    2831.1281   -42565.421    89.416688   0.99443376 
   25700    228.64833     225.9001    125462.84   -39733.372    2844.8199   -42578.192    89.855144   0.99546202 
   25800     228.0411      279.301    125492.54   -39711.675    2837.2649    -42548.94     90.00528   0.99522639 
   25900    231.86957    382.00253    125472.26    -39652.31    2884.8983   -42537.209    90.210664   0.99538726 
   26000    232.60921    663.07819       125670   -39575.927    2894.1008   -42470.028    90.828482   0.99382106 
   26100    227.21584    200.38091     125653.8   -39672.904     2826.997   -42499.901    91.483113   0.99394917 
   26200    232.21593     70.18655    125573.58   -39667.607    2889.2077   -42556.815    92.045626   0.99458414 
   26300    226.93642    452.15141    125541.73   -39650.649    2823.5206   -42474.169    92.546736    0.9948365 
   26400    231.85513    143.45641    125547.83   -39652.293    2884.7186   -42537.012    93.348774   0.99478814 
   26500    230.83912    456.64857    125657.21   -39705.682    2872.0775    -42577.76    93.757678   0.99392221 
   26600    230.73978    289.23994    126119.52   -39773.358    2870.8415   -42644.199    94.284275    0.9902788 
   26700    227.22707     256.7517    125995.81   -39829.019    2827.1368   -42656.156    94.538173   0.99125114 
   26800     234.3931    261.91681    126132.59    -39753.57    2916.2958   -42669.865    95.059366   0.99017625 
   26900    231.99284     77.70609    126037.54   -39769.514     2886.432   -42655.946    95.361397   0.99092297 
   27000    230.88931    109.75125     125947.5   -39829.257    2872.7019   -42701.959    95.604268   0.99163138 
   27100    228.16631     424.7105    125966.13   -39840.466    2838.8227   -42679.289    95.796661    0.9914847 
   27200    225.07657    86.303072    125816.16   -39845.634    2800.3804   -42646.014     96.26872   0.99266653 
   27300    225.10171    391.59134    125774.35   -39861.339    2800.6932   -42662.032    96.518161   0.99299654 
   27400    233.61775    198.22018    125703.13   -39794.373    2906.6489   -42701.022     96.55737    0.9935591 
   27500    230.83449    403.64621    125579.95   -39730.654    2872.0199   -42602.673    97.093953   0.99453365 
   27600    230.68587    359.30808    125929.77    -39760.62    2870.1708    -42630.79    97.333925   0.99177099 
   27700    228.43895    388.03531    125785.61   -39765.972    2842.2148   -42608.187    97.617962   0.99290763 
   27800    233.58383    399.80731    125897.18   -39694.441    2906.2269   -42600.667    97.739228   0.99202774 
   27900    233.12781    341.81537    125954.75   -39711.798    2900.5532   -42612.351    98.105039   0.99157428 
   28000    232.57637    366.93463    125879.56   -39742.358    2893.6922    -42636.05    98.854415   0.99216655 
   28100    230.98408    332.00163    125826.62   -39710.812    2873.8811   -42584.693     99.40509   0.99258403 
   28200    229.29628    201.51273    125896.82    -39759.88    2852.8817   -42612.761    100.10147   0.99203056 
   28300    223.80345    309.17661    125674.34   -39755.492    2784.5404   -42540.032    100.02177   0.99378669 
   28400    225.58532    226.35825    125797.98   -39791.498    2806.7102   -42598.208    100.61338      0.99281 
   28500    228.06763     456.6739    125847.91   -39812.725    2837.5949    -42650.32    100.84366   0.99241613 
   28600    232.06374    237.34053    125765.06   -39764.525    2887.3141   -42651.839    101.42572   0.99306987 
   28700    229.20608    254.28995    125782.42   -39774.069    2851.7594   -42625.828      101.619   0.99293284 
   28800    228.30191    278.72358     125770.6   -39738.821    2840.5097   -42579.331    102.15442   0.99302616 
   28900    230.99179    420.00089    125874.39   -39694.406     2873.977   -42568.383    102.46326   0.99220734 
   29000      224.606    514.72908    126113.21   -39762.265    2794.5257    -42556.79    103.08106   0.99032837 
   29100    232.86207    285.29099    126057.04   -39687.706    2897.2468   -42584.953    103.61148   0.99076967 
   29200    230.68262    75.137751    126106.37   -39653.435    2870.1304   -42523.565     103.8502   0.99038213 
   29300    233.07629    158.90673    125849.02   -39723.332    2899.9122   -42623.244    103.97366    0.9924073 
   29400    226.83927     109.4731    125677.95   -39767.763    2822.3118   -42590.075     104.3169   0.99375818 
   29500      226.586    477.24938    125549.81   -39798.793    2819.1606   -42617.953    104.69512   0.99477244 
   29600    236.54237    521.06238    125587.95   -39717.288    2943.0368   -42660.325    105.06309   0.99447036 
   29700    230.04448    411.68053    125756.47   -39778.263    2862.1906   -42640.454    106.23055   0.99313769 
   29800    229.38426     310.8546    125745.28   -39764.981    2853.9763   -42618.958     106.4148   0.99322606 
   29900    226.64086    59.712044    125826.56   -39797.497    2819.8432    -42617.34    106.21937   0.99258446 
   30000    228.40773    372.41205    125784.71   -39764.769    2841.8264   -42606.596    106.01978   0.99291472 
   30100    229.97064    511.96797    125955.57   -39746.056    2861.2719   -42607.328    106.59435   0.99156787 
   30200    229.47428    415.93815     126079.1    -39748.89    2855.0963   -42603.986    106.79383   0.99059634 
   30300    231.41869    537.82158    125992.87   -39698.916    2879.2885   -42578.204    106.80062   0.99127427 
   30400    230.90545    379.57143    125925.45   -39682.494    2872.9027   -42555.396    107.07784   0.99180502 
   30500    234.87875    406.14757    126076.25    -39695.52    2922.3382   -42617.858    107.39652   0.99061868 
   30600    230.55417    220.59047     126145.7   -39672.065    2868.5322   -42540.597    107.73206   0.99007335 
   30700    233.59628    206.60491     125899.5    -39681.88    2906.3819   -42588.262    108.02412   0.99200942 
   30800    231.79522    311.04135    125931.21   -39615.873    2883.9732   -42499.846    108.63179   0.99175961 
   30900     226.1244    235.71902    125810.63   -39730.653    2813.4175    -42544.07    109.00108   0.99271019 
   31000    224.60923     258.3983    125920.55   -39760.943    2794.5658   -42555.508    109.84715   0.99184362 
   31100    231.62601    339.40755    125838.23   -39755.946    2881.8679   -42637.814    110.14483   0.99249245 
   31200    226.51963    106.53496    125851.35   -39759.264    2818.3349   -42577.599    110.21854   0.99238895 
   31300    231.06661      335.824    125724.49    -39704.31    2874.9079   -42579.218     110.5756   0.99339028 
   31400    229.35997    322.36676    125698.95   -39681.051     2853.674   -42534.725    110.34392   0.99359219 
   31500    229.34913     438.0511    125873.51   -39735.281    2853.5391    -42588.82    110.70789   0.99221429 
   31600     233.5875    159.77501    125965.46    -39667.62    2906.2726   -42573.893    110.58825   0.99148997 
   31700    230.75383    293.32757    125741.72   -39708.717    2871.0163   -42579.734    110.96548   0.99325424 
   31800    234.85849    319.74011    125703.15   -39660.529    2922.0861   -42582.616    111.62194   0.99355895 
   31900    230.84855    95.230819    125615.19   -39652.829    2872.1948   -42525.024    111.81801   0.99425469 
   32000    229.79914    499.89221    125618.72   -39642.561    2859.1382     -42501.7    111.84454   0.99422671 
   32100     230.5238    409.71275    125860.65   -39633.222    2868.1543   -42501.376    112.47026   0.99231563 
   32200    231.59707    271.83868    125837.51   -39626.099    2881.5079   -42507.606    113.14558    0.9924981 
   32300    231.91998     341.0341    125840.42   -39594.633    2885.5255   -42480.159    113.46058   0.99247515 
   32400    228.07008    151.85673    125713.61   -39640.787    2837.6254   -42478.413    113.83342   0.99347626 
   32500    231.53016    215.50632    125683.46   -39647.758    2880.6754   -42528.433    114.54736   0.99371462 
   32600    232.11306    396.28881    125825.52   -39598.695    2887.9277   -42486.623    115.10188   0.99259273 
   32700    229.95338    256.66104    125763.64   -39675.682    2861.0572   -42536.739    115.22201   0.99308106 
   32800    230.26391    334.22937     125790.9   -39719.833    2864.9208   -42584.754    115.54045   0.99286589 
   32900    226.96724    425.68762    125842.44   -39726.749     2823.904   -42550.653    115.95561   0.99245927 
   33000    226.62159    352.90411    125856.52   -39779.985    2819.6034   -42599.588    116.18981   0.99234822 
   33100    230.74718    425.53454    126052.21   -39716.795    2870.9336   -42587.729    116.78464   0.99080764 
   33200    228.82828    155.13138    126181.34   -39759.874    2847.0589   -42606.933    117.01424   0.98979363 
   33300    227.92078    155.06293    126202.72   -39683.045    2835.7678   -42518.813    116.90043     0.989626 
   33400    230.04981    197.42805    126092.18   -39771.165     2862.257   -42633.422    117.48986   0.99049352 
   33500    228.89747    245.30969     125948.8   -39729.113    2847.9197   -42577.033    117.76877   0.99162109 
   33600    230.75472    358.48599    125773.83   -39688.555    2871.0274   -42559.582    118.07339   0.99300066 
   33700    225.20314   -50.716127    125629.11   -39668.245    2801.9552     -42470.2    118.38113   0.99414449 
   33800    229.57741    402.37648    125714.16   -39658.519    2856.3794   -42514.898    118.33065   0.99347196 
   33900     232.1748    384.28773    125844.66   -39662.697    2888.6959   -42551.393    118.96336    0.9924417 
   34000    233.57363    364.31614    125688.89   -39649.336       2906.1   -42555.436    119.23752   0.99367168 
   34100    229.04079    403.09968    125549.02   -39693.598    2849.7028   -42543.301    119.51852   0.99477869 
   34200    233.36329    389.57428    125570.99   -39704.642     2903.483   -42608.125    119.90705   0.99460469 
   34300     228.8403    215.31885    125498.76   -39752.788    2847.2084   -42599.997    120.21142   0.99517706 
   34400    228.71049    503.94417    125546.19   -39676.804    2845.5933   -42522.397    120.67998   0.99480112 
   34500     227.8947    501.87239    125535.26   -39698.513    2835.4434   -42533.957    120.95875   0.99488776 
   34600    232.43742    240.65535    125567.39   -39669.238    2891.9634   -42561.202    121.73177   0.99463318 
   34700    226.74175    212.33773    125597.66   -39739.695    2821.0984   -42560.793     122.1855   0.99439347 
   34800    225.93084    338.50398    125773.14   -39716.757    2811.0091   -42527.766    122.62199   0.99300609 
   34900    227.04052    302.28635    125908.08    -39729.71    2824.8157   -42554.526    123.27231   0.99194182 
   35000     226.6481    401.28346     125889.8   -39804.937    2819.9332    -42624.87    123.52359   0.99208586 
   35100    229.57955    176.55864    125710.98   -39745.736    2856.4061   -42602.142    123.51033   0.99349708 
   35200    227.12588    532.81136    125896.27   -39759.423    2825.8778     -42585.3    123.56565   0.99203491 
   35300    226.92315    275.77575    126038.93   -39761.972    2823.3554   -42585.328    124.16494   0.99091204 
   35400    229.42877    203.46598    126135.37   -39804.659      2854.53   -42659.189    124.68802   0.99015441 
   35500     228.2412    344.60197    126145.18   -39717.612    2839.7545   -42557.366    125.12439   0.99007739 
   35600    232.83834    410.03376    126045.87   -39782.695    2896.9516   -42679.647    125.60552   0.99085747 
   35700    232.06498    302.93259    126184.21    -39754.21    2887.3296    -42641.54    125.82795   0.98977112 
   35800    229.85652    404.47917    125929.73   -39806.147    2859.8521   -42665.999    125.54449   0.99177128 
   35900    233.44807     385.5381    126005.06   -39755.526    2904.5378   -42660.064    125.73831   0.99117835 
   36000    233.32385      267.203     125919.7   -39716.615    2902.9923   -42619.607    126.44124    0.9918503 
   36100    233.31276    255.95842    126027.56   -39741.087    2902.8543   -42643.942    126.52575   0.99100141 
   36200    229.93535    335.33281    125910.64   -39762.727    2860.8329    -42623.56      126.672   0.99192167 
   36300    226.31798    293.32226    125856.39   -39816.677    2815.8259   -42632.503    126.96728   0.99234924 
   36400    227.86915    161.91152    125933.67   -39761.219    2835.1254   -42596.345    127.51687   0.99174025 
   36500    231.81689    417.56315    126121.75   -39742.372    2884.2428   -42626.615    127.84864   0.99026132 
   36600    222.51318    515.02215    126244.19   -39872.248     2768.487   -42640.735    128.36633   0.98930092 
   36700    228.33846    136.64681    126365.25   -39805.664    2840.9645   -42646.629    129.18976   0.98835317 
   36800    227.74862    88.037207    126052.32   -39781.098    2833.6259   -42614.724    128.87676    0.9908068 
   36900    226.41285    423.14942    126104.67   -39811.521    2817.0062   -42628.528    129.18036   0.99039543 
   37000      232.905     45.51745    125995.94   -39742.926     2897.781   -42640.707    129.61965   0.99125013 
   37100    233.65343    319.94525    125723.26   -39735.971    2907.0929   -42643.064    129.55793   0.99340004 
   37200    230.15618    394.91842    125683.47   -39805.275    2863.5805   -42668.855    129.93794   0.99371456 
   37300    228.12388     120.7415    125649.81    -39824.23    2838.2948   -42662.525    130.04895   0.99398073 
   37400    228.28713     138.4843    125953.16   -39858.021    2840.3259   -42698.346    130.48509    0.9915868 
   37500    226.26055     363.9054    125819.67   -39867.117    2815.1114   -42682.228     130.9423   0.99263888 
   37600    230.27668    333.19534    125823.02   -39807.046    2865.0797   -42672.126    131.31832   0.99261237 
   37700    228.35004    59.371675    125910.85   -39806.953    2841.1086   -42648.061    131.68119   0.99191998 
   37800    225.01807    51.383259    125701.59   -39886.935    2799.6525   -42686.588    131.63863   0.99357131 
   37900    228.48264    355.80939    125533.42   -39837.447    2842.7584   -42680.205    131.91848   0.99490229 
   38000    227.44188    82.187019    125703.64   -39832.805    2829.8094   -42662.615    132.61973   0.99355512 
   38100    227.41741    341.76346    125792.97   -39776.507    2829.5049   -42606.012     132.8803   0.99284955 
   38200    227.09351     269.1276    125747.75   -39797.926    2825.4749   -42623.401    133.56285   0.99320659 
   38300    232.22733    325.98918    125739.95   -39727.141    2889.3495    -42616.49    134.30378   0.99326817 
   38400    228.24749    321.90899    125772.37   -39780.824    2839.8327   -42620.657    134.36945   0.99301216 
   38500    230.23519    440.23559    125842.38   -39798.394    2864.5634   -42662.957    134.86793   0.99245972 
   38600    227.50783    509.51522    125868.19   -39745.062      2830.63   -42575.692    135.26146   0.99225616 
   38700    229.74765    285.60843    126051.97   -39752.457    2858.4975   -42610.954    135.77779   0.99080948 
   38800    232.31692    270.45013    125896.32   -39769.171    2890.4642   -42659.635    136.27871   0.99203451 
   38900    230.82613    494.96236     125906.3   -39729.819    2871.9159   -42601.735    136.54214   0.99195583 
   39000     233.6329    391.24087    125997.11   -39773.129    2906.8375   -42679.966    137.12582   0.99124089 
   39100    229.83699    389.72216    126083.57   -39742.468    2859.6091   -42602.077    137.55558   0.99056117 
   39200    228.47851    168.73116     125894.4    -39772.76    2842.7071   -42615.467    137.35306   0.99204959 
   39300    230.94571    345.65406    126186.91   -39764.009    2873.4037   -42637.412    137.99528   0.98974999 
   39400    228.86046    388.04666    126166.36   -39709.752    2847.4592   -42557.212    138.03188   0.98991121 
   39500    233.54292    317.01724    126183.95   -39694.629    2905.7179   -42600.347     137.9863    0.9897732 
   39600    229.97984     220.7265     126004.6   -39732.036    2861.3864   -42593.422    138.16745   0.99118199 
   39700    234.80222    166.06255    125796.89   -39678.614     2921.386       -42600    138.15092   0.99281856 
   39800    231.23278    241.04634    125787.82   -39745.303    2876.9754   -42622.278    138.62122   0.99289021 
   39900    226.67169    343.54006    125694.89   -39794.784    2820.2267    -42615.01    138.97271   0.99362424 
   40000    224.60188    232.00801    125807.83   -39822.261    2794.4744   -42616.735    139.61779   0.99273226 
   40100    232.46673    410.33144    125873.29   -39715.087    2892.3281   -42607.415    139.82909   0.99221602 
   40200    230.09995    219.20548    126009.76   -39753.921    2862.8808   -42616.802    140.46927   0.99114143 
   40300    227.61322    214.31034     125838.5    -39731.98    2831.9412   -42563.921    140.77237   0.99249028 
   40400    231.85997    329.11282    125701.14   -39638.062    2884.7789   -42522.841    140.84428   0.99357485 
   40500    230.88084    274.31573    125994.33   -39632.696    2872.5966   -42505.293    141.14596   0.99126275 
   40600    226.80518     220.2862    125983.54    -39672.15    2821.8877   -42494.038    141.30962   0.99134768 
   40700    231.21572     570.4837    126165.41   -39722.478    2876.7631   -42599.241    142.02691   0.98991862 
   40800    229.05583    269.24034    126294.91    -39806.19      2849.89    -42656.08    142.53706   0.98890361 
   40900    227.90943    435.26557    126187.48    -39847.54    2835.6266   -42683.166    142.95725   0.98974553 
   41000    230.34025    278.22667    126193.62   -39754.272    2865.8707   -42620.143    143.18454   0.98969736 
   41100     233.4716    143.73018    126017.05   -39735.953    2904.8306   -42640.783    143.61187    0.9910841 
   41200    230.63226    269.65639    126150.73   -39751.695    2869.5038   -42621.199    143.65841   0.99003385 
   41300    223.37149    223.01092    125972.13   -39878.243     2779.166   -42657.409    143.78476   0.99143747 
   41400    226.69942    271.41338    125875.47   -39820.552    2820.5718   -42641.124    144.26609   0.99219878 
   41500    231.49759    210.95505    126075.76   -39828.929    2880.2702   -42709.199    144.43186   0.99062252 
   41600    230.04707     290.0825    125972.93   -39797.449    2862.2229   -42659.672    144.62637    0.9914312 
   41700    232.27649      278.367    126107.76   -39797.834    2889.9611   -42687.795    145.14705   0.99037121 
   41800    226.20055    205.78661    126097.03   -39814.697    2814.3649   -42629.062    145.27444   0.99045549 
   41900     230.2415    104.98485    126239.23   -39797.469     2864.642   -42662.111    145.97102   0.98933974 
   42000    228.38346    394.47029       126395    -39794.23    2841.5244   -42635.754    146.46339   0.98812053 
   42100    232.14647    350.88255    126665.16   -39782.568    2888.3434   -42670.911    147.40004   0.98601299 
   42200    228.35082    105.92988    126494.07   -39729.635    2841.1183   -42570.753    147.58219   0.98734661 
   42300    231.78347    426.95583    126506.52   -39706.576     2883.827   -42590.403    147.90765   0.98724945 
   42400     231.7216    226.04054    126366.59   -39757.797    2883.0572   -42640.854    148.49065   0.98834263 
   42500    232.63324    332.33207    126182.06    -39754.11    2894.3998   -42648.509    148.95367   0.98978805 
   42600    231.26495    384.89658    126491.54   -39746.098    2877.3756   -42623.473    149.01853   0.98736634 
   42700     229.9643    392.30183    126194.28   -39741.616    2861.1931    -42602.81    149.01786   0.98969217 
   42800    233.23616    389.54157    126332.87   -39683.757    2901.9012   -42585.659     149.6575   0.98860645 
   42900    230.88623    315.80836    126501.26    -39753.04    2872.6636   -42625.704     150.4298   0.98729053 
   43000    224.90827    346.95256    126425.96   -39781.706    2798.2865   -42579.993    150.76341   0.98787854 
   43100    228.87047    193.20975    126483.57   -39762.886    2847.5838    -42610.47    151.51571   0.98742855 
   43200    233.83091    431.51902    126495.77   -39723.668    2909.3011   -42632.969    151.27554   0.98733332 
   43300    231.65757    221.03518    126246.41   -39740.482    2882.2606   -42622.743    151.12135   0.98928347 
   43400    231.54643    436.88162    126274.22   -39696.881    2880.8778   -42577.759    151.68962   0.98906565 
   43500    230.79177    264.42827    126291.18   -39711.787    2871.4884   -42583.275    152.54696   0.98893282 
   43600    236.39081     280.9709    126491.14   -39626.086    2941.1511   -42567.237    152.94949   0.98736946 
   43700    234.06731    376.92986    126609.77   -39672.709    2912.2424   -42584.952    153.28555   0.98644432 
   43800    239.26088    435.02412    126586.61   -39696.786    2976.8603   -42673.646    153.89564   0.98662481 
   43900    230.88316    481.97457    126422.84   -39757.789    2872.6255   -42630.414    153.97124   0.98790289 
   44000    229.55855    184.34567    126415.36   -39789.818    2856.1447   -42645.963    154.32324   0.98796139 
   44100     230.2031     169.5119    126245.93   -39804.006    2864.1642    -42668.17    154.29756   0.98928729 
   44200    225.40859    323.84057    126339.12   -39839.981    2804.5114   -42644.492    154.97191   0.98855759 
   44300    226.59413    90.659191    126357.37   -39841.459    2819.2617   -42660.721    155.61661    0.9884148 
   44400    224.45811    365.40227    126220.14    -39807.67    2792.6857   -42600.356    155.82605   0.98948938 
   44500    232.78668    203.01759    125986.71   -39836.018    2896.3089   -42732.327    155.93386   0.99132275 
   44600    225.07969    242.36845     125732.5   -39894.058    2800.4193   -42694.477    156.07786     0.993327 
   44700    226.82261     94.52505    125824.95   -39846.968    2822.1045   -42669.072     156.8544   0.99259718 
   44800    230.64535    254.26679    125920.01   -39796.356    2869.6667   -42666.023    157.18386   0.99184785 
   44900      231.477    364.33471    125869.11   -39751.661     2880.014   -42631.675    157.35416   0.99224891 
   45000     226.7865    460.64695     125889.3   -39748.157    2821.6552   -42569.812    157.76685   0.99208981 
   45100    229.43341    300.77128    125996.02   -39675.036    2854.5878   -42529.624    157.61537   0.99124946 
   45200    229.83609    290.08896    125936.41   -39716.302    2859.5979     -42575.9     157.9853   0.99171865 
   45300     231.7208    366.24258    125827.37   -39732.185    2883.0473   -42615.232    158.12715    0.9925781 
   45400    230.91267    387.59309    125879.37   -39708.676    2872.9927   -42581.669    158.84365   0.99216804 
   45500    231.14873    336.19171     125815.5   -39716.982    2875.9296   -42592.911    159.18616   0.99267175 
   45600    233.72882    299.98896    125801.15   -39708.816    2908.0308   -42616.847    159.47408   0.99278497 
   45700    227.11558    414.93391    125949.96   -39711.063    2825.7496   -42536.812    159.84081   0.99161199 
   45800    231.92598    313.33765    125979.77   -39640.673    2885.6002   -42526.273    160.04762   0.99137739 
   45900    235.87677    361.98486     125955.9   -39596.078    2934.7554   -42530.833    160.19489   0.99156523 
   46000    230.94226    324.50573    126193.48   -39573.561    2873.3608   -42446.921    160.85237   0.98969841 
   46100     238.3534    203.67929    125987.51   -39526.895    2965.5694   -42492.464     160.9846   0.99131643 
   46200    238.89281    405.23124    125929.06   -39524.297    2972.2807   -42496.577    160.95009   0.99177658 
   46300    230.71843    495.17882    125632.69   -39544.204    2870.5759    -42414.78    160.82865   0.99411622 
   46400     230.4695    292.73582    125638.24   -39572.371    2867.4787   -42439.849    161.05364    0.9940723 
   46500     231.6426    287.74304    125498.94   -39577.002    2882.0744   -42459.076    161.51474   0.99517563 
   46600    235.35736     391.6659    125293.48   -39566.578     2928.293   -42494.871    161.62468   0.99680755 
   46700    228.30233    346.71852     125305.2   -39649.801     2840.515   -42490.316    161.92389   0.99671434 
   46800    226.36834    84.111181    125085.25   -39694.965    2816.4525   -42511.418    161.89312   0.99846696 
   46900    230.87884    352.95296    125322.68   -39606.801    2872.5717   -42479.373    162.43413   0.99657537 
   47000    232.60645    434.02436    125037.34   -39588.414    2894.0665   -42482.481    162.54434   0.99884951 
   47100    229.57467    285.52144    125123.53    -39553.71    2856.3453   -42410.056    162.99601   0.99816154 
   47200    233.10294     262.2257    125121.88   -39613.404    2900.2437   -42513.648    163.89535   0.99817464 
   47300    227.27837    298.64753    125323.61   -39642.633     2827.775   -42470.408    164.68874   0.99656791 
   47400    232.15022     209.1158    125255.39   -39587.003    2888.3901   -42475.393    164.87391   0.99711072 
   47500    233.60695    192.46588     125345.9   -39517.123    2906.5146   -42423.637    165.54638   0.99639072 
   47600    231.29089    232.49347    125177.14   -39477.844    2877.6983   -42355.542    165.65724   0.99773399 
   47700    232.13847    138.47166    125228.01   -39518.058    2888.2439   -42406.302    166.73327   0.99732872 
   47800    232.70405    98.930957    125250.63   -39512.347    2895.2807   -42407.628    166.89791   0.99714863 
   47900    232.07807    349.70259    125310.97   -39619.549    2887.4924   -42507.041    167.32506   0.99666842 
   48000    228.39744    288.73324    125323.55   -39639.278    2841.6984   -42480.976    167.76121    0.9965684 
   48100    227.13717    398.06742    125414.83   -39602.464    2826.0182   -42428.483     168.2627   0.99584305 
   48200    228.24123    368.46704    125602.85   -39635.953    2839.7548   -42475.708    168.80692   0.99435237 
   48300    229.23162    560.12305    125689.24   -39618.615    2852.0772   -42470.692    169.52965   0.99366893 
   48400    232.99473    397.38766    125725.12   -39530.865    2898.8974   -42429.763    169.90717   0.99338536 
   48500    229.23036    264.87504    125717.37   -39596.463    2852.0615   -42448.525    170.46289   0.99344661 
   48600    230.50445    144.15693    125784.04       -39596    2867.9136   -42463.913    170.72245   0.99292003 
   48700    231.35097    271.47111    125743.91   -39555.101    2878.4459   -42433.547    171.32816   0.99323694 
   48800    231.84793    160.87996    125763.47   -39586.169     2884.629   -42470.798    171.61023    0.9930824 
   48900    229.27854    178.76429     125794.2   -39580.446    2852.6609   -42433.107    172.36618   0.99283982 
   49000    229.33787    295.18681    125681.04   -39630.571    2853.3991    -42483.97    172.42122   0.99373378 
   49100     230.5594    447.68165    125571.96   -39635.303    2868.5972   -42503.901    172.55336   0.99459696 
   49200    230.29529    210.36069    125562.74   -39672.373    2865.3112   -42537.684    172.82723   0.99467002 
   49300     227.8049    423.51707    125574.56   -39617.176    2834.3261   -42451.502    173.05328   0.99457641 
   49400    226.65306    242.69412     125587.3   -39585.432     2819.995   -42405.427    173.16262   0.99447551 
   49500    228.91724    306.88299    125850.18   -39603.492    2848.1657   -42451.657    173.91061   0.99239821 
   49600    230.18734    25.831586    125626.07   -39633.445    2863.9682   -42497.413    174.25772   0.99416856 
   49700    231.06036    136.21209    125461.73   -39653.456    2874.8301   -42528.286    174.65922   0.99547078 
   49800    227.53131    305.90903    125452.15   -39694.608    2830.9221    -42525.53    175.29742   0.99554684 
   49900     231.6616    465.47236    125452.03   -39567.931    2882.3107   -42450.242    175.75823    0.9955478 
   50000    233.20474    102.12262    125365.85   -39606.298    2901.5103   -42507.808    175.46347   0.99623214 
   50100     227.5361    339.16017    125281.83   -39600.293    2830.9816   -42431.274    175.49708    0.9969003 
   50200    227.88543    114.33079    125190.99   -39642.931     2835.328   -42478.259    175.71335    0.9976236 
   50300    229.14526    422.35516    125235.62   -39613.283    2851.0027   -42464.286    176.36605   0.99726815 
   50400    229.35087    367.49851    125258.11   -39650.871    2853.5609   -42504.432    176.72727   0.99708907 
   50500    222.93075    290.70673     125293.5   -39695.767    2773.6824   -42469.449    177.44979    0.9968074 
   50600    225.91777    298.31079    124971.07   -39716.673    2810.8466   -42527.519    177.79708   0.99937926 
   50700    223.39212    390.77287    125053.22   -39726.262    2779.4227   -42505.685    178.03175   0.99872268 
   50800    226.48223    242.23377    125005.41   -39713.842    2817.8695   -42531.711    178.37389    0.9991047 
   50900    227.83425     256.9415    125091.69   -39616.533    2834.6912   -42451.225    178.68497   0.99841557 
   51000    228.61938    399.14698    125220.62   -39639.136    2844.4598   -42483.596    179.28339   0.99738754 
   51100    229.27499    413.57929    125395.06    -39698.07    2852.6168   -42550.687    180.12025   0.99600011 
   51200    229.91297     331.6742    125524.86   -39689.247    2860.5545   -42549.801    181.04517   0.99497018 
   51300    228.29816    410.60652    125567.37   -39757.658    2840.4632   -42598.121    181.58284   0.99463334 
   51400    225.67438    226.80796    125696.15     -39769.8    2807.8183   -42577.619     182.4049   0.99361429 
   51500    228.76145    253.13691    125468.77   -39784.767    2846.2273   -42630.995    182.51448   0.99541498 
   51600    231.90822    236.39912    125709.27   -39727.122    2885.3792   -42612.501    183.00796   0.99351063 
   51700    236.35923    416.31885    125747.67   -39723.598    2940.7581   -42664.357    183.45112   0.99320716 
   51800    229.52085    315.60321    125811.75   -39763.065    2855.6757    -42618.74    183.90885   0.99270133 
   51900    223.31415    205.22826    125758.73   -39798.767    2778.4526    -42577.22     184.2431   0.99311987 
   52000    226.25558    395.05552     125790.1   -39811.866    2815.0496   -42626.915     184.7769   0.99287222 
   52100    229.08542    318.86441    125731.13   -39762.957    2850.2581   -42613.215    185.02091   0.99333788 
   52200    225.80751    462.10537    125690.25    -39786.63    2809.4747   -42596.105    184.46657   0.99366095 
   52300    224.72644    317.58195    125593.48   -39750.683    2796.0242   -42546.707    184.45425   0.99442654 
   52400      229.139     390.6636    125475.37   -39688.104    2850.9248   -42539.029    184.72217   0.99536261 
   52500    225.10711    421.03185    125423.92   -39675.285    2800.7605   -42476.045     185.0205   0.99577094 
   52600    226.97272    404.81174    125539.49    -39676.42    2823.9721   -42500.392    185.31062    0.9948542 
   52700    223.48207    301.22445    125614.18    -39681.13    2780.5418   -42461.672    185.99603   0.99426268 
   52800     229.6235    500.56905    125283.92   -39627.153    2856.9529   -42484.106    185.75696   0.99688363 
   52900    231.85899    391.17039    125138.55   -39624.954    2884.7667    -42509.72    185.65438   0.99804171 
   53000    232.52821    371.07018    125298.15   -39613.463    2893.0931   -42506.556    186.00032   0.99677041 
   53100    226.99103    312.24717    125425.32   -39668.032       2824.2   -42492.232    186.63586   0.99575981 
   53200    228.63638    336.07827     125377.7   -39653.994    2844.6713   -42498.665    186.75362   0.99613798 
   53300    225.39718    198.60207    125584.86   -39643.031    2804.3694     -42447.4    186.98373   0.99449481 
   53400    227.47883    496.24615    125521.06   -39730.682    2830.2692   -42560.951    187.15044    0.9950003 
   53500     229.8215     245.4434    125634.39   -39761.383    2859.4164   -42620.799    187.60769   0.99410275 
   53600    228.24806    442.55189    125579.44   -39772.807    2839.8398   -42612.646    187.84419   0.99453776 
   53700    227.30983    250.48178    125514.27   -39807.649    2828.1664   -42635.815    188.75926   0.99505413 
   53800    229.55555    256.48346    125559.71   -39689.605    2856.1074   -42545.713    189.30006   0.99469402 
   53900    230.20155    364.18659    125689.22   -39745.669    2864.1449   -42609.814    189.44899   0.99366907 
   54000    230.27827    537.76347    125762.16   -39721.463    2865.0995   -42586.562    189.40682   0.99309274 
   54100    225.43236    163.48683    125784.62   -39734.591    2804.8072   -42539.398    189.92146   0.99291543 
   54200    228.87397    349.30056    125563.45   -39691.796    2847.6274   -42539.423    190.50735   0.99466439 
   54300    230.46199    508.65564    125421.17   -39658.498    2867.3853   -42525.883    190.79858   0.99579273 
   54400    227.59409      122.633    125451.83   -39678.083    2831.7031   -42509.786     191.3238   0.99554939 
   54500    228.39509    189.36266    125449.76   -39660.835    2841.6692   -42502.504    191.78681   0.99556583 
   54600    235.67504     299.7297    125482.96    -39564.84    2932.2456   -42497.085     191.8673   0.99530237 
   54700    231.82337    416.75922    125402.29   -39566.467    2884.3235    -42450.79    191.95874   0.99594268 
   54800     232.7953    126.58472    125115.47   -39648.847    2896.4161   -42545.263    191.60111   0.99822577 
   54900    225.90203     204.5798    125139.43   -39682.413    2810.6507   -42493.063    192.03996   0.99803467 
   55000    223.62301   -19.419359    124947.05   -39711.517    2782.2954   -42493.812    191.94311   0.99957134 
   55100    223.81589      476.012    124993.54   -39672.838    2784.6952   -42457.533    192.55647   0.99919957 
   55200     226.5378     155.5627    125059.38   -39664.852    2818.5609   -42483.413    193.19616   0.99867353 
   55300    230.43226    282.07746    125061.66   -39625.214    2867.0154   -42492.229    193.46092    0.9986553 
   55400    235.87843    151.55869    125214.73   -39613.422    2934.7761   -42548.198    194.02238    0.9974345 
   55500    234.28097     200.7058    125307.16     -39565.9    2914.9007     -42480.8    194.48548   0.99669875 
   55600    233.63611    445.24665    125611.93    -39622.78    2906.8774   -42529.657    195.32749   0.99428046 
   55700    234.43697    278.33683    125455.09   -39631.492    2916.8416   -42548.334    195.41519   0.99552347 
   55800    231.93386    347.02416       125411    -39647.95    2885.6982   -42533.648    195.57374   0.99587348 
   55900    233.42999    366.12673    125151.33   -39617.413    2904.3129   -42521.726    195.97223   0.99793982 
   56000     234.7822    376.09618     125372.2   -39622.411    2921.1369   -42543.548    196.54755   0.99618172 
   56100    231.46501    348.23493    125375.96   -39589.127    2879.8647   -42468.992    197.38232   0.99615185 
   56200     235.5635    278.15033    125464.44   -39601.276    2930.8578   -42532.134    197.57741   0.99544931 
   56300    231.58464    288.84907    125636.78   -39649.789    2881.3532   -42531.142    198.28375   0.99408379 
   56400    232.83916     300.4799    125503.08   -39647.179    2896.9618    -42544.14    198.38091    0.9951428 
   56500    226.69775    377.50404    125301.45   -39749.876     2820.551   -42570.427    198.49365   0.99674418 
   56600    224.71957    267.47896    125329.66   -39769.547    2795.9387   -42565.485    198.95066   0.99651981 
   56700    229.83643    350.87361    125296.01   -39799.177    2859.6022    -42658.78    199.51213   0.99678744 
   56800    231.93345    506.94137    125542.89   -39720.018    2885.6931   -42605.711    199.68894   0.99482729 
   56900    229.18891    417.10297    125879.64       -39710    2851.5458   -42561.545     200.1061    0.9921659 
   57000    232.64492    576.22566    125935.26    -39654.31    2894.5451   -42548.855    200.23623   0.99172778 
   57100    228.57102    321.90062    125878.47   -39708.243     2843.858   -42552.102    200.32069   0.99217517 
   57200    231.23465    342.24413    125908.12   -39754.378    2876.9987   -42631.376    200.88631   0.99194148 
   57300    227.21534    269.29849     126016.1   -39812.439    2826.9908   -42639.429     201.4135   0.99109157 
   57400    223.21986     255.1197    125829.98   -39820.163    2777.2794   -42597.443    201.75128   0.99255749 
   57500    224.63832    269.79651    125748.39   -39866.145    2794.9278   -42661.072    202.04096   0.99320148 
   57600    227.38676    218.19898    125737.33   -39819.722    2829.1235   -42648.845    202.51274   0.99328887 
   57700     224.7104    251.81789    125553.38    -39868.14    2795.8245   -42663.965    202.65111   0.99474419 
   57800    222.06028     220.2702    125547.29   -39897.394     2762.852   -42660.246    203.02856   0.99479238 
   57900    226.58402    397.33967    125506.93   -39884.874     2819.136    -42704.01    202.73831   0.99511233 
   58000     229.7368    134.06047    125600.49   -39894.194    2858.3625   -42752.557    203.09414   0.99437105 
   58100    224.17504    340.44143    125946.72   -39800.924    2789.1636   -42590.088    203.39887   0.99163749 
   58200    229.36863    146.83999    125956.63   -39745.243    2853.7819   -42599.024    203.78392   0.99155949 
   58300    228.09417    366.43052    126161.15    -39657.77    2837.9251   -42495.695    204.72725   0.98995209 
   58400    226.42582    363.20187    126476.52   -39635.207    2817.1677   -42452.375    205.90717   0.98748361 
   58500    231.58978    370.66709    126411.03   -39629.947    2881.4172   -42511.364    206.12496   0.98799521 
   58600     234.9097    214.35794    126383.12   -39603.532    2922.7233   -42526.256    206.46682   0.98821336 
   58700    230.51691    325.66433    126350.88   -39608.147    2868.0686   -42476.215    206.89336   0.98846553 
   58800    233.63797    146.19856    126306.22   -39669.572    2906.9006   -42576.473    207.16087   0.98881503 
   58900    231.00586    440.55261    126314.96   -39721.927     2874.152   -42596.079    207.05878   0.98874666 
   59000    231.14801    260.33289    126289.43   -39706.064    2875.9207   -42581.985     207.0532   0.98894653 
   59100    228.80326    240.93059    126393.18   -39713.777    2846.7475   -42560.525    207.62692   0.98813472 
   59200    231.85198    463.76217     126164.6   -39748.668    2884.6794   -42633.348    207.48927   0.98992497 
   59300    225.44896    425.24303    126342.49   -39738.387    2805.0137   -42543.401    207.70566   0.98853116 
   59400    232.71706    235.58131    126464.54   -39792.232    2895.4427   -42687.675    208.67158   0.98757712 
   59500    227.16077    207.74887     126299.8   -39756.063    2826.3118   -42582.375    208.55283   0.98886532 
   59600    227.72588    181.96498    126275.25   -39734.181    2833.3429   -42567.524    209.02402    0.9890576 
   59700    224.75238      336.319    126302.87   -39757.577    2796.3468   -42553.924    209.09792   0.98884131 
   59800    226.01574    325.46616    126403.44   -39743.504    2812.0655   -42555.569    209.51323   0.98805449 
   59900    228.53513    92.494996    126262.38   -39716.427    2843.4115   -42559.838    210.37627   0.98915835 
   60000    223.84165     328.1431    126081.63   -39753.784    2785.0156     -42538.8    210.48565    0.9905764 
   60100    225.53746    215.76743    126084.37   -39715.715    2806.1148    -42521.83    210.85903   0.99055488 
   60200    228.17659    245.57282    125760.11   -39690.906    2838.9506   -42529.857    210.52955   0.99310895 
   60300     227.8984    286.78902    126005.58   -39659.391    2835.4894    -42494.88     210.9968   0.99117431 
   60400    233.81972    189.66796    125878.58   -39610.744    2909.1619   -42519.906    211.21238   0.99217431 
   60500    229.69648    169.99968    125847.02   -39652.994    2857.8609   -42510.855    211.96896   0.99242315 
   60600    229.34406    563.16576    125675.67   -39708.086    2853.4762   -42561.562    212.01533   0.99377623 
   60700    230.23123    172.80597    125517.19   -39715.634    2864.5142   -42580.148     212.9528     0.995031 
   60800    234.10008    506.68161    125455.86   -39673.821      2912.65   -42586.471    213.25163   0.99551739 
   60900    229.18371    292.66515    125757.19   -39659.469    2851.4811    -42510.95     213.4281   0.99313198 
   61000    232.07404    296.60766    125684.21   -39690.872    2887.4423   -42578.315    213.64972   0.99370872 
   61100    226.80485    371.62638    125516.94   -39731.112    2821.8835   -42552.995    214.03698   0.99503297 
   61200    225.41071    394.11051    125608.89   -39728.281    2804.5378   -42532.818    215.07208   0.99430457 
   61300    228.34812    283.74333    125706.67    -39710.39    2841.0847   -42551.475     215.3287   0.99353114 
   61400    230.48336    172.99135    125641.81   -39742.974    2867.6512   -42610.625    215.91313   0.99404407 
   61500    227.97613    285.50284    125544.81    -39749.72    2836.4564   -42586.177    216.41003   0.99481204 
   61600    231.44854     301.7761    125547.61   -39721.768    2879.6599   -42601.428    216.54519   0.99478987 
   61700    229.92091    208.26187    125293.83   -39802.436    2860.6532    -42663.09     216.4626   0.99680482 
   61800     225.1529    519.49746    125308.47   -39877.421    2801.3302   -42678.751    217.04302   0.99668836 
   61900    227.57083    246.55183     125420.6   -39809.086    2831.4138     -42640.5    217.92628   0.99579726 
   62000    228.38324    393.23452    125633.13   -39776.807    2841.5216   -42618.329     218.5242   0.99411275 
   62100     225.8411    419.74489    125550.11   -39792.869    2809.8926   -42602.762    218.47294   0.99477005 
   62200    227.67476    464.07751    125505.67   -39733.992    2832.7069   -42566.699    218.54734   0.99512228 
   62300    225.36171     215.8008    125449.63   -39764.513    2803.9281   -42568.441    219.02286   0.99556684 
   62400    231.11355    324.70412     125520.3   -39693.878     2875.492    -42569.37    218.79562   0.99500629 
   62500     229.6759    683.61284    125723.09   -39696.603    2857.6048   -42554.207    219.33224   0.99340142 
   62600     230.0747     105.4899    126104.41   -39694.173    2862.5666   -42556.739    220.54886   0.99039751 
   62700    227.38111    243.28298     126284.2   -39728.004    2829.0533   -42557.058    220.89652   0.98898743 
   62800    230.34082    342.90699    126136.89   -39710.243    2865.8777   -42576.121    221.05316    0.9901425 
   62900    228.35155    411.25075     126012.1   -39649.463    2841.1274    -42490.59    221.19725   0.99112299 
   63000    231.47476    497.11641    126195.59   -39610.783    2879.9861    -42490.77    222.21615   0.98968192 
   63100    229.51854    258.84988    126237.31   -39584.401     2855.647   -42440.048    223.02981   0.98935483 
   63200    231.10138    58.231197    126164.25   -39599.732    2875.3405   -42475.073    223.39625   0.98992778 
   63300    232.56873    490.84413    126102.54   -39653.982    2893.5972   -42547.579    223.73465   0.99041221 
   63400    234.13496    59.423247    125860.52   -39598.445    2913.0841   -42511.529    224.17256   0.99231669 
   63500    228.29415    347.45234    125490.22   -39716.698    2840.4132   -42557.111    224.28909   0.99524485 
   63600    232.14655    288.84437    125399.11   -39720.453    2888.3445   -42608.798    224.72944   0.99596794 
   63700    228.98798    397.57045    125477.48   -39726.187    2849.0458   -42575.233    225.10671   0.99534584 
   63800    225.56373    226.12216    125423.32   -39823.081    2806.4416   -42629.522     225.4274   0.99577571 
   63900    225.99585    272.48449    125330.24   -39825.566     2811.818   -42637.384    225.52431   0.99651523 
   64000    229.15415    270.49186    125489.35   -39807.848    2851.1133   -42658.962    226.35825   0.99525171 
   64100    228.18343    249.95464    125515.66    -39725.32    2839.0357   -42564.356    226.48487   0.99504306 
   64200    229.69547    223.89871    125576.06   -39714.092    2857.8483    -42571.94    226.80649    0.9945645 
   64300    237.03621    321.95161    125448.63   -39634.248    2949.1811   -42583.429    226.93726   0.99557474 
   64400    230.89059     627.0439    125614.45    -39648.21    2872.7179   -42520.928    227.42303   0.99426057 
   64500    235.53765    544.76239    125713.82   -39646.943    2930.5361   -42577.479    228.21204   0.99347464 
   64600    228.47306      150.002    125881.97   -39705.931    2842.6392    -42548.57    227.51106   0.99214756 
   64700    230.45787    535.73443    126063.79   -39739.525    2867.3341   -42606.859    228.03388   0.99071658 
   64800    230.90551     200.5067    125989.81   -39755.918    2872.9035   -42628.821    228.74855   0.99129834 
   64900    232.23494    260.40963    125895.55   -39737.114    2889.4442   -42626.558    228.92468   0.99204057 
   65000    228.82978    313.10347    125861.98   -39707.895    2847.0775   -42554.973    229.27613   0.99230514 
   65100    227.04147    268.60137    125996.04   -39732.896    2824.8276   -42557.724     229.7821    0.9912493 
   65200    230.24638    401.85741     125953.6   -39708.442    2864.7027   -42573.145    230.89711   0.99158333 
   65300    229.23122    213.83202    126040.12   -39699.656    2852.0722   -42551.728     230.8773    0.9909027 
   65400    233.64596    377.16556    125956.68    -39623.01    2906.9999    -42530.01    231.41795   0.99155905 
   65500    230.00955    339.27116    125673.05   -39677.301    2861.7561   -42539.057    231.04375   0.99379689 
   65600    230.23902    539.07633    125769.37   -39717.803    2864.6111   -42582.414    232.00259   0.99303586 
   65700    226.73382    259.04768    125494.24   -39762.754    2820.9998   -42583.754    232.25296   0.99521293 
   65800    227.16101    356.92368    125376.45   -39767.642    2826.3148   -42593.957    233.08905   0.99614792 
   65900    230.69981    518.41852     125468.1   -39753.323    2870.3443   -42623.668    233.47152   0.99542028 
   66000    236.02363    331.48633    125727.64   -39666.744    2936.5827   -42603.326    233.99247   0.99336545 
   66100     235.6976    313.30487    125727.06   -39635.753    2932.5262    -42568.28    234.49352   0.99337002 
   66200    233.28774    449.45782    125908.68   -39607.173     2902.543   -42509.715     235.4587   0.99193709 
   66300    231.15782    172.05115    126064.82   -39644.736    2876.0427   -42520.779    235.81476    0.9907085 
   66400    227.99472    389.06494    125840.77   -39691.633    2836.6877   -42528.321    235.45271   0.99247242 
   66500    228.40444    172.15399    125865.45   -39710.672    2841.7854   -42552.457    236.01153   0.99227777 
   66600      230.586    469.67786    125533.05   -39728.613    2868.9283   -42597.541    236.02556   0.99490528 
   66700    227.97336    220.78922     125785.9   -39753.854    2836.4221   -42590.276    236.47895   0.99290533 
   66800    232.24879    205.05006    125675.41   -39693.953    2889.6164   -42583.569    237.15616   0.99377829 
[...]
   84600    227.70349    602.05447    125335.24   -39813.043    2833.0644   -42646.107    306.69123   0.99647549 
   84700    224.32233    437.72103    125401.47   -39827.047    2790.9962   -42618.043    307.50178   0.99594921 
   84800    228.35419     261.2295    125467.34   -39790.088    2841.1603   -42631.248    308.68787    0.9954263 
   84900    226.48586    263.63388    125303.97   -39752.242    2817.9147   -42570.157    308.74264   0.99672415 
   85000     231.3808    366.53511    125233.38   -39691.103    2878.8171    -42569.92    309.10769   0.99728598 
   85100    227.63883    371.76367    125142.99   -39680.636    2832.2598   -42512.896    308.81482   0.99800628 
   85200     229.7688    431.70239    125211.79   -39677.469    2858.7607    -42536.23     310.1647   0.99745793 
   85300    226.70672    280.43296    125038.01   -39732.886    2820.6626   -42553.549    310.36515   0.99884423 
   85400    228.54121    213.60627    125147.63   -39721.956    2843.4872   -42565.443    310.41314   0.99796926 
   85500    232.33444    321.29522    124992.78   -39688.689    2890.6822   -42579.371    311.01548   0.99920566 
   85600    231.01438    198.45064    125142.54   -39698.348     2874.258   -42572.606    311.08216   0.99800986 
   85700    227.76694    256.43948     124889.4   -39758.617    2833.8538   -42592.471    311.04784    1.0000328 
   85800    229.25841    378.87648    125130.59   -39757.222    2852.4104   -42609.632    311.99054    0.9981052 
   85900     232.2486    259.47505    125045.28   -39654.249    2889.6141   -42543.863     311.8509   0.99878616 
   86000    230.98324    450.48125    125162.18    -39705.99    2873.8706    -42579.86    312.78153   0.99785326 
   86100    232.31933    257.45616    125431.75   -39691.613    2890.4942   -42582.107    313.43068   0.99570875 
   86200    228.57578    137.84476    125569.54   -39655.609    2843.9173   -42499.527    313.08599   0.99461617 
   86300     232.6213    109.22196    125297.64   -39699.292    2894.2513   -42593.544    313.30867   0.99677446 
   86400    230.80342    282.03999    125374.85    -39708.48    2871.6334   -42580.113    313.19892   0.99616062 
   86500    232.41635    271.54907    125214.04   -39680.035    2891.7013   -42571.736    313.54032   0.99743999 
   86600    231.65161    366.54329    125523.47   -39603.002    2882.1865   -42485.188    314.89048   0.99498122 
   86700    233.88227    437.12461    125536.76   -39599.862      2909.94   -42509.802    315.22921   0.99487589 
   86800    233.22695    260.95822    125757.82   -39701.573    2901.7867    -42603.36    316.03286   0.99312708 
   86900    232.78539    286.76145    125642.36   -39674.981    2896.2928   -42571.274    316.46812   0.99403964 
   87000    228.06561    345.04392    125627.61   -39677.847    2837.5698   -42515.417    316.40479   0.99415637 
   87100    228.66307    300.77476    125694.79   -39704.355    2845.0033   -42549.358    316.94483   0.99362504 
   87200    231.37426    232.79311    125694.72   -39692.725    2878.7356    -42571.46    317.50654   0.99362562 
   87300    227.67578    339.10939    125729.41   -39698.986    2832.7196   -42531.705    317.93322   0.99335143 
   87400    233.38023    172.17383    125740.68   -39707.182    2903.6937   -42610.876    318.42273   0.99326245 
   87500    228.28575    118.51706    125557.37   -39713.338    2840.3087   -42553.647    318.47362   0.99471252 
   87600    229.40116    433.86405    125450.72   -39708.985    2854.1865   -42563.172    318.50499   0.99555818 
   87700    230.04542    358.80013    125506.11    -39712.66    2862.2024   -42574.862    319.16675   0.99511879 
   87800    231.57838    368.85325    125576.52   -39701.103    2881.2753   -42582.378     319.8086   0.99456082 
   87900    227.45039    248.07122    125618.19   -39724.442    2829.9152   -42554.357    320.54393   0.99423097 
   88000    228.13683    302.36494    125620.61   -39752.065    2838.4559   -42590.521    320.33246   0.99421177 
   88100    230.36695    180.24272       125570   -39685.288    2866.2028   -42551.491    320.95469   0.99461246 
   88200    235.85983    319.50261    125565.77   -39663.419    2934.5447   -42597.964    321.10118   0.99464602 
   88300    230.44897    342.93507    125570.31   -39725.238    2867.2233   -42592.461    321.86346   0.99461002 
   88400    225.02728    390.31306    125620.73   -39815.742    2799.7672   -42615.509    321.93831   0.99421081 
   88500    230.61157    331.98473    125694.53   -39691.556    2869.2464   -42560.803    322.12891   0.99362713 
   88600    231.64165    298.41804    125767.97   -39637.093    2882.0625   -42519.156    322.11226   0.99304688 
   88700    226.32957    233.66225    125522.01   -39609.655    2815.9701   -42425.625    322.29854   0.99499278 
   88800    233.84555    237.77378    125545.72   -39529.536    2909.4832   -42439.019    322.45959   0.99480486 
   88900    232.20219    482.42391    125700.98    -39584.84    2889.0367   -42473.877    323.28349   0.99357612 
   89000    233.68894    190.34055     125939.5   -39564.629    2907.5347   -42472.164    323.66277   0.99169439 
   89100    229.35432    316.75603    125644.06   -39674.579    2853.6038   -42528.182    323.59431   0.99402626 
   89200    230.28584    210.93162     125788.5   -39710.895    2865.1937   -42576.089    323.58729   0.99288485 
   89300    227.41455    323.50294    125633.87   -39726.744    2829.4694   -42556.213    322.94899   0.99410689 
   89400    228.39798    329.53657    125522.79   -39751.048    2841.7051   -42592.753    323.31156   0.99498661 
   89500    223.01643    285.20022    125430.33   -39794.424    2774.7483   -42569.172    323.84067   0.99572002 
   89600    225.66847    112.72705    125187.64   -39840.838    2807.7448   -42648.583    323.32544   0.99765032 
   89700    226.02048    406.94435    125415.04   -39798.796    2812.1244   -42610.921    323.92267   0.99584145 
   89800    231.76584    267.27618    125629.53   -39760.524    2883.6076   -42644.132     324.5051   0.99414121 
   89900    222.51043    455.23259    125947.63   -39812.289    2768.4527   -42580.742    325.80855   0.99163033 
   90000    231.64435    232.15795     125778.9    -39721.37    2882.0962   -42603.466    325.70682   0.99296063 
   90100    227.73688    227.31886    125608.27   -39744.711    2833.4798   -42578.191    326.34662   0.99430944 
   90200    224.51654    323.36427    125593.51   -39777.043    2793.4126   -42570.456    326.65309   0.99442629 
   90300    227.70807    413.76185    125780.06   -39785.674    2833.1213   -42618.795    327.10113   0.99295144 
   90400    227.63835    360.15676    125798.94   -39776.844    2832.2538   -42609.098    327.90866    0.9928024 
   90500    226.64473    81.980829    125778.53   -39748.404    2819.8913   -42568.295    327.92223   0.99296355 
   90600    233.42799      213.709    125754.94   -39657.027     2904.288   -42561.315    328.19134   0.99314975 
   90700    231.20184    335.00246    125568.97   -39682.463    2876.5904   -42559.054    327.97928   0.99462066 
   90800    231.62014    318.31228    125697.33   -39705.765    2881.7948    -42587.56    327.80947   0.99360493 
   90900    227.09598    150.34809     125471.4   -39788.512    2825.5057   -42614.018    327.49923   0.99539409 
   91000    226.39677    248.38569     125524.7   -39803.554    2816.8063   -42620.361    327.74013   0.99497144 
   91100    230.40244    234.62399    125768.24   -39794.438    2866.6444   -42661.082    328.82017   0.99304476 
   91200    223.51825    250.84266    125557.32    -39751.89     2780.992   -42532.882    328.80645   0.99471297 
   91300    230.62283    465.00908    125524.07   -39648.568    2869.3864   -42517.955    329.74142   0.99497644 
   91400    228.98052    132.59679    125500.01   -39616.335    2848.9529   -42465.287    329.69546   0.99516722 
   91500    231.52127    476.56615    125393.94   -39617.112    2880.5648   -42497.676    329.33817   0.99600902 
   91600    226.04185    225.49536    125316.16   -39632.002    2812.3904   -42444.392    329.57245   0.99662717 
   91700    227.44201    399.69819    125358.43   -39696.999     2829.811    -42526.81    330.05799   0.99629109 
   91800    226.95268    222.70262     125295.9   -39662.545    2823.7229   -42486.268    330.67565   0.99678836 
   91900    225.95299    195.79372    125267.18   -39678.034    2811.2848   -42489.319    331.24075   0.99701684 
   92000    230.72832    132.63217    125331.74   -39699.322    2870.6989   -42570.021    331.79554   0.99650333 
   92100    224.58007     216.9354    125163.25   -39762.891     2794.203   -42557.094    332.01562   0.99784476 
   92200    228.64321    216.92572    125089.71   -39707.303    2844.7562    -42552.06    332.58756   0.99843141 
   92300    231.95228    356.99952    125257.07   -39595.503    2885.9273    -42481.43    333.50283   0.99709737 
   92400    228.49411     294.3624    125231.79   -39591.844    2842.9012   -42434.745    334.04525   0.99729861 
   92500    226.25206    170.11414    125360.83   -39632.831    2815.0057   -42447.837       334.15   0.99627201 
   92600    233.77462    228.31678    125207.44   -39598.326    2908.6007   -42506.926    334.27968   0.99749254 
   92700    230.04819    388.14936    125394.32   -39584.913    2862.2369    -42447.15    335.03602   0.99600594 
   92800    231.90553    327.53114    125512.96   -39623.271    2885.3457   -42508.617    335.90742   0.99506447 
   92900    229.47015     248.1082    125294.98   -39583.695    2855.0449    -42438.74    335.63262   0.99679568 
   93000    229.42679    420.83266    125282.56   -39600.112    2854.5054   -42454.618    336.21254   0.99689445 
   93100    234.22144    189.09792    124967.43   -39546.261      2914.16   -42460.421    336.09067   0.99940833 
   93200    228.68384    283.85631    125051.01   -39559.414    2845.2618   -42404.676    336.89258   0.99874039 
   93300    229.74416    391.00993    124926.94   -39584.269    2858.4542   -42442.723    336.81762   0.99973224 
   93400    228.40059    518.71913    125055.08   -39607.545    2841.7376   -42449.283    337.48492   0.99870789 
   93500    230.63168    548.72711    125220.83   -39630.401    2869.4966   -42499.897    338.81158    0.9973859 
   93600    227.17827    148.68337    125127.83    -39712.77    2826.5296   -42539.299    339.06633   0.99812718 
   93700    227.56212    401.09646    125011.97   -39688.743    2831.3054   -42520.049    338.95755    0.9990523 
   93800    230.30216    260.27471    124768.59   -39667.321    2865.3966   -42532.718    339.08873     1.001001 
   93900    228.28979    174.81047    125206.98   -39663.417     2840.359   -42503.776    339.90171   0.99749625 
   94000    229.57003    198.50656    125202.04   -39686.239    2856.2876   -42542.527    340.62281   0.99753558 
   94100    230.16945    208.23024    125108.05   -39696.136    2863.7455   -42559.882    340.24807   0.99828499 
   94200    228.82679    279.57889    125188.31   -39710.418    2847.0403   -42557.458    340.88284   0.99764497 
   94300    231.41815    354.43472    125260.72   -39667.705    2879.2818   -42546.987      341.267   0.99706827 
   94400    229.41665    402.19258    124825.57   -39653.035    2854.3793   -42507.414    341.58035    1.0005441 
   94500    231.41801    276.05471    125040.86   -39589.333      2879.28   -42468.613    342.69499   0.99882142 
   94600    227.59755    441.95666    125127.09   -39620.912    2831.7462   -42452.658    343.89329   0.99813315 
   94700    227.31351    374.37277    125219.11   -39654.824    2828.2122   -42483.036    344.55838   0.99739961 
   94800    230.48466    204.82324    125375.08    -39668.22    2867.6674   -42535.887    345.54674   0.99615878 
   94900    231.45468    312.24128    125409.56   -39650.577    2879.7363   -42530.313    346.39406   0.99588493 
   95000    232.14972    483.81045    125645.95   -39648.709    2888.3838   -42537.092    347.47343   0.99401124 
   95100    233.94353    199.59519     125430.3   -39671.829    2910.7023   -42582.531    347.86581   0.99572022 
   95200    230.02694    319.97369    125309.34   -39691.608    2861.9724    -42553.58    348.04258   0.99668141 
   95300    238.90145    609.36892    125386.71     -39591.5    2972.3882   -42563.888    348.60807   0.99606644 
   95400    228.37267    463.15728     125307.6   -39629.389    2841.3902   -42470.779    349.07113   0.99669522 
   95500    228.81652    192.60658    125282.38   -39619.533    2846.9125   -42466.446    349.07191    0.9968959 
   95600    237.09288    307.78375    125091.44   -39606.717    2949.8862   -42556.603     349.1066   0.99841754 
   95700    231.07862    403.49747    125188.52   -39672.949    2875.0573   -42548.006    349.72927   0.99764329 
   95800    229.90952    462.55111    125181.85   -39724.614    2860.5115   -42585.125    349.71626   0.99769646 
   95900    226.95432    334.06934    125341.81   -39668.262    2823.7433   -42492.005    350.10497   0.99642326 
   96000    233.80017    76.992891    125192.12   -39732.695    2908.9186   -42641.614     350.8933   0.99761462 
   96100    229.80203     282.6846    124995.15   -39686.477    2859.1742   -42545.651    351.29553   0.99918669 
   96200     228.1981    261.40063    125138.88    -39729.01    2839.2182   -42568.228    352.13134   0.99803904 
   96300    228.86209    306.58592    125227.88   -39674.389    2847.4795   -42521.869    352.19232   0.99732973 
   96400    233.02428    326.58468    125306.52   -39651.426     2899.265   -42550.691    353.30806   0.99670385 
   96500    226.74449     449.8691    125359.86   -39707.566    2821.1326   -42528.699     353.2758   0.99627978 
   96600    229.14064    202.08943    125272.94   -39703.592    2850.9451   -42554.537    352.70907   0.99697104 
   96700    226.20839    380.37369    125292.37   -39774.626    2814.4624   -42589.089    352.73565   0.99681643 
   96800    223.86664   0.99055805    125234.67   -39832.399    2785.3266   -42617.726    353.37811   0.99727572 
   96900    228.72688    545.85492    125331.17   -39770.926    2845.7973   -42616.724     353.6407   0.99650779 
   97000     227.0766    264.81465    125409.92   -39783.583    2825.2646   -42608.847    354.10352   0.99588204 
   97100    228.26935    347.37485    125568.14   -39768.333    2840.1047   -42608.437    355.45771    0.9946272 
   97200    228.62769    173.19376     125574.8   -39785.103    2844.5631   -42629.666    355.58782   0.99457444 
   97300      227.777    271.08958     125717.4   -39780.036    2833.9789   -42614.015    356.12407   0.99344631 
   97400    230.56337    309.73251    125607.96   -39792.551    2868.6466   -42661.198    356.13836   0.99431189 
   97500    228.68462    328.74842     125767.4   -39704.901    2845.2714   -42550.173    356.93737   0.99305137 
   97600    226.10497    230.84638    125523.39   -39777.008    2813.1757   -42590.184    356.30272   0.99498182 
   97700    234.81398    198.53414    125707.39   -39716.348    2921.5323   -42637.881     356.8267   0.99352548 
   97800    232.43161    481.03961    125820.91    -39694.86    2891.8911   -42586.751    357.57674   0.99262907 
   97900    233.76377      372.826    125641.38   -39664.662    2908.4657   -42573.128    358.02787   0.99404742 
   98000    230.39406    238.03054    125898.61   -39688.477    2866.5401   -42555.017    358.85658   0.99201643 
   98100    226.69235    259.00823    125703.87   -39756.481    2820.4838   -42576.965    358.61505   0.99355326 
   98200    231.58585    196.74165    125658.05   -39736.155    2881.3683   -42617.524    358.70804   0.99391559 
   98300    231.64741   -24.332372     125604.5   -39760.601    2882.1341   -42642.735    358.63276   0.99433932 
   98400    228.63493    243.01737     125466.8   -39745.502    2844.6532   -42590.155    358.78133    0.9954306 
   98500    229.81788    270.80283    125577.68   -39742.514    2859.3713   -42601.886    360.09525   0.99455168 
   98600    229.92455    338.42956    125769.71   -39780.917    2860.6986   -42641.615    361.10042   0.99303316 
   98700    223.82817    344.52786    125797.46   -39836.117     2784.848   -42620.965    361.81509   0.99281407 
   98800    224.24918    272.44578    125681.14    -39813.18    2790.0862   -42603.266      361.897   0.99373295 
   98900    228.65794    437.66744     125814.7   -39808.666    2844.9395   -42653.605    362.39383   0.99267809 
   99000    221.59716     251.9626    125666.68   -39850.469      2757.09   -42607.559    362.94317   0.99384729 
   99100    228.71149    222.60703    125545.57   -39772.077    2845.6057   -42617.682    363.68211   0.99480601 
   99200    232.27629    313.53226    125556.22   -39759.888    2889.9586   -42649.847    364.19915   0.99472168 
   99300    232.69055     333.5942    125368.89   -39696.658    2895.1128   -42591.771    364.25479   0.99620804 
   99400     232.3522    434.29115    125527.61   -39643.765    2890.9032   -42534.668    365.27521   0.99494835 
   99500    235.44234    346.16672    125595.71   -39519.737    2929.3503   -42449.087    365.85832   0.99440887 
   99600    236.84473    79.443973    125760.82    -39534.35    2946.7987   -42481.148    366.92035   0.99310335 
   99700    233.86694    192.94286    125558.93   -39552.242    2909.7494   -42461.992     366.7007   0.99470022 
   99800     232.3912     267.5234    125551.31   -39593.129    2891.3884   -42484.518    366.65896   0.99476056 
   99900    232.39192    284.12226    125595.78   -39647.443    2891.3973    -42538.84    367.03281   0.99440831 
  100000    229.48208    208.24005    125673.87   -39653.232    2855.1934   -42508.426    368.02985   0.99379042 
  100100    233.75008    301.32401    125548.04   -39584.497    2908.2954   -42492.793     368.7539    0.9947865 
  100200    231.26746    279.95048    125726.39   -39589.261    2877.4069   -42466.667    369.39489   0.99337528 
  100300    235.28019    84.800917    125885.27   -39587.631    2927.3328   -42514.964    370.92493    0.9921216 
  100400    233.04653    361.11306    125967.86   -39638.687    2899.5419   -42538.229    371.44721   0.99147111 
  100500    237.35995    224.45629    126051.62   -39555.896     2953.209   -42509.105    371.55192   0.99081224 
  100600    229.31925    92.152613    125888.89   -39639.963    2853.1675    -42493.13    371.91769   0.99209302 
  100630    234.81487    306.75807     125905.7   -39627.475    2921.5433   -42549.018    372.07419   0.99196056 
Loop time of 100.485 on 6 procs for 100000 steps with 4175 atoms

Performance: 429.914 ns/day, 0.056 hours/ns, 995.172 timesteps/s
98.8% CPU use with 6 MPI tasks x no OpenMP threads

MPI task timing breakdown:
Section |  min time  |  avg time  |  max time  |%varavg| %total
---------------------------------------------------------------
Pair    | 82.804     | 83.555     | 84.414     |   7.4 | 83.15
Neigh   | 5.3621     | 5.3772     | 5.3946     |   0.4 |  5.35
Comm    | 7.9913     | 8.8619     | 9.6282     |  23.3 |  8.82
Output  | 0.16603    | 0.1671     | 0.17215    |   0.6 |  0.17
Modify  | 1.8244     | 1.8636     | 1.8864     |   1.5 |  1.85
Other   |            | 0.6599     |            |       |  0.66

Nlocal:        695.833 ave         706 max         686 min
Histogram: 1 1 0 0 1 1 0 0 1 1
Nghost:        1495.00 ave        1523 max        1471 min
Histogram: 1 0 0 3 0 0 1 0 0 1
Neighs:        0.00000 ave           0 max           0 min
Histogram: 6 0 0 0 0 0 0 0 0 0
FullNghs:      19983.0 ave       20231 max       19703 min
Histogram: 2 0 0 0 0 1 1 0 0 2

Total # of neighbors = 119898
Ave neighs/atom = 28.718084
Neighbor list builds = 5825
Dangerous builds = 0

undump              1
unfix               2
unfix               3
unfix               4


################################################
#######         Run Simulation         #########
################################################

reset_timestep      0
log                 log.run_${NAME}
log                 log.run_liquid_density_MLmW
