LAMMPS data file via write_data, version 29 Oct 2020, timestep = 800000

4175 atoms
1 atom types

-0.13516346531998025 50.13516346532098 xlo xhi
-0.13516346531998025 50.13516346532098 ylo yhi
-0.13516346531998025 50.13516346532098 zlo zhi

Masses

1 18.015

Atoms # atomic

2222 1 0.5702951006463388 3.6132099857371793 2.9398400085316716 1 1 0
2237 1 18.595335114238285 14.352197125965356 2.0881742214132455 0 1 -1
1710 1 2.7015251302850682 2.928294683280083 4.6139031128911565 1 0 2
77 1 43.56672356287079 23.814184206834756 1.6884957872541935 0 0 0
598 1 6.9115693850241335 2.473307117353673 2.8846673275301833 0 0 0
1362 1 13.412885171651249 23.469939042303732 1.2635577122565091 1 0 0
590 1 20.096449547367133 1.8778942107337775 2.1758301277782066 0 0 0
2034 1 49.98950309324215 1.355663075455556 1.725068048559248 0 1 1
3201 1 0.22927966503313474 0.3761674283675688 9.577629804447797 1 1 0
3665 1 26.07921267217735 0.9507698706635113 1.427711554125031 0 1 0
387 1 29.292108448099786 1.3526057900129635 3.053498290316211 0 0 1
3521 1 29.44324458622937 -0.03442761973523861 13.362323011200925 -1 1 1
3365 1 15.810218417652562 22.22594487053333 2.3070332787799406 0 0 0
1897 1 47.49954391310153 1.5779105867078422 0.7179504068945681 0 -1 1
3163 1 0.6313657960798826 7.394737645348242 1.7077425204640309 0 0 1
283 1 36.78336549409478 0.25102359916641864 5.550510653172969 0 0 0
888 1 20.780190968551658 3.550309691039453 -0.022042351356175244 1 -1 0
1398 1 12.285175027040175 4.635523649071946 0.915196642194765 1 0 0
1582 1 11.058746514715397 3.3301822435107225 3.1559020004305363 0 0 1
1452 1 35.25519901035743 0.030317176495213677 1.499119764584156 -1 0 1
2828 1 14.90551870741507 2.964059799988719 2.117735778498934 1 0 1
3293 1 18.517397781829793 5.61459521385608 0.7198013754022463 0 1 1
1094 1 17.812036906917555 3.6458799025121853 2.373631409357611 1 0 0
1721 1 20.67981932384032 1.1116264512785388 9.601695984404948 0 1 1
492 1 27.914604791598048 3.0241428383906057 1.1681540539266952 -1 1 0
1269 1 30.863823908946983 7.170133979491034 2.2965396180724014 0 0 0
1496 1 33.486903609250405 4.079400156440434 0.9871160259008955 0 1 1
112 1 35.91065978689588 2.9564102790009654 2.201317085042462 -1 0 0
1944 1 40.36928409335263 4.663708579539311 2.853701616533662 0 0 0
2235 1 37.89439027264693 5.248439617108236 2.6110632747187426 -1 1 0
3620 1 44.574052704569695 6.682775538444776 1.9423644673317089 0 1 0
166 1 44.98388580641243 4.0640167224739665 2.9930163107392054 1 0 1
1124 1 47.18699135939126 4.085845168206844 1.7376431658475275 -1 1 1
666 1 27.01748403136381 0.8557578226762524 13.728507473379995 0 1 0
3937 1 2.808155344912475 7.834796031723027 3.372246225383838 0 -1 0
3551 1 5.16020990592467 6.723845031143279 1.6327433857871063 1 1 0
2058 1 47.702109402038815 0.016376264327777695 10.411902203085578 0 0 1
1633 1 10.00825858283668 8.555793661605877 0.16560445250659916 -1 -1 1
1974 1 25.662749009207364 -0.1123576041197083 8.568222909159072 0 0 1
1900 1 14.106824828211732 6.6376519442551265 0.8935541612652365 1 0 1
524 1 14.704763212175694 8.09426954561837 3.3733199247710632 0 0 0
1159 1 16.619772072123677 10.163408040614623 2.8873634366051495 -1 1 -1
3640 1 45.89315971213435 24.832790885943098 15.186696589984727 0 0 1
4100 1 19.72509232476547 8.207719330138575 1.1012544621950833 1 0 0
3744 1 46.629759152239956 0.8048316488395164 5.446709088077019 -1 1 1
3604 1 36.45308541873355 0.03352521310504342 8.357759074758437 -1 1 1
3705 1 28.92314639083802 8.05501307456083 4.698662470610532 0 0 2
2939 1 34.2589136264956 6.474926922924345 1.1472267491111727 -1 1 1
278 1 8.267463100863992 24.586093790716205 3.8234034306604276 0 0 0
603 1 36.97044826639534 7.499297222541297 1.2029511371201393 1 0 1
703 1 17.90590433069464 24.412766106688665 2.172113874149594 1 -1 0
285 1 47.218924735413296 7.842054396299456 1.5639811024739763 0 0 0
2491 1 5.214050575667329 15.015181552300374 0.507321282200787 1 1 0
3922 1 4.101904877201089 10.90367120884207 0.5203881346815679 0 1 1
2396 1 9.208655320321293 9.93099838527574 2.2965122499616544 1 1 0
3364 1 6.898442047285133 11.670639593911265 0.9483464550580207 -1 1 0
3906 1 10.90364606119191 12.224699754012738 3.139889739568401 0 1 1
3099 1 12.566662458591114 12.649168048126475 1.0593979088553223 0 1 0
301 1 2.46304060444467 1.3415842307466908 6.919146263208716 -1 0 0
3227 1 21.7441786205504 10.025251385805134 1.938809001726455 0 0 1
213 1 26.332644836177 9.782468892532231 2.2694045991886367 -1 0 0
1877 1 26.661988293821672 12.475509884973997 2.645994193396533 1 0 1
2972 1 28.7954607711181 9.087374652310004 0.5127140042845987 0 0 0
3440 1 32.34669597422986 9.451757808845567 1.3060202915800028 0 0 1
3197 1 38.58388515854432 9.645133021341035 2.036037984703457 0 0 0
2937 1 14.118365843821305 0.19364325182565584 2.2707981624736724 0 0 1
1983 1 41.331175956231064 9.502718176546765 1.9262432108527867 0 0 1
3605 1 11.958786223507076 24.559903383219687 3.201356861239846 1 1 1
3980 1 47.10587714916774 10.06770739871121 3.4221182649799626 0 0 1
3251 1 48.429409486764854 10.410019171235577 0.376356591921847 0 1 1
3017 1 1.1292293195763043 13.616907431128336 2.243921320839883 1 1 1
2547 1 3.0692116878865217 13.372224098086264 0.28190844116233127 1 1 0
2798 1 7.029455456898192 14.515174118006984 2.4340870271484323 0 1 0
2539 1 9.172415196243524 16.08041340461438 1.683404285179442 0 0 0
2412 1 10.73268781674077 15.054473642627642 3.5542506167885835 0 1 0
2027 1 14.926813076447683 14.27297309748091 1.5302485294145882 0 0 1
3823 1 16.89698933738779 11.239057247651546 0.5808654580180697 1 0 1
1663 1 16.43143478688922 14.123779735391055 3.8689615404211235 0 0 1
878 1 26.574965720605483 5.436575130445792 0.9972513510815726 -1 0 0
794 1 24.02506028311796 13.710719905777955 2.923337223440968 -1 0 1
4106 1 0.22843872434448853 16.078269554074872 0.5862557405378473 1 0 1
880 1 27.4911172605665 14.620067141514468 1.019094186806076 -1 0 1
339 1 30.22505581791827 14.22430312096704 0.8059544455777156 0 0 0
1192 1 34.606245786247 11.716948149440158 0.6455861029983072 0 0 1
2967 1 34.6352455103283 14.307644652451566 1.9528607661353496 0 0 0
1927 1 39.20315479911437 13.768117875508077 0.6454803259061721 0 0 1
1702 1 41.676901177208265 13.64770868719266 1.985309546553303 -1 0 2
1791 1 10.675224159093453 8.355341669381724 16.016721516018155 0 0 0
2155 1 44.23179831461887 13.213466753812646 0.8518935053719727 0 0 0
1295 1 46.460249101520816 14.62347716650848 1.332849093874437 0 1 0
2485 1 48.62521616225895 12.969395577853678 1.0525093406500072 -1 0 0
1490 1 5.545009370393259 18.310106820782913 3.2422622221120623 1 0 1
403 1 8.380661809231041 18.66212769624439 2.296509006221161 1 0 0
1426 1 13.025181029924976 15.94602742191936 2.941335050389315 1 0 0
729 1 12.356045002854286 17.8009141638188 0.562752630753201 1 0 0
3430 1 15.921658745100533 18.07825726964131 0.045465858854026764 0 0 0
2111 1 19.792548702227958 16.741895838126265 2.19203220548585 0 1 -1
4085 1 24.387058886616614 18.069998299802798 3.2496157088297024 0 0 1
2154 1 22.53593044490864 16.978827923839848 1.4458522793114506 1 0 0
3471 1 26.290097113326528 15.927020757675372 3.3924442386231535 0 0 1
760 1 34.570908543956875 16.791916366747554 0.6548029769362268 -2 0 0
1158 1 37.52082816268245 14.604171307910773 2.5228336260455886 -1 0 1
158 1 40.96031432542249 17.85558981339864 2.046767371913019 1 0 0
2241 1 18.866880850281596 1.108791347933311 13.084856107104558 1 1 0
721 1 43.346030506771555 18.10573932229124 0.576956050846143 0 0 0
2546 1 47.182827039683204 17.206907268755522 2.777133832250933 -1 2 0
600 1 13.046697286186394 0.22746971005180006 7.627254471458828 1 0 -1
3111 1 1.8753370745558882 21.420411452239282 2.9894992693758153 0 0 1
3765 1 2.506905559418401 18.85781617843638 2.3936894945912894 1 0 1
909 1 25.500769749862428 0.18768477474611112 15.825105200521687 -1 0 2
2856 1 4.732260673564003 20.74932909575349 1.005007092350531 0 0 1
3821 1 4.321519886803054 23.76407332988448 -0.03443622148059394 0 0 1
953 1 11.125199576630937 19.713607596404536 1.812860481186113 0 0 0
254 1 19.315433081013524 20.368099270701954 0.48700505155046125 0 0 1
4162 1 17.078809999920736 19.694561922018945 2.034715198979826 -1 0 1
966 1 21.55322215940754 19.932877805320537 1.8257514079596822 0 0 0
2556 1 3.972412746596178 4.7813952316977995 16.486441142978467 0 1 -1
1229 1 28.164131554864984 18.648905749685593 1.742437124483362 0 0 1
651 1 26.085385808440716 20.300790859751306 2.352768507036889 -1 -1 1
632 1 30.95477598355379 19.214871809805743 1.4045976804238893 -1 0 1
2917 1 29.16636380046168 22.309194432534017 2.5500060876297628 1 1 0
984 1 32.63721752646566 20.61141880918962 3.4570337248989675 0 0 1
2876 1 36.101566675962644 18.95327628025713 1.4597993715546294 0 1 1
4037 1 39.5057225614395 21.253133836505263 1.5271608031173907 1 0 1
2874 1 45.18176530166407 21.75758230390664 2.546869512282026 0 1 1
2746 1 2.0014856219223436 22.534785728745636 0.3627180159414885 1 1 0
826 1 7.337137269974075 19.86453436853462 0.0811250620223874 0 0 1
940 1 38.46474048223304 19.19584854334376 0.18853239491783058 -1 1 0
863 1 38.584809852112485 24.947549849090965 3.7024646146892857 0 -1 1
686 1 15.647899653082101 10.340849007224756 16.060196707956273 0 0 -1
3550 1 0.9063979357638408 24.202860004641813 15.853030771182803 1 0 0
2554 1 6.192909837171379 6.035496874497355 15.301257833467494 1 0 -1
3973 1 11.491870698864746 24.528814379714326 16.13052967639342 0 -1 1
3453 1 23.178619816869865 21.962516648053118 1.6460749369986272 -1 0 0
527 1 50.05563932095538 0.6588209528981402 6.79413487252904 -1 0 1
4157 1 10.490715996970275 15.579909845105794 16.31030519019902 0 0 1
1821 1 31.994053089412336 23.074256385724585 2.330551692601034 0 0 1
3090 1 37.421850220860705 22.999001464705145 2.1458824810615704 -1 0 0
804 1 31.263028456742074 22.581874162600982 15.91147377965131 1 0 0
1956 1 11.61295600706891 21.78761703500192 -0.06229381443624443 0 0 1
2755 1 41.715516495608114 22.505916500398648 0.048944045387114776 -1 1 0
1680 1 28.626939174408715 24.977317471937514 8.867044705931118 0 1 1
3833 1 4.6644342852054494 0.8673268747105327 3.756648560713392 1 1 0
4018 1 8.545467386627633 1.9347329896505694 5.394573828341948 1 0 1
398 1 47.871151046044304 15.946859266830685 16.056052788233327 -1 0 -1
3540 1 9.620643332253584 1.0871691816071996 1.4928828370776275 1 1 1
3862 1 29.94173464115696 24.09893803920685 13.88406617791735 0 0 0
1802 1 16.676492173725467 1.0383480463483523 4.178655488162192 0 -1 1
448 1 21.71723096914272 1.0581812225108833 12.202755678222875 -1 1 -1
2002 1 22.65627006083959 2.143802020081569 4.140082951581899 0 0 1
3499 1 28.164515406797417 0.6809034741101255 5.861609483428908 0 1 1
2137 1 30.89754191445195 3.485935950431691 4.358147946788127 0 1 0
1872 1 32.88465779451931 1.8403739948870652 5.110105706084289 0 -1 1
2269 1 6.986292734850318 4.888922473426387 -0.0007978320099192027 0 0 -1
2394 1 35.55163753348951 2.537887206897087 4.984667048682298 0 1 0
2209 1 40.70463240061869 2.7422819894314214 4.798249060727353 -1 1 1
2958 1 35.51233999670009 10.141670154254701 16.494408440406016 0 1 0
2088 1 43.43361323924414 2.6499001736337875 5.0344526395667755 0 0 2
2833 1 46.72047449160317 3.5674572091892047 5.38958451485769 0 1 0
235 1 49.548480753144545 2.90111745038165 5.242056513360097 -1 1 0
3668 1 2.348663886596962 7.099925124012357 5.862103020832949 1 1 0
274 1 0.28659128749425705 5.234188827264193 6.339201422396358 0 0 1
1434 1 4.055218553879126 4.894295010814114 5.43561586167311 0 0 1
3993 1 9.02517124943615 5.240308961538422 3.2960241496271276 1 0 1
1270 1 13.634486043879468 3.879445176184591 4.462223708442784 1 0 0
4046 1 15.480674979349693 6.188040695415833 4.944722477789693 0 1 0
3366 1 18.05543553966385 5.580333193439303 4.307634485344339 0 1 0
787 1 23.352435054664724 4.931804014445276 5.2539300643414615 0 1 0
879 1 26.29927693096278 4.450157960892213 6.00420372451754 0 0 0
2975 1 26.789494019355654 6.393503043414718 3.8693236384625793 0 1 0
3193 1 28.949203508861018 3.491979616439896 6.503743010944351 0 0 1
3859 1 31.49998595119361 6.129700075569612 4.728493225758878 -1 0 1
889 1 37.227005238597044 4.831012347358372 5.19398338566757 0 0 0
3944 1 48.71253055296914 6.133953653276063 3.001924521283767 1 1 0
1105 1 48.16295072486946 6.409606473902321 5.838352448988387 0 0 0
1235 1 6.264906376813351 5.1500493901267115 3.5417556987073535 0 0 1
3306 1 9.546459087508042 7.774741749303969 3.853175349238644 0 -1 0
2454 1 12.039303769594952 8.259735235974917 4.971898849282535 0 1 0
2092 1 18.332891863835872 8.979088081046553 6.726522752192705 0 0 1
2612 1 18.507938919192146 8.062723515114385 3.660752337371356 0 0 1
179 1 21.001627057720093 8.552988071665371 4.901971839462226 0 0 0
3941 1 22.706336247250064 7.001808948299831 3.1553932061778998 0 1 1
2108 1 25.037435422742234 8.268004549297824 4.1592165372412255 1 0 0
1447 1 34.05156336562925 7.344778574567646 3.7939585640620765 0 0 0
2160 1 35.73120574703151 6.919892252603027 5.881866273368415 -1 0 1
3369 1 42.029984414002456 7.1034186097203085 3.1844969187222563 0 1 1
109 1 42.28902614354669 7.727336052073003 5.801427312392192 0 0 1
3027 1 47.30435894439414 9.104441289913089 6.103767880170669 0 1 0
2013 1 1.4304485430437213 11.451494687314435 5.219919038508328 0 -1 1
462 1 3.0606033090088474 13.419479142434461 6.327157449645697 1 0 0
2318 1 3.251568397179231 10.452008006559193 3.441556317828405 1 1 0
1493 1 5.580504547529934 10.33185555683903 4.631315095206431 1 -1 0
820 1 7.93045605962905 12.320496868919127 4.024305924425723 0 0 0
572 1 12.163799728011456 10.88765603919113 5.145517414586265 0 0 0
913 1 14.258947486131166 11.954575316778712 6.284224105778259 0 0 1
2044 1 16.674109670495323 11.731253664894629 5.088402392764143 0 0 0
104 1 18.784598452020234 12.140514800051701 6.7027946969257455 1 0 -1
672 1 22.42156879641085 11.569026937079574 4.1012196933807505 0 0 0
2729 1 26.952232821152975 11.918539325077308 5.508424278950965 0 0 -1
3344 1 26.983939658298073 9.27073690154463 6.137164785373753 0 1 0
3400 1 30.016605890474434 10.066749989142465 3.0771182309611325 0 1 1
1551 1 32.327587361323054 11.441772573666256 4.805837936425513 1 0 1
3855 1 34.37143420281245 10.209208859263958 3.653699282296022 -2 0 1
4169 1 37.022073799981584 10.560229511347316 4.01832884559599 -1 0 1
1619 1 41.835958465332936 11.791868252749072 6.521084053205849 -1 0 1
1698 1 42.315219910586094 11.52814546070492 3.698180375824183 -2 0 1
1964 1 45.02785156687284 11.950894399035166 3.2616688241810987 0 1 1
3939 1 49.315601015520954 11.539519980532276 3.645344785771061 0 0 1
1372 1 2.728275915767818 15.311824657997676 4.184881694109111 0 0 1
3506 1 5.380697953031238 15.858176618641687 4.278373685180024 0 1 1
1380 1 7.010162810729485 16.003001896746824 6.4868200897305766 1 0 1
1850 1 9.741146057934046 16.094097953969836 5.736523784402754 -1 0 1
2847 1 19.997702599542308 12.944110887667097 4.488311388915029 1 1 1
2527 1 20.676829321507537 15.602161617304748 5.00963314676247 0 0 0
1673 1 23.864823969011926 15.605763870903438 5.273546604234376 0 0 1
3406 1 29.490496795237707 12.942573302031011 4.505465655533567 0 1 2
194 1 31.084418287810855 15.145292020842001 3.5092081268900177 -1 0 0
3125 1 33.38331112746286 14.01407814486714 4.544365890520895 0 1 1
511 1 37.36556776262661 13.225891682847461 4.906810302840452 1 0 0
3327 1 39.9613457999243 14.202791898874953 5.77020177480259 -1 2 -1
2144 1 45.7179412222651 13.77396129528814 5.195725862186389 -1 1 1
2752 1 48.59416618094403 13.383070218052426 5.571599860402569 0 0 0
1 1 0.840414670017757 17.05063750512078 5.322762244402532 1 0 0
336 1 4.276976733625105 20.097124619035664 5.169408372627944 0 0 0
1133 1 10.277466872473111 18.662020228779692 6.503095910018512 0 -1 0
3738 1 13.942467657635024 17.059245751975954 5.547573437216773 0 1 0
945 1 16.74474990685789 16.20337099118213 5.737558027078913 2 1 0
997 1 18.17408210030863 18.151042828159966 3.986475445049689 0 -1 0
1893 1 23.39068773162704 18.73099288273013 5.815008201899722 0 -1 1
3829 1 28.121935060184224 17.771442235389298 4.631260183044259 0 0 1
420 1 31.1568316177282 17.763625639415096 4.252160510445132 0 -1 0
3050 1 33.40646913868913 18.507216841751067 6.106964050593846 0 1 0
1254 1 37.35665552643063 17.37605081525519 3.357626933194117 -1 0 0
1468 1 35.979280873335455 17.303888800976 5.954352987765026 -1 0 1
3564 1 44.155656136711315 15.959765586851265 5.377284537311239 -1 0 1
1807 1 41.45382204629999 15.692517936650955 3.8380902184383587 0 1 0
154 1 45.59616258452927 18.23217878753108 4.710878027947869 -1 1 -1
1764 1 49.846436401420036 17.610703807985445 2.9829493659219573 0 -1 1
3065 1 49.5036976269905 20.864917590355137 3.6134849916967133 0 0 1
2282 1 5.0014236132454535 22.28335332620565 3.699152707756992 0 0 1
3839 1 7.591693856772526 21.859970728586507 4.993134892230229 0 1 1
1294 1 9.73929523245679 20.270551243894523 4.379629742050587 1 -1 0
2474 1 16.189745379442886 21.932265401410266 5.222791090294692 0 1 0
3819 1 18.232042025144498 20.25518016097276 6.207374644681449 1 -1 0
2966 1 21.016402809870986 19.66370732461248 4.4124287107076405 0 0 1
499 1 26.168104236219662 19.11208612162567 6.612982143969457 0 0 0
3995 1 26.33274234154032 21.396044156751476 4.778103826459953 0 0 1
1615 1 30.31361501039012 19.871946943406417 6.170309545853275 -1 -1 0
3478 1 33.52668658936308 21.09426137045384 7.233374402556829 0 0 0
1280 1 35.198301849960075 21.398971016823058 2.8084576822711536 0 0 0
230 1 39.532569061673996 19.663323078666657 3.845147118072592 0 0 0
2104 1 42.224304682547285 21.4034713331687 5.488898624866175 -1 -1 1
731 1 43.52195604609332 19.381481290930928 3.5105011026904376 -1 0 1
2960 1 47.66078106229884 22.836503137966677 3.3337481220008787 -2 0 0
1011 1 2.483063366104322 22.626709443938473 6.088126028221981 1 0 0
2039 1 3.7769301747474966 24.696695073106884 4.811854080928069 0 0 1
955 1 3.588908616638098 23.646976053984464 8.400483394650486 1 0 0
1304 1 49.10255777893693 7.0323940178353475 16.376325629237193 -1 0 1
1256 1 6.686763436344035 23.741279309270134 1.436432590171239 1 0 1
3943 1 11.170935302715472 22.6353863395579 5.0544314526903875 0 1 1
1139 1 16.70992077497658 24.722727312099867 8.663465946821713 0 -1 0
1363 1 24.14175664652681 22.762185843700934 4.291071579771653 -1 0 2
2964 1 23.134597661089586 21.381541743739337 6.5209495754094995 0 1 0
451 1 8.92156280372388 23.752830424840432 15.943587077932094 0 -1 0
3817 1 29.186101925524834 22.453664938144314 5.362258392839802 -1 0 1
4074 1 33.208998891308724 23.77236843043583 5.0136362049862795 -1 1 1
2419 1 35.74976964122855 21.755269952443623 5.625600517668653 0 0 0
1127 1 40.07719587542475 23.241187454051932 6.181951676375563 0 0 1
4171 1 38.138458381738886 9.02615265446076 16.40466288901475 1 0 1
2309 1 43.29515475571307 24.009064365854552 4.679371073234657 -1 0 0
4139 1 47.113048728779276 23.041458935207416 6.089490220008766 0 0 0
203 1 1.4353922049866077 2.947987808180823 10.954449560095092 0 0 0
626 1 3.62203045821216 1.9500365932478019 9.382897845709108 0 0 0
2641 1 11.815165996153228 0.04519896369871851 14.156706052373805 2 1 -1
1198 1 11.063482846560483 0.9597788702261116 6.054666033296993 1 -1 1
1515 1 14.961377842699447 2.0934404121644827 6.309690769360413 0 -1 0
775 1 19.003068327644428 1.7640841569058625 6.389463283508198 1 0 0
3716 1 21.491292958010703 0.6749551722428888 5.9917464714582085 1 1 0
366 1 25.53836478734357 1.715734811961083 6.203645868905573 1 0 -1
175 1 1.1036491952374234 5.025626973762627 0.593987002328795 1 -1 0
2971 1 29.819533621953454 2.3505928486742036 9.143250222759276 0 0 0
1778 1 34.41674336920917 1.3590638149949514 9.959667804059839 0 0 0
1817 1 38.63812378290319 0.6466290639929986 10.219232359061774 0 0 1
3576 1 43.73768943354253 2.2162079697480186 9.555888441148998 0 0 1
202 1 46.31464909986724 2.555822416629753 10.133045109012636 0 0 0
3867 1 4.871755515902533 3.8668004930876716 8.00768597096817 0 1 1
3333 1 7.461526179852621 3.1963991394432085 7.466277108105579 1 1 0
2210 1 9.241173291634347 5.027916019065407 7.601682874352099 1 0 0
901 1 11.498839356496813 3.8392116845274398 6.49840622545117 1 0 0
500 1 14.868650780536981 6.442471216767657 7.619760906233835 1 -1 0
3037 1 13.360336998538822 4.104422723430861 8.787991727713214 0 1 0
2242 1 19.22312654931911 4.6521583225597825 6.498820024540816 1 1 0
3684 1 21.398615931918556 6.200082034510484 6.860912863742578 -1 2 0
328 1 23.38048031289714 4.457309451234687 8.210106741374812 0 0 1
685 1 26.18612501011985 5.652375099223047 8.779051962889893 0 0 0
604 1 29.258931584147295 6.422210680371785 6.946932706901582 0 -1 0
3340 1 32.578951817050395 2.3278671360053744 8.00259702421303 1 0 0
1577 1 33.85969356649238 4.823753158518635 7.324987816273515 0 0 1
1859 1 36.140448042262236 3.7781646496776298 8.616748657206816 -1 1 1
892 1 36.06476903752345 6.716910668441253 9.080737694896081 1 0 1
1216 1 39.56079164995653 4.40112566835665 6.7606756717113115 0 0 0
938 1 43.81287137738549 4.076470576527612 7.560290311263938 -1 1 0
3552 1 41.85014342266753 5.879190714716158 7.872400688803637 -1 0 1
2797 1 46.17175579507801 5.580070215322037 7.55536569788476 0 1 1
1879 1 47.47974358990017 4.824621080313859 9.84295706812434 -1 -1 1
3266 1 -0.07817556670665338 4.887713589652153 9.114157591693006 1 1 0
1768 1 2.035874811522084 9.161548541684889 8.796115366365942 0 1 2
101 1 5.6658912969273345 7.833840265527305 5.589656678027521 0 1 0
3826 1 4.204559515747367 7.72209548492002 8.094685365323079 2 0 0
2302 1 5.279325803662271 10.023723800332887 9.300437321084237 0 1 0
3771 1 8.229195284852384 7.225708851012559 6.216531081045779 0 1 0
2478 1 11.986381270926017 9.070111078532731 9.263578552215526 0 1 0
1661 1 12.168253605122905 6.989468603017499 7.333838102851928 0 1 1
706 1 15.8821847158241 8.383477666495864 9.064983721310131 0 1 0
1368 1 20.12260852447121 8.08431934200481 8.688818621925806 0 0 -1
3742 1 18.29198878221565 6.960151409543992 11.161913775064392 0 0 0
3234 1 24.32590130011073 7.742220397443027 7.247327232475994 0 1 0
3228 1 25.115883978039882 9.405756336640787 9.407287085852387 -1 1 0
2574 1 32.02212552133685 7.136399024122333 7.607504616205573 0 1 0
1565 1 27.525406037492715 8.134969106037367 8.763515372983273 0 -1 1
2271 1 40.14929834352759 9.267445045875903 6.961596823489997 0 1 -1
758 1 40.46752999987213 9.197693234738182 9.621600393863437 1 0 0
340 1 44.9579816008965 8.089769307185362 7.616639260982987 -1 0 1
3893 1 44.729729053346006 8.617237922079303 10.113197873165703 -1 0 -1
358 1 50.06562894133104 10.017125828204293 7.119999209270221 -1 0 0
3600 1 5.0324181762401805 11.61873676654709 6.932211893651009 0 0 0
776 1 9.812820477217018 11.943388960402167 6.453493114904063 1 0 0
1087 1 9.602453960828665 9.279154471705867 7.450447330348176 0 0 1
1999 1 14.139396230157342 10.650688271596701 8.672198297646126 0 1 2
2165 1 21.29164335481265 11.200439637929888 8.277639028464966 1 1 0
697 1 23.134270262353617 10.252611696136398 6.440467994187927 0 0 -1
1354 1 32.701229353083804 9.766036819206116 7.006140557145614 1 0 0
1769 1 37.27382288797918 9.161103770919615 6.242655678005791 0 0 1
2073 1 35.42416241021776 10.439342109797515 7.991453610880393 0 -1 1
1783 1 44.40847058216117 12.83232308046097 7.301598246994558 -1 0 1
3253 1 45.88093307778283 10.86740086987192 8.853339517769507 -1 1 0
864 1 48.56815802630361 11.796189581757268 8.177782784588963 0 1 0
1806 1 49.938395748824746 13.802239002344251 9.67480093311363 -1 0 1
1867 1 2.2015318785584057 14.335595425894343 8.667960855640413 0 0 0
2441 1 7.240877245188546 13.277439454687652 7.0687655464271995 -1 2 -1
2924 1 11.017097725350727 14.261293529065494 7.486541950522545 1 0 1
241 1 13.633779289440799 14.547767418772738 6.730769395908523 1 -1 0
3091 1 17.837957991876046 13.966986817581438 8.589781163969452 0 1 0
343 1 15.078566885321964 14.638567724430786 9.042323187276688 0 0 0
2055 1 19.320710610129836 16.065006883608742 7.630574715403835 0 0 1
3185 1 25.394666321099482 14.908743897967506 7.540555798832553 0 0 0
433 1 22.454705115485957 13.56857593486596 9.57811403475696 0 -1 0
2146 1 27.724456457456593 12.043263450406773 8.962659069746154 0 0 0
2997 1 29.386800251301125 13.540159760044192 7.179263971218623 0 1 1
1841 1 32.02153984362795 14.599849371662245 7.286379859670611 -1 0 0
1513 1 35.205548607565376 13.228034721831538 8.53910752025214 -1 0 0
1933 1 35.410043381741104 14.680641304790731 6.108710897409076 -1 0 1
2929 1 39.24902796875416 15.220658185170151 10.044768232336605 0 1 1
3032 1 41.59273608574584 14.046251631289458 10.232561958207638 0 1 0
1102 1 49.656414230017674 15.451258651957977 7.145760014620296 -1 0 0
1537 1 1.7756657956677289 19.28097907615005 6.6279629948678345 0 0 0
1483 1 2.0768107473699273 18.76331502099882 9.279163729085512 0 0 1
916 1 3.511607424256636 16.556369240080635 9.868924844981818 0 1 0
2220 1 5.875621015052356 17.57207840157217 8.58648367285563 0 1 0
2723 1 7.5773507384668575 18.239797163156354 10.626623183210697 0 1 0
367 1 12.884726439023444 19.256378872058757 7.294752853452588 0 1 0
3008 1 13.218961882734078 18.610647145793838 9.800352835981235 0 0 0
1707 1 19.316702072400503 19.197829520959345 10.383713265665635 0 0 0
1299 1 17.877497641222355 18.308094489969836 8.29044431644304 0 0 -1
821 1 21.18550867933107 16.0876777789566 9.452402681741853 0 0 0
2053 1 23.42106716057484 17.705578568279094 8.675594906230504 -1 -1 0
653 1 28.04323705068959 16.00887393060718 7.1421186326521395 -1 -1 0
1179 1 26.033358112641427 17.266895041013985 9.471760063416452 0 0 1
1284 1 29.80815753440749 16.949084143897764 9.189204824088534 -1 0 0
1651 1 32.744310883651025 17.091618277789557 8.366380937716022 0 0 1
4036 1 35.24572748282053 16.265696257145056 9.127048196492854 0 0 0
1003 1 36.55088165316137 19.07329125831252 9.773377039878909 0 0 0
1414 1 40.057544384342194 16.59687436046874 7.553287471026651 -1 -1 1
3376 1 37.975980280089516 18.529779703019514 7.430639916090167 -1 1 1
2542 1 42.080333478113175 18.078099664384748 9.039935058399303 0 0 0
2651 1 43.75458461791621 15.74626201076784 8.090780306728407 0 0 0
970 1 47.22682190777364 19.389311303386446 6.60889645697294 -1 0 1
1458 1 48.12554293075202 17.507726753576957 8.381424361557755 0 -1 0
1510 1 49.63513809990607 20.520802643048988 6.623994126990571 -1 0 1
472 1 5.406980924166689 19.92133818580461 7.679214050904101 1 0 0
3466 1 9.280966588825557 20.072736342338807 8.673991192245573 0 0 1
4023 1 13.591921616351502 21.780153801249607 6.1829291215984945 0 0 1
3002 1 13.646433590389014 20.691285732867456 11.558441766755607 1 1 0
2340 1 21.727128947956214 18.21672293278184 11.546179418959142 0 0 0
1588 1 20.584612427653283 22.230618069062405 5.982412694918337 1 0 1
1779 1 22.426814416942904 20.523478871277234 9.174416092148633 0 0 1
50 1 28.917257836038548 23.220547177222674 11.054427555836902 0 0 0
1058 1 28.60384792799637 19.543878513419784 8.433554836860855 -1 -1 1
4029 1 34.278127177170404 20.584185764926218 9.740583848278407 0 0 1
276 1 38.32205865748482 20.9130783379605 5.986825363801473 -1 -1 -1
4066 1 42.86918186667381 20.7180840636169 8.170066259154416 0 0 1
1136 1 45.738280618117216 21.3959437565687 7.818714840877074 0 0 -1
3779 1 49.769508759189364 22.058502710044444 9.165709471464938 1 0 1
1618 1 46.197694786185906 18.221545490399862 0.566238369335424 0 0 1
3195 1 26.301116016475184 22.137041456680745 14.797481617509309 -1 0 1
3861 1 7.374295739172578 21.701593209863898 7.6226719989381575 1 0 0
1902 1 6.345889776956751 24.31592901474914 8.410381415471969 -1 0 1
2716 1 9.53386091218083 24.085027544305014 6.864692132149173 0 1 0
10 1 13.502561329915103 23.734707523794 8.302912665632205 1 -1 0
1113 1 30.888238881931056 4.180547423860503 1.657502898757442 1 0 0
567 1 38.52197575426766 16.476563628695974 16.289639430653615 0 0 0
1998 1 13.142053649987835 12.120292782907388 16.3896666438917 -1 -1 0
825 1 24.781204008610526 22.962728022846765 8.279292861850818 1 0 0
525 1 43.73350634100092 12.374001089023782 15.74953773455541 -1 0 0
2424 1 31.3824423315192 22.9764429118834 7.299739354994405 0 2 0
3387 1 27.11847593584425 23.845031129423628 6.901289727178475 0 -1 0
2895 1 28.744629406271887 21.107943834741047 15.008932558676763 -1 0 0
11 1 33.872862332478576 22.739671154717747 11.100158559771357 0 0 0
3614 1 38.628055362940614 22.33633742026936 8.901555114646335 0 0 1
2010 1 22.089277157438246 24.935695814371094 5.28563426945851 1 0 1
2248 1 41.34108366569555 22.408337554800696 9.471110782475158 1 0 0
2938 1 42.382484927444665 24.843173397816223 10.378835258322622 0 0 0
3687 1 44.90272605048739 24.155920671147165 8.858146880336097 0 0 0
3609 1 50.02063716043058 23.67481933398123 6.459549399655153 1 1 0
2130 1 2.2187346621745885 5.388681596878933 11.60578808038697 2 0 0
1210 1 46.32647908949697 23.77967056285511 0.07121796215642082 0 0 0
3436 1 14.629134674415063 24.163588102210245 12.540814094867402 1 1 0
2305 1 10.262584524021687 2.22539663627768 10.490424419876774 1 1 0
315 1 12.969885964176305 1.4066563160522045 10.195869931402942 0 0 0
1036 1 15.837956408583032 3.210243783856641 8.66360177062612 -1 0 0
2082 1 17.69370462557663 0.3500075038076031 8.834989255530886 1 0 0
3591 1 16.030489946165943 1.5415673543076533 10.815722777880591 1 1 0
1650 1 38.369151204111716 4.7419286864889 15.638061974900937 0 0 1
228 1 23.160869790629086 1.7181228397984483 8.264065804230631 0 0 0
3681 1 23.505325003243883 2.7943155317833734 11.079704044216884 -1 1 0
250 1 26.120355758965044 3.042334460038293 12.05854737030814 0 0 0
2245 1 30.98913947287712 1.8685481363531653 11.704750400210322 0 0 0
174 1 43.81153457433939 18.281952130603212 15.859038790548743 -1 -1 0
1381 1 36.50157308902851 1.1141871950791313 14.812247616444944 -1 0 0
664 1 37.38583082778874 2.1576728291973 12.499341271153542 0 -1 0
1191 1 42.74064927973872 1.5642460222785464 12.300616850930712 0 0 1
2871 1 45.46370648150858 2.9149202679281703 12.707493406016123 -1 0 1
1484 1 47.88825477890961 4.047335699835575 14.142233703422235 0 0 1
3211 1 0.42793222024863486 7.442443660043165 10.483464103449881 0 1 0