
# Create simulation box of size 50 x 50 x 50 Angstrom
#
lattice	            sc 1
Lattice spacing in x,y,z = 1.0000000 1.0000000 1.0000000
region 	            all block 0 50 0 50 0 50 units box
create_box          1 all
Created orthogonal box = (0.0000000 0.0000000 0.0000000) to (50.000000 50.000000 50.000000)
  1 by 2 by 3 MPI processor grid

# fill box with 4175 randomly distributed atoms
#
create_atoms        1 random 4175 63782 all
Created 4175 atoms
  create_atoms CPU = 0.000 seconds
mass                1 18.015

# Define potential
#
pair_style          sw
pair_coeff          * * ML_mW.sw mW
Reading sw potential file ML_mW.sw with DATE: 2019-02-27

# Run minimization
#
minimize            1.0e-8 1.0e-8 10000 1000
WARNING: Using 'neigh_modify every 1 delay 0 check yes' setting during minimization (../min.cpp:187)
Neighbor list info ...
  update every 1 steps, delay 0 steps, check yes
  max neighbors/atom: 2000, page size: 100000
  master list distance cutoff = 6.0032907
  ghost atom cutoff = 6.0032907
  binsize = 3.0016454, bins = 17 17 17
  1 neighbor lists, perpetual/occasional/extra = 1 0 0
  (1) pair sw, perpetual
      attributes: full, newton on
      pair build: full/bin/atomonly
      stencil: full/bin/3d
      bin: standard
Per MPI rank memory allocation (min/avg/max) = 4.255 | 4.258 | 4.261 Mbytes
Step Temp E_pair E_mol TotEng Press 
       0            0    7792709.3            0    7792709.3    5898794.3 
     630            0   -45180.336            0   -45180.336   -154.07449 
Loop time of 1.1152 on 6 procs for 630 steps with 4175 atoms

98.3% CPU use with 6 MPI tasks x no OpenMP threads

Minimization stats:
  Stopping criterion = max force evaluations
  Energy initial, next-to-last, final = 
      7792709.32924461  -45180.0188663597   -45180.336116598
  Force two-norm initial, final = 2.0191930e+08 4.9721331
  Force max component initial, final = 1.0948746e+08 0.73126211
  Final line search alpha, max atom move = 0.053306038 0.038980685
  Iterations, force evaluations = 630 1000

MPI task timing breakdown:
Section |  min time  |  avg time  |  max time  |%varavg| %total
---------------------------------------------------------------
Pair    | 0.87067    | 0.97687    | 1.0324     |   5.8 | 87.60
Neigh   | 0.023762   | 0.024326   | 0.024673   |   0.2 |  2.18
Comm    | 0.039068   | 0.094489   | 0.20132    |  18.8 |  8.47
Output  | 0          | 0          | 0          |   0.0 |  0.00
Modify  | 0          | 0          | 0          |   0.0 |  0.00
Other   |            | 0.01952    |            |       |  1.75

Nlocal:        695.833 ave         704 max         685 min
Histogram: 1 1 0 0 1 0 0 1 0 2
Nghost:        1494.17 ave        1515 max        1468 min
Histogram: 1 1 0 0 0 0 1 1 1 1
Neighs:        0.00000 ave           0 max           0 min
Histogram: 6 0 0 0 0 0 0 0 0 0
FullNghs:      19997.0 ave       20462 max       19320 min
Histogram: 1 1 0 0 0 0 0 2 0 2

Total # of neighbors = 119982
Ave neighs/atom = 28.738204
Neighbor list builds = 26
Dangerous builds = 0

# Add velocity/set timestep
#
velocity            all create ${TEMP} 120598 rot yes dist gaussian
velocity            all create 225 120598 rot yes dist gaussian
timestep            5.0

# Define output
#
compute	            1 all msd
thermo	            100
thermo_style        custom step temp press vol etotal ke pe c_1[4] density

# Neighbor lists
#
neigh_modify        delay 0 every 1 check yes

# Set fixes
#
fix                 1 all momentum 10 linear 1 1 1 rescale
fix                 2 all nve
fix                 3 all temp/csvr ${TEMP} ${TEMP} 500.0 928347
fix                 3 all temp/csvr 225 ${TEMP} 500.0 928347
fix                 3 all temp/csvr 225 225 500.0 928347
fix                 4 all press/berendsen iso ${PRES} ${PRES} 1000.0 modulus 20000
fix                 4 all press/berendsen iso 200 ${PRES} 1000.0 modulus 20000
fix                 4 all press/berendsen iso 200 200 1000.0 modulus 20000

# Run 0.5 ns equilibration
#
dump                1 all custom 1000 eq.${NAME}.dump id type x y z vx vy vz
dump                1 all custom 1000 eq.liquid_density_MLmW.dump id type x y z vx vy vz
run                 100000
Per MPI rank memory allocation (min/avg/max) = 3.506 | 3.508 | 3.511 Mbytes
Step Temp Press Volume TotEng KinEng PotEng c_1[4] Density 
     630          225    869.67124       125000   -42380.908    2799.4278   -45180.336 2.7295415e-33   0.99914793 
     700    143.15612    114.42507    125309.84   -41521.193    1781.1343   -43302.327   0.26631768   0.99667742 
     800    177.45011   -89.892546    125151.69   -40740.421    2207.8167   -42948.238   0.62764327   0.99793689 
     900    194.00323    291.22226    125025.41   -40311.664     2413.769   -42725.433    1.0893555   0.99894485 
    1000    210.98174    96.104881    125300.41   -40033.182    2625.0139   -42658.195    1.5216025   0.99675243 
    1100    218.84616    330.86025    125275.44   -39843.717    2722.8622   -42566.579    1.9651497   0.99695116 
    1200    215.01805    312.14469    125345.55   -39886.431    2675.2333   -42561.664    2.4059749   0.99639349 
    1300    216.02181    100.44392    125433.79   -39861.421     2687.722   -42549.143    2.8537165   0.99569259 
    1400    218.13418    461.33345    125636.38   -39858.816    2714.0039    -42572.82    3.3350205   0.99408696 
    1500    218.60933    360.28696    125439.43   -39809.633    2719.9157   -42529.548    3.6930289   0.99564779 
    1600    223.46279    68.674997     125413.6   -39708.104    2780.3019   -42488.406    4.1415232   0.99585282 
    1700    224.74033    202.54776    125114.45   -39742.722     2796.197   -42538.919    4.4015402   0.99823397 
    1800    221.86687    206.62595    125036.62    -39826.17    2760.4457   -42586.616    4.7242201   0.99885529 
    1900    221.07583    165.16955    125057.28   -39808.522    2750.6036   -42559.126    5.0068862    0.9986903 
    2000    227.42348    109.13783    125263.19   -39764.668    2829.5805   -42594.249    5.4696718   0.99704861 
    2100     224.9588    201.10701    125327.66    -39706.23    2798.9152   -42505.145     5.881903   0.99653576 
    2200    227.74159    75.591051    125301.07   -39733.982    2833.5384   -42567.521    6.2319629   0.99674724 
    2300    223.52727    220.48782    125370.79    -39718.56    2781.1042   -42499.664    6.5990295   0.99619289 
    2400    228.96311    268.26327    125311.15   -39733.683    2848.7364   -42582.419    6.9807122   0.99666699 
    2500    225.49402    113.94667    125476.13   -39672.516    2805.5743   -42478.091    7.3455601    0.9953566 
    2600    227.65207     127.2146    125688.64   -39614.049    2832.4245   -42446.474    7.7096156   0.99367363 
    2700    231.19538    336.04035    125674.01   -39655.618      2876.51   -42532.128    8.2023831    0.9937893 
    2800    230.34616    259.57129    125746.99   -39649.067    2865.9442   -42515.011     8.514163   0.99321261 
    2900    225.85377   -83.970817    125854.78   -39721.387    2810.0503   -42531.437    8.8751892   0.99236191 
    3000     224.4853    429.90476    125979.21   -39740.888     2793.024   -42533.912    9.2199295   0.99138178 
    3100    225.01531     121.4438    126369.15   -39704.651    2799.6183    -42504.27     9.619761   0.98832266 
    3200    224.95953    217.80213    126328.99   -39768.628    2798.9242   -42567.552    10.055077   0.98863683 
    3300    230.01926    190.60468    126488.74    -39767.84    2861.8769   -42629.716    10.467425   0.98738824 
    3400    227.17205    176.90572    126295.68   -39827.111    2826.4522   -42653.563    10.742116   0.98889754 
    3500    229.86594    339.93932    126300.01   -39865.272    2859.9694   -42725.241    11.378339    0.9888637 
    3600    222.24006     61.84604    126351.32   -39907.335    2765.0888   -42672.424    11.769909   0.98846208 
    3700    217.39201    224.70298    126231.94   -39967.512    2704.7699   -42672.282    11.942192   0.98939693 
    3800    223.17005    162.26889    126135.92   -39918.001    2776.6597    -42694.66    12.245736   0.99015007 
    3900    220.91102    273.79255    126253.48   -39941.167    2748.5531   -42689.721    12.602763   0.98922814 
    4000    221.93504    17.848098    126053.08   -39927.981    2761.2938   -42689.275    12.926226   0.99080082 
    4100    226.25504    334.76986    126075.11   -39889.224    2815.0428   -42704.267    13.355711   0.99062769 
    4200    217.98942    100.38304    126080.52   -39888.435    2712.2028   -42600.638    13.525255   0.99058514 
    4300     225.3515     299.4432    126203.87   -39871.089    2803.8011   -42674.891     13.81843   0.98961699 
    4400    223.34324    158.89091     126263.8   -39861.539    2778.8145   -42640.353    14.025099   0.98914723 
    4500    223.69372    273.48625     126282.5   -39866.919    2783.1752   -42650.094     14.30769   0.98900079 
    4600    222.93842    258.58009    126319.27   -39939.506    2773.7777   -42713.284    14.857628   0.98871293 
    4700    225.44796    253.51884    126403.06   -39877.144    2805.0012   -42682.145    15.175612   0.98805746 
    4800    222.57839    199.52767    126437.61   -39943.649    2769.2983   -42712.947    15.537707   0.98778747 
    4900    232.30002    147.85565    126550.33   -39826.314    2890.2539   -42716.567    15.709986   0.98690765 
    5000    228.79947    170.98036     126516.1   -39790.692    2846.7004   -42637.393    16.115212   0.98717466 
    5100    224.98938    90.212845    126162.09   -39854.292    2799.2956   -42653.588    16.383177   0.98994466 
    5200    226.73468    64.566117    126324.49   -39916.074    2821.0105   -42737.085    16.850813   0.98867207 
    5300    226.96663    186.05386    126214.94   -39875.287    2823.8964   -42699.184    17.000635   0.98953018 
    5400    225.82407    183.04506    126395.01   -39915.533    2809.6808   -42725.214     17.00514   0.98812046 
    5500    221.08849    306.33784    126427.08   -39915.519    2750.7611    -42666.28    17.528465   0.98786979 
    5600     224.5323    262.03174    126585.46   -39912.467    2793.6087   -42706.075    17.823722   0.98663376 
    5700    220.74572    180.33336     126615.4   -39919.837    2746.4965   -42666.334     18.06678   0.98640046 
    5800     225.6457    505.25111    126543.77   -39958.791    2807.4615   -42766.253    18.320059   0.98695882 
    5900    224.92233     216.2677    126740.54   -40009.534    2798.4613   -42807.996     18.58357   0.98542657 
    6000    222.56992    209.65657     126733.3   -40003.784     2769.193   -42772.977    18.866226   0.98548284 
    6100    227.25019    116.64875    126989.36   -39957.936    2827.4244   -42785.361    19.203975   0.98349572 
    6200    220.94038    226.27886    126823.02   -40038.686    2748.9183   -42787.604    19.385606   0.98478563 
    6300    230.57091    186.42407    127057.63   -40011.576    2868.7404   -42880.317    19.928867   0.98296726 
    6400    226.38559    315.01515    127144.92   -40001.556    2816.6672   -42818.224    20.403908   0.98229245 
    6500    228.89496    195.94505     127287.2   -39956.616    2847.8885   -42804.505    20.594665   0.98119444 
    6600    222.70846    53.762138    127373.54   -40038.582    2770.9166   -42809.498    20.925086   0.98052935 
    6700     223.1095   -8.2660055    127273.04   -40122.057    2775.9063   -42897.964    21.190994   0.98130358 
    6800    222.31712    287.26996    127242.92   -40055.294    2766.0477   -42821.341    21.488065   0.98153591 
    6900    230.33076    89.472405    127073.44   -39999.343    2865.7526   -42865.095    21.538882   0.98284495 
    7000    227.36428    140.07492    127036.49   -39996.101    2828.8439   -42824.945    21.799319   0.98313086 
    7100    225.10139    163.16717    127146.55   -40018.115    2800.6893   -42818.804    21.978329   0.98227986 
    7200    226.22658    236.40796    126925.27   -40076.002    2814.6888   -42890.691    22.235563   0.98399233 
    7300    220.40822    276.87937    127116.88   -40125.288    2742.2973   -42867.585    22.661087   0.98250913 
    7400    219.06413    219.87742    127219.19   -40157.913    2725.5743   -42883.487    22.778807   0.98171898 
    7500    222.97909    241.32498     127377.4   -40123.396    2774.2838    -42897.68    22.888675   0.98049961 
    7600    221.27993    144.01346    127459.45    -40209.98    2753.1431   -42963.123    23.278175   0.97986845 
    7700    223.02449     203.6936    127715.43   -40112.817    2774.8487   -42887.666    23.611293   0.97790448 
    7800    221.69851    166.68869    127650.84   -40086.727     2758.351   -42845.078    23.939688   0.97839925 
    7900    221.96485     262.1082    127334.69   -40152.136    2761.6647   -42913.801    24.045219    0.9808285 
    8000     224.3673    159.95106    127505.07   -40128.671    2791.5558   -42920.227     24.23265   0.97951788 
    8100    224.51896    187.93719    127515.29   -40205.964    2793.4427   -42999.406    24.504262   0.97943935 
    8200     223.2266    320.71777    127525.73   -40239.034    2777.3633   -43016.397    24.792089   0.97935912 
    8300    221.57921    345.64339    127429.21   -40227.491    2756.8666   -42984.358    25.067099   0.98010099 
    8400    221.90824    136.89062    127542.32   -40190.379    2760.9604   -42951.339    25.211481    0.9792318 
    8500    226.01169    104.38686    127694.78   -40125.605    2812.0151    -42937.62    25.610896   0.97806263 
    8600    225.51584    362.85843    127638.84   -40150.982    2805.8458   -42956.828    25.865472   0.97849126 
    8700    226.65637    237.00294    127614.24   -40146.241    2820.0362   -42966.277    26.114698   0.97867992 
    8800    222.88782    105.87905     127582.8   -40194.533    2773.1482   -42967.681    26.213808   0.97892105 
    8900    219.51251    435.31223    127616.54    -40287.43    2731.1529   -43018.583    26.383661   0.97866224 
    9000    225.05317    168.73311    127791.63   -40243.841    2800.0893    -43043.93     26.59106    0.9773214 
    9100    224.20925    199.39582    127723.79   -40314.164    2789.5893   -43103.753     26.83705   0.97784046 
    9200     221.5335    144.77547       127813   -40215.978    2756.2979   -42972.276    27.163836   0.97715795 
    9300    223.33315    271.16757    127779.66   -40242.096     2778.689   -43020.785    27.473889    0.9774129 
    9400    224.17072    83.666029    127944.26   -40203.502      2789.11   -42992.612    27.593532   0.97615549 
    9500    223.41312   -20.037335    127457.86   -40228.608    2779.6839   -43008.292    27.807984   0.97988067 
    9600    223.23164    110.90211     127438.3   -40177.715     2777.426   -42955.141    28.132222   0.98003108 
    9700     225.2859    375.36356    127585.79   -40097.351     2802.985   -42900.336    28.489258   0.97889812 
    9800    225.43904    298.82665    127666.27   -40177.557    2804.8902   -42982.448    28.679507   0.97828103 
    9900    217.48817    221.32025    127609.28   -40260.431    2705.9663   -42966.397    29.050073   0.97871791 
   10000    223.24493    260.46302    127618.94   -40257.701    2777.5913   -43035.292    29.097814   0.97864384 
   10100     225.9098    455.78276    127885.24   -40231.361    2810.7474   -43042.109    29.394105   0.97660597 
   10200    219.24578    119.63975    127844.56   -40282.097    2727.8343   -43009.932    29.678878   0.97691677 
   10300    220.62411    268.70962    127765.91   -40282.964    2744.9833   -43027.947    29.953875   0.97751815 
   10400    222.64075     392.5825     127796.6    -40226.96    2770.0741   -42997.034    30.059296   0.97728334 
   10500    223.08634    74.023833    127974.67   -40214.845    2775.6182   -42990.464    30.054423   0.97592354 
   10600    225.82074    442.44073    128081.85   -40145.443    2809.6393   -42955.082    30.011412   0.97510683 
   10700    230.41426    239.46195    128103.69   -40140.532    2866.7915   -43007.324    30.309647   0.97494062 
   10800    223.24259     187.1244    127897.92   -40119.964    2777.5622   -42897.526    30.563489   0.97650913 
   10900    225.85359    116.34663    127967.84   -40144.839     2810.048   -42954.887    31.051931   0.97597558 
   11000     229.4165    225.00733    127819.79   -40124.304    2854.3774   -42978.682    31.145731   0.97710603 
   11100    225.30894    165.83036    127745.31    -40159.36    2803.2716   -42962.632    31.325353   0.97767577 
   11200    226.91129    245.14274    127728.79   -40158.211    2823.2078   -42981.418    31.513971   0.97780217 
   11300    227.09132    115.26146    127454.51   -40157.679    2825.4478   -42983.127    31.714941   0.97990639 
   11400    225.34681    377.19114     127740.7   -40172.419    2803.7427   -42976.161    31.999916   0.97771106 
   11500    223.65949    34.029245    127878.26   -40200.346    2782.7492   -42983.095    32.009277   0.97665929 
   11600    225.88881     210.0588    127897.03   -40200.757    2810.4862   -43011.244      31.9979   0.97651595 
   11700    224.27208    260.99653    127899.97   -40095.184    2790.3711   -42885.555    32.340841   0.97649352 
   11800     224.9686    76.807649    127871.58   -40175.302    2799.0371   -42974.339    32.485278   0.97671032 
   11900    221.97716    114.54199    127928.69   -40197.885    2761.8179   -42959.703    32.778936   0.97627428 
   12000    228.52559    179.95195    128148.32   -40200.508    2843.2928   -43043.801    33.027109   0.97460105 
   12100    226.84568     452.8343    128043.77   -40163.734    2822.3916   -42986.125    33.347524   0.97539685 
   12200    224.92901    141.37791    128016.56   -40168.169    2798.5444   -42966.713    33.512567   0.97560416 
   12300    224.57103   -55.523282    127829.24   -40190.863    2794.0906   -42984.954    33.810914   0.97703384 
   12400    225.42911    84.280496    127871.81   -40158.243    2804.7668    -42963.01    34.061583   0.97670854 
   12500    220.31906    89.204531    127783.35   -40247.663     2741.188   -42988.851    34.365988   0.97738472 
   12600    229.73919    155.07281    127788.42   -40160.691    2858.3923   -43019.083    34.614077   0.97734594 
   12700    227.30008    326.68237    127727.96   -40132.945    2828.0451    -42960.99    34.800505   0.97780852 
   12800    227.86097    169.54529     127784.6   -40092.013    2835.0237   -42927.037    35.063553   0.97737515 
   12900    225.55689    242.00778    127945.34   -40146.531    2806.3565   -42952.887    35.299313   0.97614725 
   13000    233.26053    212.55839    128040.16   -40110.348    2902.2045   -43012.552    35.331849   0.97542439 
   13100    227.49054      236.379    128134.71   -40118.869    2830.4148   -42949.284    35.485727   0.97470459 
   13200    228.58902    198.26057    128198.65   -40055.527     2844.082   -42899.609    35.777077   0.97421846 
   13300    232.09547    89.081204    128194.83   -40097.449    2887.7089   -42985.158    35.980501   0.97424752 
   13400    226.48541    141.84199    128103.45   -40182.688    2817.9091   -43000.597     36.08043   0.97494245 
   13500    226.55363    284.28499    127911.49   -40220.437    2818.7578   -43039.195    36.149448   0.97640556 
   13600    226.80413    51.464776    127827.65   -40247.914    2821.8746   -43069.788    36.428641     0.977046 
   13700    221.90078     152.7773    127588.32   -40249.612    2760.8675   -43010.479      36.4512   0.97887868 
   13800    227.30081    344.36702    127622.55   -40143.815    2828.0542   -42971.869    36.763983   0.97861614 
   13900    225.90887    45.268701    127686.29   -40170.057    2810.7358   -42980.793    36.924428   0.97812768 
   14000    224.62352    336.60782    127530.93   -40151.023    2794.7436   -42945.767    37.166295   0.97931919 
   14100    222.80472     186.9747    127601.46   -40142.137    2772.1143   -42914.251    37.648563   0.97877795 
   14200    220.90559    200.43003       127687   -40166.141    2748.4855   -42914.626    37.662008   0.97812225 
   14300    223.47089    160.19126     127771.2   -40208.803    2780.4027   -42989.205    37.785925   0.97747761 
   14400     227.9984    117.51576    127973.56   -40175.027    2836.7335    -43011.76    38.048303   0.97593195 
   14500    222.89037    166.76174     127744.8   -40117.413    2773.1799   -42890.593    37.952225   0.97767967 
   14600     224.6503    61.604967    127770.84   -40127.034    2795.0768   -42922.111    38.434569   0.97748042 
   14700    223.18298    181.79006    127732.01   -40174.492    2776.8206   -42951.313    38.477932   0.97777752 
   14800    220.76782    194.09314    127658.13   -40207.993    2746.7714   -42954.764    38.747885   0.97834343 
   14900    221.33628    311.53454    127505.06    -40284.58    2753.8441   -43038.424    38.987292   0.97951793 
   15000    222.61181    160.10488     127687.1    -40272.23    2769.7141   -43041.944    39.412184   0.97812146 
   15100    219.72005    295.37255    127622.64   -40301.847    2733.7352   -43035.582     39.50602   0.97861548 
   15200    223.08661    299.05638    127614.59   -40238.639    2775.6215   -43014.261    39.676226   0.97867725 
   15300    219.11795      162.121    127739.72   -40248.519    2726.2439   -42974.762    39.948197   0.97771856 
   15400    224.90144    262.68985    127647.91   -40238.498    2798.2014     -43036.7    40.076086   0.97842172 
   15500    224.19479    177.34687    127719.75   -40212.993    2789.4094   -43002.403    40.261889   0.97787138 
   15600    222.70384    348.93572    127689.16    -40158.52    2770.8592    -42929.38    40.443087   0.97810567 
   15700    221.14615    151.08029    127728.34   -40238.342    2751.4786    -42989.82    40.649902   0.97780565 
   15800    221.43948    187.41304    127522.46   -40217.124    2755.1281   -42972.252    40.823834   0.97938427 
   15900    221.75779    165.94913    127305.69   -40246.814    2759.0884   -43005.902    41.077553   0.98105189 
   16000    224.30218     304.9024    127477.52    -40174.67    2790.7455   -42965.415    41.132456   0.97972957 
   16100    226.92434    29.210765    127682.95   -40116.603    2823.3702   -42939.973    41.337685   0.97815328 
   16200     222.7759    86.279703    127587.87    -40172.92    2771.7557   -42944.675    41.542743   0.97888215 
   16300    227.66496    209.75453    127518.95   -40192.049     2832.585   -43024.634    41.756489   0.97941123 
   16400    229.10562    234.66514    127689.16   -40100.347    2850.5094   -42950.857    41.906153   0.97810567 
   16500     228.8169    215.69781    127818.77   -40087.172    2846.9172   -42934.089    42.070974   0.97711383 
   16600    227.67942    520.34457    127882.86   -40076.342    2832.7648   -42909.107    42.609441   0.97662414 
   16700    225.72305    157.52536    127846.53   -40111.653    2808.4238   -42920.077     42.80894   0.97690171 
   16800    227.50683    270.94193    127850.88   -40115.189    2830.6175   -42945.807    42.809099   0.97686849 
   16900    221.69463     193.6973    127642.07   -40088.478    2758.3027   -42846.781    42.916481   0.97846649 
   17000    224.96036     53.98058    127487.53   -40103.003    2798.9345   -42901.938    43.312729   0.97965259 
   17100    225.99609    114.09497    127595.91   -40024.213     2811.821   -42836.034    43.622653    0.9788205 
   17200    220.18644     157.4912    127557.79   -40033.919    2739.5379   -42773.457    43.818857     0.979113 
   17300    225.90454    160.50962    127425.49   -40077.381     2810.682   -42888.063    43.818912    0.9801296 
   17400    226.04298    169.77974    127387.97   -40101.536    2812.4044    -42913.94    43.914813   0.98041824 
   17500    227.06047    160.21081    127487.07   -40089.833    2825.0639   -42914.897    44.358063   0.97965613 
   17600    226.32343    283.66726     127546.7   -40061.114    2815.8937   -42877.007    44.219056   0.97919817 
   17700    222.73718    213.99027    127667.14    -40073.43     2771.274   -42844.704    44.448574   0.97827439 
   17800    226.88935    123.85791    127602.49   -40078.793    2822.9349   -42901.728    44.458419      0.97877 
   17900    227.94004     343.7117     127450.5   -40048.092    2836.0075     -42884.1    44.779508   0.97993721 
   18000    228.92773    291.87057    127585.22   -39991.437    2848.2962   -42839.734    45.338998   0.97890249 
   18100    226.52538    165.54574    127633.36   -40089.186    2818.4064   -42907.593     45.60474   0.97853329 
   18200    223.70186    175.57849    127430.94   -40100.029    2783.2765   -42883.305    45.944893   0.98008766 
   18300     228.8049    331.13266    127346.83   -40004.021    2846.7679   -42850.789    46.209161     0.980735 
   18400    229.47241    295.41241    127446.52   -40078.462     2855.073   -42933.535    46.354368   0.97996787 
   18500    232.75791     60.42314    127552.35   -40045.707    2895.9509   -42941.658    46.715563   0.97915479 
   18600    222.93298    167.18372    127443.95   -40101.892    2773.7101   -42875.602    47.022842   0.97998763 
   18700    227.11915    127.22601    127459.85    -40059.23     2825.794   -42885.024    47.219548   0.97986534 
   18800    226.50427    187.67629    127555.41   -40026.849    2818.1438   -42844.993    47.675562   0.97913129 
   18900    225.87685    352.82092    127302.01   -40073.263    2810.3374   -42883.601    48.026822    0.9810803 
   19000    222.96601    347.09728    127506.34     -40044.5    2774.1211   -42818.621    48.339605   0.97950809 
   19100    227.90598    149.41504    127555.22   -40086.058    2835.5837   -42921.641    48.489106   0.97913272 
   19200    227.37181    129.42573    127553.61   -40058.695    2828.9376   -42887.632     48.51621   0.97914511 
   19300    229.28524     416.1988    127644.07   -40003.107    2852.7443   -42855.852    48.811055   0.97845116 
   19400    225.11624    149.90713    127558.14    -40004.23     2800.874   -42805.104    48.962844    0.9791103 
   19500    230.05424     52.35932    127290.11   -39987.284    2862.3121   -42849.596    49.014412   0.98117197 
   19600    226.07306    362.50714    127296.77    -40031.94    2812.7787   -42844.718    49.313635   0.98112066 
   19700    222.37155    214.36054    127433.03   -40013.974    2766.7249   -42780.699     49.84385   0.98007161 
   19800    225.81182    250.53169    127491.05   -40042.711    2809.5284   -42852.239    49.937972   0.97962558 
   19900    228.27524    15.569574    127465.11   -40045.486     2840.178   -42885.664     50.01339   0.97982495 
   20000    224.60975    230.33483    127146.54   -40082.535    2794.5724   -42877.108    50.185152   0.98227993 
   20100    223.16442    312.46891    127162.85   -40025.233    2776.5896   -42801.822    50.320319   0.98215393 
   20200    223.77639    200.42676       127327   -40058.543    2784.2037   -42842.746    50.871184   0.98088771 
   20300    222.47289    101.06299    127196.86   -40086.572    2767.9857   -42854.558    51.408376   0.98189133 
   20400    222.22097    123.17262    127015.93   -40074.956    2764.8513   -42839.807    51.853594      0.98329 
   20500    223.26369    347.65192    126989.36    -40036.96    2777.8247   -42814.785    52.235958   0.98349572 
   20600    220.98882    176.05221    127112.55   -40066.788    2749.5211   -42816.309    52.745494    0.9825426 
   20700    228.76982    46.570331     127090.2   -40021.106    2846.3315   -42867.438    53.229248   0.98271539 
   20800    226.98115    271.38943    127081.62   -40034.416     2824.077   -42858.494    53.615026   0.98278171 
   20900    218.32532    244.41557    127019.18   -40074.493     2716.382   -42790.875    53.979638   0.98326479 
   21000      221.257    222.40396    126877.13    -40164.55    2752.8577   -42917.407    54.287453   0.98436566 
   21100    223.98943   -88.414076    126785.83   -40185.973    2786.8543   -42972.827    54.627801    0.9850745 
   21200    223.08029    345.99087    127017.72   -40158.339     2775.543   -42933.882    55.001337   0.98327611 
   21300    219.10802    251.95124    126991.45   -40181.786    2726.1204   -42907.906    55.047949    0.9834795 
   21400    220.41772    152.48087    126947.66   -40151.964    2742.4155   -42894.379    55.253184   0.98381875 
   21500    220.62348    80.096394    127017.11   -40149.899    2744.9755   -42894.874    55.427848   0.98328081 
   21600    224.42198    147.82509    126930.36   -40107.014    2792.2361    -42899.25    55.838821    0.9839529 
   21700    225.88718    230.27463     127188.6     -40074.2     2810.466   -42884.666    55.903369   0.98195507 
   21800    225.44348    34.861823    127299.59   -40047.767    2804.9455   -42852.712    56.087593   0.98109889 
   21900    227.94757    103.06849     127093.3    -40061.55    2836.1011   -42897.651    56.211316   0.98269137 
   22000    223.89262    115.46516     127075.7   -40095.146    2785.6499   -42880.795    55.988311   0.98282746 
   22100    223.99586    256.37593    127116.75   -40041.718    2786.9344   -42828.652    56.395605   0.98251009 
   22200    226.03329   -74.844153    126982.63   -40073.756    2812.2838    -42886.04    56.634931   0.98354782 
   22300     224.4823    229.99294    126850.85   -40084.312    2792.9866   -42877.299    57.095682   0.98456958 
   22400     221.9981    258.15427    126780.86   -40054.476    2762.0784   -42816.554    57.499558   0.98511317 
   22500    229.33574    186.11212    126749.97   -40059.979    2853.3727   -42913.352    57.871718   0.98535321 
   22600    229.04839    210.79983    126913.11   -40010.478    2849.7975   -42860.276    58.100315   0.98408663 
   22700    225.85046   -30.759371       126910   -39996.671    2810.0092    -42806.68     58.10527   0.98411069 
   22800    231.57391    350.71287    127060.56   -39967.192    2881.2198   -42848.412    58.365811   0.98294462 
   22900    226.35942    136.15784    127248.26   -40021.581    2816.3416   -42837.923    58.766284    0.9814947 
   23000    224.54378    325.53325    127386.62   -39994.393    2793.7515   -42788.144    59.165332   0.98042862 
   23100    221.24521    258.90086     127220.7   -40104.554     2752.711   -42857.265    59.276408   0.98170733 
   23200    223.49682     176.2465    127152.13   -40041.997    2780.7253   -42822.722    59.717935   0.98223673 
   23300    225.14033   -37.848937    127148.81   -40090.347    2801.1737    -42891.52    59.816629   0.98226238 
   23400     223.7195    2.6183258    126917.95   -40030.366    2783.4959   -42813.862     60.07518   0.98404909 
   23500    223.19129    4.4939129    126709.76    -40061.28    2776.9239   -42838.204    59.898365   0.98566589 
   23600    225.47396     343.3686    126547.27    -40037.09    2805.3247   -42842.415    59.882564   0.98693155 
   23700    222.38615    144.00069    126831.94   -40050.996    2766.9065   -42817.902    60.224467   0.98471643 
   23800    226.11416    324.24463    126853.12   -40117.215      2813.29   -42930.505    60.450556     0.984552 
   23900    220.19352    104.64582    126857.54   -40142.125     2739.626   -42881.751      60.4859   0.98451766 
   24000    226.90717    108.15534    126563.82   -40086.229    2823.1566   -42909.385    60.642025   0.98680251 
   24100    224.59012    113.94821    126439.13   -40084.372     2794.328     -42878.7     60.87708   0.98777563 
   24200     221.6147    233.37335    126479.28   -40129.554    2757.3081   -42886.862    60.961119   0.98746209 
   24300    221.81711      260.852    126687.37   -40074.401    2759.8266   -42834.228    61.440498   0.98584014 
   24400    220.78878    226.57076    126674.29   -40099.568    2747.0322     -42846.6    61.499857   0.98594192 
   24500    225.94062    50.676785    126605.07   -40059.307    2811.1308   -42870.438    61.929361   0.98648099 
   24600     224.0419    315.79772    126606.95   -40055.896    2787.5072   -42843.403    62.176453   0.98646628 
   24700    222.18339    138.31327    126567.04   -40094.199    2764.3838   -42858.582     62.68987   0.98677734 
   24800     226.8242    191.56523    126594.32   -40089.958    2822.1243   -42912.082    62.798396   0.98656471 
   24900    222.59727    39.513141    126751.39   -40019.268    2769.5332   -42788.801    62.862607    0.9853422 
   25000    229.84541    229.95683    126943.96   -40000.419    2859.7138   -42860.133    63.221692   0.98384742 
   25100    227.16281    110.28491    127078.78   -40014.156    2826.3372   -42840.493    63.708603   0.98280365 
   25200    227.36095    101.24485    127054.39    -40069.55    2828.8025   -42898.353    64.216924   0.98299235 
   25300    222.91218   -103.75034    126832.83   -40084.008    2773.4514   -42857.459    64.608003   0.98470951 
   25400    225.16286    226.10703    127075.76   -40060.725     2801.454   -42862.179    65.112885   0.98282702 
   25500    227.65044    206.67685    127032.61   -40007.582    2832.4043   -42839.986    65.042035   0.98316083 
   25600    225.08221    48.090912    127100.32   -40076.336    2800.4506   -42876.787    65.659496   0.98263715 
   25700    219.45911    211.48285    127078.63   -40099.937    2730.4885   -42830.426    66.194197   0.98280486 
   25800    224.79683    197.94647    126973.62   -40083.735    2796.8999   -42880.635    65.998005    0.9836176 
   25900     228.2489    293.82734    127215.09   -40037.758    2839.8503   -42877.608    66.475498   0.98175057 
   26000    227.69364    235.21238    127413.47   -39957.845    2832.9417   -42790.787    66.791049   0.98022207 
   26100    228.07824    119.43671    127508.65   -40060.549    2837.7269   -42898.276    67.338381   0.97949034 
   26200      224.305    170.93681    127608.06   -40052.656    2790.7807   -42843.437    67.685568    0.9787273 
   26300    224.56885    170.70125    127290.65   -40025.914    2794.0634   -42819.977    67.808937   0.98116782 
   26400    225.99564    350.50844    127149.87   -40017.259    2811.8155   -42829.074    68.193822   0.98225422 
   26500    223.81543    133.05425    127271.72   -40060.448    2784.6895   -42845.138    68.403257   0.98131379 
   26600    225.57791    192.56145    127049.01   -40118.909    2806.6181   -42925.527    68.776969   0.98303399 
   26700    221.03765    243.01726     127532.5   -40137.874    2750.1286   -42888.002    69.019982    0.9793072 
   26800    225.86053    201.87191     127485.9   -40063.035    2810.1343    -42873.17     69.24945    0.9796651 
   26900    223.96792    142.90124    127536.91   -40051.997    2786.5867   -42838.583    69.405525   0.97927333 
   27000    227.83421    230.88549    127570.27   -40099.778    2834.6907   -42934.469    69.609962   0.97901721 
   27100    226.39993    143.85165    127576.46   -40116.948    2816.8455   -42933.794    69.738987    0.9789697 
   27200    225.46833    55.009959    127572.22   -40154.478    2805.2546   -42959.733    70.095141   0.97900224 
   27300    224.24049    161.83621    127850.89   -40181.459     2789.978   -42971.437    70.432132   0.97686838 
   27400    222.96935    326.86809    127974.29   -40115.365    2774.1626   -42889.528    70.672847    0.9759264 
   27500    225.93973    154.02945    127928.55   -40051.544    2811.1198   -42862.664    70.926293   0.97627536 
   27600    225.18881    368.27745    127573.24   -40088.846    2801.7769   -42890.623    71.138227   0.97899443 
   27700    221.55389    148.17632    127573.61   -40080.888    2756.5516    -42837.44    71.131611   0.97899161 
   27800    225.96799    209.54936     127514.5   -39996.466    2811.4714   -42807.938    71.250182   0.97944543 
   27900    226.28411    229.30236    127649.05   -40015.076    2815.4045   -42830.481    71.509552   0.97841299 
   28000    225.94199    116.39643    127561.42   -40044.383    2811.1478   -42855.531    71.545589   0.97908512 
   28100    221.23824    128.69525    127577.06   -40026.253    2752.6244   -42778.877      71.5464   0.97896508 
   28200    221.35642    157.00055    127558.75   -40083.367    2754.0947   -42837.462    71.728977   0.97910566 
   28300     222.5008    222.81067    127345.11   -40086.259    2768.3329   -42854.591    72.158302   0.98074826 
   28400    225.07163    137.53119    127239.56   -40139.461     2800.319    -42939.78    72.338773   0.98156182 
   28500    222.94225    243.23119     127384.1   -40171.353    2773.8254   -42945.178    72.696189   0.98044805 
   28600    225.33372    386.42485    127368.49   -40134.051    2803.5798    -42937.63    72.727581    0.9805682 
   28700    222.74737    301.49899    127376.07   -40148.436    2771.4008   -42919.837    72.970396   0.98050981 
   28800    225.96705    264.84786    127639.01   -40118.164    2811.4597   -42929.624    73.592512   0.97848995 
   28900    229.92347    126.97281    127812.55   -40085.895    2860.6851    -42946.58    73.761767   0.97716144 
   29000    220.48946    320.98412    127918.46   -40158.712     2743.308    -42902.02    73.836593   0.97635236 
   29100    228.71738    329.20892    128110.08   -40105.317     2845.679   -42950.996    74.358379   0.97489202 
   29200    225.51589    113.80037    128083.58   -40089.724    2805.8465    -42895.57    74.461517   0.97509371 
   29300    227.51379    490.59957    127989.75   -40148.636     2830.704    -42979.34    74.512681   0.97580857 
   29400    224.29736    239.29177    127885.88   -40204.095    2790.6856    -42994.78    74.817907    0.9766011 
   29500    225.54933    247.23041    127966.34   -40239.213    2806.2625   -43045.475    74.804877   0.97598708 
   29600    226.10109    292.91166    127979.32   -40162.898    2813.1274   -42976.026    75.089758   0.97588804 
   29700     221.9974    348.51428    127960.54   -40201.667    2762.0697   -42963.736    75.394197   0.97603126 
   29800    221.93283    284.21003    128200.52   -40180.357    2761.2663   -42941.623    75.910817   0.97420424 
   29900    222.03445    354.10706    128098.54   -40217.432    2762.5306   -42979.962    76.198921   0.97497982 
   30000    225.18797    180.40988    128099.52   -40191.691    2801.7665   -42993.458    76.044245   0.97497234 
   30100    226.39296    247.94512    128134.89   -40197.564    2816.7588   -43014.323    76.018197   0.97470321 
   30200    223.65016    82.573737    127996.48   -40213.454    2782.6331   -42996.087    76.299559   0.97575726 
   30300    227.67528    82.166889    128114.86   -40187.188    2832.7133   -43019.902    76.629699   0.97485559 
   30400    223.24222    299.81456    127819.82   -40157.307    2777.5576   -42934.864     76.40891   0.97710586 
   30500    224.02967     151.0054    127902.23   -40145.911     2787.355   -42933.266    76.848158   0.97647627 
   30600    223.16456    319.96059    127976.77   -40135.255    2776.5914   -42911.846    77.005462   0.97590752 
   30700    230.29458    260.69048    128040.36   -40163.604    2865.3024   -43028.907    77.265407   0.97542283 
   30800    230.58794    306.65373    128307.52   -40119.533    2868.9524   -42988.485    77.669596   0.97339183 
   30900    222.99807    261.65915     128242.1   -40254.501    2774.5199   -43029.021     77.67098    0.9738884 
   31000    222.95152    111.70935    128032.11   -40278.053    2773.9407   -43051.994    77.789385    0.9754857 
   31100    224.57976    251.54398    127902.64   -40282.517    2794.1992   -43076.716    77.746828   0.97647311 
   31200    223.77173    218.72934    127848.37   -40301.188    2784.1457   -43085.334     77.92591   0.97688764 
   31300     222.0236    71.980464    127826.66   -40264.226    2762.3957   -43026.622    77.984656   0.97705352 
   31400    221.10813      71.2131    127697.35   -40205.295    2751.0055   -42956.301    78.249174   0.97804294 
   31500     224.3881    524.05142    127810.11    -40247.03    2791.8146   -43038.844    78.385736   0.97718004 
   31600     226.9376    224.34064    127862.57   -40159.109    2823.5351   -42982.644    78.493652   0.97677917 
   31700    225.58974    308.22209    127814.49   -40196.071    2806.7652   -43002.837     78.62286   0.97714654 
   31800    227.59597    82.743602    127859.73   -40107.776    2831.7265   -42939.502    79.034806   0.97680084 
   31900    225.14801     379.6189    127677.14   -40094.306    2801.2693   -42895.576    79.144001   0.97819778 
   32000     229.3778    236.05227     127748.6   -40083.666    2853.8959   -42937.562    79.369267   0.97765057 
   32100    229.76798    255.23945     127865.5   -40099.655    2858.7505   -42958.405     79.63855   0.97675675 
   32200    228.78032    230.16705    127789.98   -40115.946    2846.4621   -42962.409    79.690428   0.97733397 
   32300    228.96342    178.29795    127798.35   -40124.355    2848.7403   -42973.095    79.868719   0.97726998 
   32400     224.4185    238.63966    127897.11   -40190.416    2792.1928   -42982.609    80.029968   0.97651534 
   32500    226.11841    404.24844    128086.27   -40225.255    2813.3429   -43038.598    80.392081   0.97507322 
   32600    231.82171    276.86882    128125.77   -40176.967    2884.3028    -43061.27    80.643252    0.9747726 
   32700    224.71422    27.895547    128008.37   -40242.653    2795.8721   -43038.526     80.59688   0.97566657 
   32800    221.68893    162.01467    128215.75   -40268.393    2758.2318   -43026.625    80.653572    0.9740885 
   32900     221.0511    204.50211    127968.64   -40264.947    2750.2959   -43015.243    80.534129   0.97596949 
   33000    223.47313    208.81475    128117.49   -40321.797    2780.4306   -43102.228    81.034556   0.97483564 
   33100    227.22031    171.94168    128059.99   -40261.918    2827.0527   -43088.971    81.441014   0.97527329 
   33200    221.10393     208.7601    127990.85   -40308.341    2750.9532   -43059.295     81.38094   0.97580018 
   33300     227.1042    139.66728    127871.84   -40236.973     2825.608   -43062.581    81.360826    0.9767083 
   33400    225.83641    312.77385    127879.26   -40334.349    2809.8343   -43144.183    81.542981   0.97665162 
   33500    220.58824    295.33202    127847.53   -40293.301    2744.5371   -43037.838    81.632337   0.97689406 
   33600    229.47565    233.69428    127817.63   -40269.184    2855.1134   -43124.298    81.712664   0.97712259 
   33700    223.51563    61.398538    127706.54   -40274.899    2780.9594   -43055.858      81.7332   0.97797254 
   33800    226.13177    233.10448    127883.23   -40272.664    2813.5092   -43086.173    81.935677   0.97662132 
   33900    226.09881    404.55301    127871.02   -40268.169     2813.099   -43081.268    82.021068   0.97671458 
   34000    226.25349    284.67946    127940.36   -40218.766    2815.0236    -43033.79     82.31889   0.97618525 
   34100     223.6676    145.23463    128009.44   -40249.619    2782.8501    -43032.47    82.801687   0.97565848 
   34200    222.62206   -38.601672    128026.55   -40245.034    2769.8416   -43014.875    82.828184   0.97552806 
   34300    222.35565    38.934157    127893.81   -40282.727    2766.5271   -43049.254    82.851242   0.97654051 
   34400    225.33604    308.22545    127829.52   -40201.456    2803.6087   -43005.065     83.02682   0.97703166 
   34500    227.49825    204.64429    127798.94   -40228.972    2830.5108   -43059.483    83.455183   0.97726547 
   34600    225.40524     137.3239    127888.32   -40210.631    2804.4698   -43015.101    83.756965   0.97658243 
   34700    224.95231    215.12272    128018.65    -40293.84    2798.8344   -43092.674    84.202703   0.97558822 
   34800    223.84506    187.52911    127988.07   -40291.334    2785.0581   -43076.392    84.476156   0.97582136 
   34900    225.40899    350.74667    128096.82   -40295.511    2804.5164   -43100.027    84.610221   0.97499289 
   35000    219.16305    146.57013    127921.98   -40363.626     2726.805   -43090.431    84.770896   0.97632548 
   35100    225.03069    137.07926    128074.65   -40301.434    2799.8097   -43101.244    85.034024   0.97516166 
   35200    224.45739    191.92825    128380.94   -40317.135    2792.6766   -43109.812    85.424995   0.97283514 
   35300     225.1909    187.27685    128146.32   -40295.904    2801.8029   -43097.707     85.47582   0.97461631 
   35400    221.06367    100.86725    128153.87   -40317.093    2750.4523   -43067.545    85.240591   0.97455891 
   35500    224.01603     328.1181    128326.07   -40214.203    2787.1853   -43001.388    85.419195   0.97325109 
   35600    223.12017    63.916651    128343.05   -40255.858    2776.0391   -43031.898    85.542071   0.97312232 
   35700    225.59324    227.93724    128405.47   -40215.078    2806.8088   -43021.887    85.816152   0.97264933 
   35800    222.88959    14.667478    128336.11     -40252.5    2773.1703    -43025.67    85.988271   0.97317501 
   35900    229.17758     191.0662    128214.96   -40206.464    2851.4048   -43057.869    86.223417   0.97409452 
   36000    224.90081    275.53377    128163.89   -40160.165    2798.1936   -42958.359    86.326415   0.97448265 
   36100    225.39393   -11.141001    128149.81   -40187.048     2804.329   -42991.377    86.459786   0.97458977 
   36200    227.38667    31.866361    127969.18   -40228.726    2829.1224   -43057.848    87.221933   0.97596541 
   36300    221.35687    237.34918    127941.86   -40284.692    2754.1003   -43038.792    87.288015   0.97617381 
   36400    227.16538    135.67001    127925.38   -40234.386    2826.3692   -43060.755     87.24977   0.97629957 
   36500    222.74851    172.13822    127961.69   -40218.505    2771.4149    -42989.92    87.560077   0.97602255 
   36600    220.66094    284.25106    127866.22   -40353.401    2745.4416   -43098.843    87.463206   0.97675124 
   36700    223.94722     247.2898    128045.56   -40291.202    2786.3292   -43077.531    87.871953   0.97538325 
   36800     224.4673    237.90569    128071.03   -40281.084    2792.7999   -43073.884    87.922363   0.97518922 
   36900    224.57665    153.78835    127820.52   -40311.714    2794.1605   -43105.874    88.376306   0.97710051 
   37000    226.97984    238.55855    127707.81    -40239.87    2824.0608   -43063.931    88.617862   0.97796286 
   37100    228.16961    191.48779     127897.2    -40226.67    2838.8638   -43065.533    88.746053   0.97651463 
   37200    225.94987    329.55591    128085.92   -40283.542    2811.2459   -43094.788    89.165969   0.97507586 
   37300    223.44204    290.81255    128106.62   -40278.363    2780.0438   -43058.407    89.481875   0.97491831 
   37400    221.03896    92.990907    127875.19   -40296.033    2750.1448   -43046.178    89.312528   0.97668273 
   37500    220.12936    339.95889    127691.91   -40305.792    2738.8277   -43044.619    89.587825   0.97808458 
   37600    224.93415    314.46294    127854.64   -40274.105    2798.6084   -43072.713    89.758462   0.97683974 
   37700    223.26935    92.835746    127939.96   -40287.339    2777.8952   -43065.234    89.916416   0.97618828 
   37800    220.65801    512.56114     127820.8   -40387.986    2745.4052   -43133.391    89.940059   0.97709833 
   37900    218.32226    398.33757    127821.93   -40338.931    2716.3439   -43055.275    90.145534   0.97708971 
   38000    224.18654    10.943502    128005.07   -40305.378    2789.3067   -43094.685    90.394281   0.97569177 
   38100    225.39561    322.11924    127828.21   -40255.654    2804.3499   -43060.004    90.428188   0.97704169 
   38200     219.0955     219.7011    127599.84   -40245.284    2725.9645   -42971.249    90.445963   0.97879037 
   38300    224.68651    133.89566    127465.68   -40154.606    2795.5274   -42950.133    90.755226   0.97982051 
   38400    221.27793    112.22843    127440.11    -40192.98    2753.1181   -42946.098    91.123108   0.98001714 
   38500    223.36167    315.13908     127708.5   -40197.913    2779.0438   -42976.957    91.663379   0.97795753 
   38600    222.87751     92.24395    127711.77   -40148.697    2773.0199   -42921.716    91.815888   0.97793252 
   38700    227.08786    95.081794     127568.7   -40166.179    2825.4047   -42991.583    91.777124   0.97902926 
   38800    226.86859    305.06702    127776.57   -40202.428    2822.6765   -43025.104    92.082207   0.97743659 
   38900    224.95019    299.95535    128022.03   -40161.792     2798.808     -42960.6    92.161738   0.97556249 
   39000    223.63981    86.296841     127896.1   -40227.677    2782.5044   -43010.182    92.195123   0.97652308 
   39100    226.56571    119.65031    127944.29   -40195.665    2818.9082   -43014.573    92.603727   0.97615522 
   39200    227.71702    254.89299    127881.15   -40236.941    2833.2327   -43070.173    92.680277   0.97663722 
   39300    228.26758    410.00312     127968.7   -40242.729    2840.0826   -43082.811    92.921286   0.97596909 
   39400    225.61042    304.77211    128300.99   -40213.647    2807.0225   -43020.669    93.381215   0.97344138 
   39500    225.81073     294.1541    128260.15   -40200.723    2809.5148   -43010.238    93.440427   0.97375134 
   39600    227.03971    293.32123    128170.78   -40258.196    2824.8057   -43083.002    93.631697   0.97443032 
   39700     226.4278    54.556726    128191.63   -40203.961    2817.1923   -43021.153    94.051033    0.9742718 
   39800    224.96661    159.40798     128079.7   -40270.847    2799.0123   -43069.859    94.282209   0.97512322 
   39900    222.62516    211.36323     127997.9   -40296.891    2769.8803   -43066.771    94.478345   0.97574642 
   40000    219.52126    138.50227    128125.82   -40314.669    2731.2618   -43045.931    94.776585   0.97477219 
   40100    229.60234    100.96874    128148.09   -40217.367    2856.6896   -43074.057    94.947362   0.97460281 
   40200    226.88656    315.99545    128033.91    -40257.29    2822.9002    -43080.19    95.234914   0.97547196 
   40300    227.16415    244.68946     127886.2   -40224.179    2826.3539   -43050.533    95.665652   0.97659863 
   40400    227.39531    215.07883    128082.69   -40128.049      2829.23   -42957.279     95.93862   0.97510047 
   40500     226.5446    81.479438    127918.02   -40146.299    2818.6455   -42964.945    95.906958   0.97635574 
   40600     224.9739    322.19519    128051.09   -40185.541     2799.103   -42984.644     95.94209   0.97534108 
   40700     221.6099    100.84206    128034.92   -40224.929    2757.2485   -42982.177    96.250436   0.97546429 
   40800    220.68385    142.28215    127928.61    -40275.16    2745.7267   -43020.886    96.449294   0.97627488 
   40900    220.72696    45.819597    127850.03   -40299.618     2746.263   -43045.881    96.633738   0.97687491 
   41000    226.88895    252.23029    127903.72   -40219.013    2822.9299   -43041.943    96.587658   0.97646486 
   41100    225.47809    190.87124     127928.7   -40189.846    2805.3762   -42995.222    97.019109   0.97627419 
   41200     222.7947    98.189297    127925.62   -40203.038    2771.9896   -42975.028    97.216447   0.97629775 
   41300    222.21107    214.70717    127877.15   -40356.624    2764.7282   -43121.352    97.442763   0.97666778 
   41400    219.11109    166.40586     127921.8   -40299.115    2726.1585   -43025.274    97.720026   0.97632687 
   41500    221.29917    93.113675    127907.51     -40299.8    2753.3824   -43053.183    98.416826   0.97643595 
   41600    224.60012    252.86683    127811.67    -40259.92    2794.4525   -43054.373    98.281912   0.97716812 
   41700    227.17648    247.01494    127939.24   -40222.607    2826.5073   -43049.115    98.335657   0.97619376 
   41800    225.78859    30.614941    127802.04   -40238.486    2809.2393   -43047.726    98.508275   0.97724175 
   41900    224.04244    422.80479    127826.05   -40197.163    2787.5139   -42984.677    98.713876   0.97705818 
   42000    223.54519    155.08696    128087.68   -40184.978    2781.3272   -42966.305    99.449688   0.97506246 
   42100     227.0425    299.17043     127906.8   -40191.729    2824.8404   -43016.569    99.743397   0.97644139 
   42200    229.91189    224.11337    127911.95   -40147.732     2860.541   -43008.273    100.10714   0.97640205 
   42300    226.42055    277.13763     128015.7   -40111.836    2817.1021   -42928.938    100.05172   0.97561075 
   42400    225.93292    10.115003     127885.8   -40154.814    2811.0351   -42965.849     99.93711    0.9766017 
   42500    226.40164   -41.522613     127808.9   -40162.349    2816.8668   -42979.216    100.34001   0.97718932 
   42600    226.73802    153.33261    127797.51   -40174.766    2821.0521   -42995.818     101.0584    0.9772764 
   42700     222.4299    297.09196    127656.88    -40178.57    2767.4508   -42946.021    101.24514   0.97835297 
   42800    226.06562    80.055281    127719.01   -40113.755    2812.6861   -42926.441    101.51933    0.9778771 
   42900    226.18867    419.61088    127609.42   -40193.457    2814.2171   -43007.674    101.58877   0.97871686 
   43000    222.88366    354.91956    127554.88    -40213.77    2773.0965   -42986.866    101.65252   0.97913537 
   43100    224.16002    276.60201    127740.86    -40200.91    2788.9769   -42989.887    102.01784   0.97770977 
   43200    229.05829    224.38085    127737.14   -40163.482    2849.9205   -43013.403     102.1289   0.97773829 
   43300    222.91628    124.87072    127706.11    -40176.03    2773.5024   -42949.532    102.37747   0.97797582 
   43400    228.04349    339.57529    127607.88    -40132.82    2837.2945   -42970.115    102.56357   0.97872866 
   43500    228.84222    130.90654    127578.76   -40137.498    2847.2323    -42984.73    102.80559   0.97895209 
   43600    233.62719    188.58702    127643.66    -40043.66    2906.7664   -42950.426    103.58825   0.97845434 
   43700    229.32537    566.67733    127829.54   -40068.327    2853.2436   -42921.571    103.86655   0.97703155 
   43800    227.78412    138.38594    127847.41   -40076.659    2834.0675   -42910.727    103.98627   0.97689498 
   43900    222.87435     203.3491    127822.97   -40120.588    2772.9806   -42893.568    104.35275   0.97708175 
   44000     225.6949    1.2950477    127584.75   -40164.925    2808.0736   -42972.999    104.30149   0.97890608 
   44100    220.60215   -30.181391    127344.81   -40186.434    2744.7101   -42931.144    104.56935   0.98075051 
   44200    220.92802    290.60637     127095.1    -40210.99    2748.7646   -42959.754    104.66483   0.98267751 
   44300    222.66041    135.95332    127451.76   -40211.846    2770.3188   -42982.165    105.07238   0.97992752 
   44400    226.73409    156.88849    127366.66   -40179.895    2821.0031   -43000.898    105.38939   0.98058228 
   44500    225.26116    278.59362    127331.86   -40232.028     2802.677   -43034.705    105.41182   0.98085026 
   44600    218.72849    289.98268    127424.08   -40291.134    2721.3982   -43012.532    105.61465   0.98014041 
   44700    225.48697    187.64675    127415.26   -40275.381    2805.4866   -43080.867    105.53091   0.98020825 
   44800    224.41095     222.5221    127543.11   -40256.444    2792.0989   -43048.543    105.85819    0.9792257 
   44900    227.91959    266.00129    127501.05   -40200.517    2835.7531   -43036.271    106.21239   0.97954872 
   45000    227.45957    147.77545    127331.96   -40204.352    2830.0294   -43034.382    106.07824   0.98084951 
   45100    225.65477    433.11007    127419.97   -40144.153    2807.5743   -42951.728    106.37764   0.98017203 
   45200    222.42953     85.97328    127508.28    -40213.87    2767.4463   -42981.316    106.79092   0.97949322 
   45300    223.20961    224.48048    127432.32   -40231.176    2777.1519   -43008.328    106.91104   0.98007702 
   45400    226.00223    336.89653    127486.24   -40202.272    2811.8974    -43014.17    107.22704   0.97966253 
   45500    224.52328    346.37289     127802.7   -40206.111    2793.4965   -42999.607    107.79752   0.97723671 
   45600    224.47169    389.17773    127758.96   -40197.746    2792.8546   -42990.601    107.96431   0.97757132 
   45700     229.8015    27.024624    127774.78   -40212.803    2859.1676   -43071.971    108.01847   0.97745023 
   45800    226.81175    242.76128    128016.89   -40166.007    2821.9694   -42987.977    108.19568    0.9756017 
   45900    229.76214    78.973748     128047.1   -40115.711    2858.6778   -42974.388    108.58424   0.97537148 
   46000    228.03502   -10.553812    128027.77    -40090.48    2837.1892   -42927.669    108.63098   0.97551874 
   46100    230.85536    139.93489    127899.61   -40063.807    2872.2795   -42936.087    108.87163   0.97649626 
   46200    232.14816    204.61549    127808.38   -40071.663    2888.3644   -42960.027    109.46947   0.97719327 
   46300     231.0166    149.86385    127687.77   -40095.619    2874.2858   -42969.904    109.64132   0.97811628 
   46400    230.57812    266.27614    127804.58   -40119.265    2868.8301   -42988.095    109.63678   0.97722236 
   46500    230.20742    324.17355    127638.27   -40131.987     2864.218   -42996.205    109.75753   0.97849564 
   46600    229.20904    196.70735    127554.74   -40112.175    2851.7962   -42963.971    109.91281    0.9791364 
   46700    223.77236    205.69676    127383.35   -40191.083    2784.1536   -42975.237    110.19271   0.98045382 
   46800    220.97562    178.79765    127253.76   -40242.253    2749.3568    -42991.61    110.08535    0.9814523 
   46900    224.11214    204.89208    127501.24   -40148.494    2788.3811   -42936.875    110.72909   0.97954723 
   47000    228.30588    216.04525    127576.38   -40133.826    2840.5592   -42974.386    110.99143   0.97897032 
   47100     229.6475     167.9627     127610.6   -40116.486    2857.2514   -42973.737    111.08836   0.97870781 
   47200    228.26324    166.24202    127430.36   -40167.982    2840.0287   -43008.011    111.18278   0.98009209 
   47300    224.03149     215.3784    127556.56   -40211.457    2787.3777   -42998.834     111.5404   0.97912246 
   47400     225.1478    114.30451    127626.89    -40167.02    2801.2667   -42968.287    111.86487   0.97858291 
   47500    225.59366    243.73709    127835.28   -40104.053    2806.8141   -42910.867    112.01208   0.97698763 
   47600    228.33564    357.00019    127972.69    -40050.69    2840.9294   -42891.619    112.41651   0.97593864 
   47700    221.81019    227.13234    127884.74   -40096.425    2759.7404   -42856.166    112.93977   0.97660978 
   47800    225.57903    303.21508    127766.68   -40095.757     2806.632   -42902.389    113.01674   0.97751219 
   47900     226.8412   -31.162034    127625.69   -40168.726    2822.3358   -42991.062    113.31925   0.97859206 
   48000    224.25788    230.29291    127598.23   -40176.525    2790.1944   -42966.719     113.2697   0.97880269 
   48100    221.58148    71.635541    127568.33   -40139.365    2756.8949    -42896.26    113.38416   0.97903209 
   48200    223.37982    286.53243    127270.72   -40167.572    2779.2696   -42946.842    113.06119   0.98132145 
   48300    226.94945    205.37607    127221.24   -40157.024    2823.6826   -42980.707    113.19184   0.98170317 
   48400    227.47817    373.10303    127225.46   -40074.898    2830.2609   -42905.159     113.5191   0.98167055 
   48500    223.61657     172.0816    127129.06    -40129.92    2782.2153   -42912.135    113.26778   0.98241498 
   48600    226.48265    312.63799    127180.27   -40129.758    2817.8747   -42947.632    113.44817   0.98201937 
   48700    227.92326    396.50167    127115.94   -40098.237    2835.7986   -42934.035    113.40752   0.98251634 
   48800    228.64348    275.46186    127278.62   -40137.217    2844.7595   -42981.976    113.72847   0.98126053 
   48900    225.36569    239.60201    127200.12   -40110.348    2803.9776   -42914.326    113.97363   0.98186617 
   49000     223.7022    336.40258    127176.61   -40134.298    2783.2807   -42917.579     114.2774   0.98204768 
   49100    225.98861    209.13778    127075.44   -40124.609    2811.7279   -42936.337    114.32294   0.98282949 
   49200    224.05309    47.040271    126996.32   -40150.744    2787.6464   -42938.391    114.07166   0.98344181 
   49300    221.04931    325.71402    126911.66   -40088.138    2750.2736   -42838.412    114.01477   0.98409782 
   49400    222.41518    204.17007    126918.66   -40062.925    2767.2677   -42830.193    114.24473    0.9840436 
   49500    229.16428    217.08714    127048.76   -40064.304    2851.2394   -42915.544    114.52149   0.98303589 
   49600    224.42963    246.60545     127107.3   -40048.101    2792.3312   -42840.432    115.60105   0.98258311 
   49700    223.53067    1.3697426    127137.42   -40039.782    2781.1466   -42820.929    115.65254   0.98235036 
   49800    225.34056    79.142533    126954.84   -40084.626     2803.665   -42888.291     115.8129   0.98376314 
   49900     229.8513    235.64914    127350.51   -39954.822    2859.7872    -42814.61    116.16042   0.98070666 
   50000    226.86723    33.412773    127259.69   -39986.923    2822.6597   -42809.582     116.4094   0.98140656 
   50100    223.75262    25.607418    126991.54   -40001.414     2783.908   -42785.322    116.44201   0.98347887 
   50200    221.36494    203.44951    127048.09   -40041.623    2754.2008   -42795.824     116.6378   0.98304109 
   50300    227.30717    294.05058    127091.66   -40011.084    2828.1333   -42839.217     116.8051   0.98270407 
   50400    226.66618    202.09809     126885.8   -40032.196    2820.1582   -42852.355    116.45932   0.98429842 
   50500    223.16776    164.24815    126872.41   -40059.655    2776.6313   -42836.287    116.81506   0.98440227 
   50600    220.99224    73.010194    126941.31    -40087.87    2749.5636   -42837.434    117.08866   0.98386798 
   50700    224.48336    200.50432    127078.75   -40108.727    2792.9997   -42901.727    117.07188   0.98280391 
   50800     223.7443    204.33628    126888.23   -40116.483    2783.8044   -42900.288    117.19492   0.98427956 
   50900    228.36634    395.72675    127085.16   -40019.778    2841.3114   -42861.089    117.71032   0.98275433 
   51000    229.43314    180.50884    127135.87   -40065.742    2854.5844   -42920.326      117.945   0.98236233 
   51100     223.0235    151.94219    127186.16   -40100.047    2774.8364   -42874.883    118.12232   0.98197395 
   51200    222.13336    149.98338    127388.92   -40089.975    2763.7613   -42853.736    118.27686   0.98041095 
   51300    223.66266    66.954071    127359.25   -40142.389    2782.7887   -42925.177    118.68331   0.98063932 
   51400    221.36502    24.230354    127391.53   -40150.162    2754.2016   -42904.364    118.57077   0.98039088 
   51500    222.18385    253.63499    127492.78   -40157.027    2764.3895   -42921.416    118.98659   0.97961226 
   51600     223.8607    158.83676    127472.74   -40112.035    2785.2527   -42897.288    119.31977   0.97976628 
   51700    224.32311    278.22903    127435.66   -40102.714    2791.0059    -42893.72    119.66312   0.98005132 
   51800    224.62034    67.370141    127595.25    -40156.77     2794.704   -42951.474    119.73123   0.97882552 
   51900    221.17079    76.735516    127314.74   -40185.319     2751.785   -42937.104    119.83622   0.98098216 
   52000    221.82389    202.46616    127363.01    -40204.46    2759.9109   -42964.371    120.05919    0.9806104 
   52100    223.91959     162.3222    127328.18   -40148.342    2785.9854   -42934.327     120.6391   0.98087863 
   52200     222.6025     91.71859    127348.46   -40168.704    2769.5983   -42938.303    120.75441   0.98072243 
   52300    224.87333     464.5771    127469.12   -40149.049    2797.8517   -42946.901    120.90531   0.97979413 
   52400     228.6909    433.64807    127689.63   -40113.839    2845.3496   -42959.188    121.10792   0.97810207 
   52500    222.46969    57.752778    127418.88   -40108.406    2767.9459   -42876.352    120.97331   0.98018045 
   52600    223.76439    154.13484    127214.94   -40127.429    2784.0545   -42911.483    121.34653   0.98175173 
   52700    221.15171    396.70403    127388.14   -40150.823    2751.5477    -42902.37     121.7834   0.98041692 
   52800     223.8887    140.71774     127339.3   -40096.555    2785.6011   -42882.156    121.58938   0.98079296 
   52900    225.45818    201.22158    127219.69   -40083.025    2805.1284   -42888.153    122.02174   0.98171512 
   53000    224.17639    292.05924    127334.59   -40059.799    2789.1805   -42848.979    122.73333   0.98082929 
   53100    223.38153    120.39539    127358.06   -40090.109    2779.2909   -42869.399    122.99905   0.98064854 
   53200    227.69972    157.72447    127409.77   -40075.903    2833.0174    -42908.92    123.07026   0.98025049 
   53300    227.50827    92.461786    127317.63    -40086.73    2830.6354   -42917.365    123.09944   0.98095991 
   53400    223.00093    313.48776    127324.43   -40170.204    2774.5555    -42944.76    123.47516   0.98090755 
   53500    223.99136    365.38255    127264.61   -40181.446    2786.8784   -42968.325    123.30926   0.98136858 
   53600    224.42669     91.80616    127390.84   -40169.696    2792.2947   -42961.991    123.45205   0.98039615 
   53700    219.16757    335.30894    127291.34   -40190.287    2726.8613   -42917.149    123.81494   0.98116251 
   53800    226.39725   -72.003074    127050.15   -40088.773    2816.8123   -42905.585    123.78381   0.98302517 
   53900    219.76307    163.56916     126983.2   -40126.434    2734.2704   -42860.705     124.1027   0.98354342 
   54000    223.61937    218.98915    126884.95   -40085.976    2782.2501   -42868.226    124.23723   0.98430499 
   54100    219.19461    395.85441    127136.28   -40097.646    2727.1976   -42824.844     124.9159   0.98235916 
   54200    224.56643    130.92141    127012.73   -40073.553    2794.0333   -42867.586    125.29704   0.98331472 
   54300    221.40835    197.16838    126961.49    -40049.31    2754.7408   -42804.051    125.63554   0.98371157 
   54400    223.87558    251.23057    126990.99   -40074.588    2785.4379   -42860.026    125.61991   0.98348307 
   54500    226.85615    5.3672211    127168.08   -40061.034    2822.5218   -42883.556    126.11832   0.98211355 
   54600     229.8946    259.08087    126907.86    -39955.82    2860.3259   -42816.146    126.37634    0.9841273 
   54700    230.25197    60.505878    126787.45   -39971.967    2864.7723   -42836.739    126.13061   0.98506192 
   54800    223.18428    308.48615    126857.95   -40053.098    2776.8368   -42829.934    126.54257   0.98451453 
   54900    218.83473    152.80296    126847.58   -40085.854    2722.7201   -42808.574    126.63879   0.98459495 
   55000    220.74351    365.82839    126942.67   -40129.743     2746.469   -42876.212    127.01753   0.98385747 
   55100    229.64041    97.933996    126953.63   -40113.813    2857.1633   -42970.976    127.61329   0.98377249 
   55200    221.85685    315.69017    126780.72   -40129.091     2760.321   -42889.412    127.58374   0.98511424 
   55300    226.29483    104.95334    126837.75   -40095.593    2815.5379   -42911.131    128.17535   0.98467126 
   55400    221.81154      306.478    126757.99    -40067.38    2759.7573   -42827.138    128.33325   0.98529088 
   55500    225.87565    323.61512    126910.25   -40020.772    2810.3226   -42831.094    128.65572   0.98410878 
   55600    223.67744     245.8298    126930.02   -40055.529    2782.9727   -42838.502    129.11203    0.9839555 
   55700    224.92943    192.48274    126869.07   -40055.769    2798.5497   -42854.319    129.60732   0.98442823 
   55800    228.36794    165.34401    126951.17   -40065.131    2841.3313   -42906.463    129.63039   0.98379156 
   55900    232.68272    254.20491    127008.48   -40051.486    2895.0154   -42946.502    129.62815   0.98334768 
   56000    226.42095    66.143883    127058.98   -40038.967    2817.1071   -42856.074    130.18242   0.98295682 
   56100    232.78838    223.98842     126974.3   -40019.608      2896.33   -42915.938    130.30195   0.98361235 
   56200    225.20209    207.82969    126973.78   -40014.963    2801.9421   -42816.905    130.51757   0.98361637 
   56300    228.78581    15.262482    127140.53   -40048.201    2846.5304   -42894.731    130.99256   0.98232635 
   56400    223.36785    417.66878     127114.3   -40035.226    2779.1207   -42814.347    131.48084   0.98252907 
   56500    223.19256    300.80779    127408.47   -40122.911    2776.9397    -42899.85    131.47944   0.98026051 
   56600    224.29814   -5.2952032    127305.28    -40143.03    2790.6953   -42933.725    131.57638   0.98105509 
   56700    223.00441    95.066142    127443.57   -40180.357    2774.5988   -42954.956    132.06215    0.9799905 
   56800    224.75889    177.36423    127270.86   -40100.318    2796.4279   -42896.746    132.35918   0.98132039 
   56900    222.98204    225.81781    127279.63   -40079.886    2774.3206   -42854.207    132.52903    0.9812528 
   57000    226.93546    315.26812    127311.56   -40028.107    2823.5086   -42851.616     132.5844   0.98100667 
   57100    225.45858     99.47452    127249.89   -40086.793    2805.1334   -42891.926    132.62404   0.98148212 
   57200     222.3743    319.15413    127124.03   -40133.811    2766.7591    -42900.57     132.5883   0.98245383 
   57300    221.27935    123.13041    127094.83   -40180.723    2753.1358   -42933.858    133.16385   0.98267957 
   57400    218.77494    133.02406    126978.46     -40211.7    2721.9762   -42933.676    133.14062   0.98358014 
   57500    221.01786     235.4752    126875.07   -40251.122    2749.8823   -43001.004    132.91447   0.98438167 
   57600    221.85235    268.17484    126884.35    -40199.78     2760.265   -42960.045    133.10998   0.98430964 
   57700    219.37398    242.61103    127032.71   -40228.817    2729.4293   -42958.246    133.78545    0.9831601 
   57800    220.67707    243.90327     127180.5   -40251.195    2745.6423   -42996.837    134.38413    0.9820176 
   57900    220.59478    369.02164    127024.13   -40213.877    2744.6184   -42958.495    134.70844   0.98322651 
   58000    220.03402    206.55839    127029.68   -40216.726    2737.6415   -42954.367    135.08184   0.98318356 
   58100    219.52264    351.48523    127242.88    -40144.81     2731.279   -42876.089    135.87964   0.98153616 
   58200    226.31491    224.55918    127221.61   -40094.301    2815.7877   -42910.089    135.70429   0.98170029 
   58300     225.7793     126.8535    127171.86   -40016.796    2809.1238    -42825.92    135.85101   0.98208435 
   58400     225.1115    13.861619     126903.6    -40008.75     2800.815   -42809.565    135.50017   0.98416036 
   58500    223.79981    145.91261     126928.7   -40014.105    2784.4951     -42798.6    135.96487   0.98396572 
   58600    229.95576    10.796681    126694.55   -39976.442    2861.0869   -42837.529    135.87128   0.98578421 
   58700    229.72918    228.09674    126771.22   -39979.081    2858.2678   -42837.349     136.2853   0.98518803 
   58800    229.70008    180.07825    126737.76   -40044.514    2857.9057    -42902.42    136.88483   0.98544817 
   58900    221.29094    273.57908    126884.22   -40080.267    2753.2801   -42833.547      137.542   0.98431066 
   59000    223.98278    34.504511    126798.88   -40054.033    2786.7716   -42840.804    137.40984   0.98497316 
   59100    226.12514    224.10509    126509.83   -40044.491    2813.4267   -42857.918    137.60226    0.9872236 
   59200    224.80722    119.43757    126704.67   -40045.871    2797.0292   -42842.901    137.44524   0.98570554 
   59300    227.36726    78.579979    126568.56   -40035.677     2828.881   -42864.558    137.52725   0.98676553 
   59400    226.16243    282.86679    126607.73   -40087.378    2813.8906   -42901.269    138.06101   0.98646023 
   59500    222.29819    417.07018    126854.22   -40062.506     2765.812   -42828.318    138.50114   0.98454346 
   59600    227.26955    199.63446    127022.66   -40055.815    2827.6653    -42883.48    138.55129   0.98323786 
   59700    223.72144    158.05946    126815.51    -40079.24      2783.52    -42862.76    138.68787   0.98484398 
   59800    217.89009    307.35561    126989.84   -40070.888     2710.967   -42781.855    139.08036   0.98349197 
   59900    226.43949    166.02212    127065.18   -40055.619    2817.3377   -42872.957    139.46796   0.98290884 
   60000    223.34472    68.615082    126890.89   -40077.983     2778.833   -42856.816    139.32206   0.98425895 
   60100    221.59329    173.05379    126890.74   -40033.837    2757.0418   -42790.879    139.50321   0.98426005 
   60200    224.85205    242.20267    126858.14   -39998.103    2797.5869   -42795.689    139.77183     0.984513 
   60300    223.39988    83.395662    126802.54   -39944.584    2779.5193   -42724.103    139.96423   0.98494469 
   60400     229.5385      246.688    127017.76   -39900.717    2855.8953   -42756.612    140.60754   0.98327583 
   60500    226.92358    210.25244    127205.07    -39943.18    2823.3608   -42766.541    140.99458   0.98182791 
   60600    223.35048    332.71088    127286.49   -40008.337    2778.9045   -42787.242     141.4102   0.98119991 
   60700    226.28452    160.07705    127291.84   -40036.642    2815.4097   -42852.052    141.20236   0.98115863 
   60800    227.71052    155.86549    127176.07   -40009.436    2833.1518   -42842.588    141.19664   0.98205183 
   60900    228.60128    83.756083    127217.35   -40024.229    2844.2345   -42868.463    141.59939   0.98173313 
   61000     225.0231    186.01614       127078   -40069.321    2799.7152   -42869.036    141.69838   0.98280973 
   61100    226.22937    47.186371     126894.8   -40115.049    2814.7234   -42929.772    141.70872   0.98422861 
   61200    221.89164    254.27476    126900.13   -40107.998    2760.7538   -42868.752    141.88859   0.98418726 
   61300    220.64131    326.10596    127003.63   -40096.505    2745.1974   -42841.702    142.22513   0.98338523 
   61400    220.53856    246.04529    127032.95   -40111.572     2743.919   -42855.491    142.97989    0.9831582 
   61500    222.82714    194.61489    127187.22   -40093.216    2772.3932   -42865.609     143.2309   0.98196573 
   61600    226.95831    189.04307    127063.94   -40064.267    2823.7928    -42888.06    143.14774   0.98291849 
   61700    218.72401    281.77303    127083.53    -40136.44    2721.3424   -42857.783    143.67428   0.98276695 
   61800    219.58457    62.940214    127057.99   -40196.703    2732.0496   -42928.753    144.01809    0.9829645 
   61900    222.33778     295.2177    126888.37   -40135.776    2766.3047    -42902.08    143.82824   0.98427844 
   62000    224.45082    222.32204    127050.14   -40094.361    2792.5949   -42886.956     144.0658   0.98302521 
   62100    223.37357    127.76806    127026.92   -40105.403    2779.1918   -42884.595    143.99466   0.98320488 
   62200    220.08717    289.97814    126991.36    -40042.85    2738.3028   -42781.152    144.61254   0.98348026 
   62300    221.20033    137.05127    126933.96   -40058.497    2752.1526    -42810.65    144.87975   0.98392499 
   62400     222.8531     255.7827    126797.23   -39980.652    2772.7162   -42753.369    145.22252   0.98498596 
   62500    223.86772     241.8977     126842.9   -40003.029      2785.34   -42788.369    145.51333   0.98463134 
   62600    227.83793    182.57742    127108.02   -40005.184    2834.7369   -42839.921    146.10488   0.98257756 
   62700    223.80868    160.47432    127068.93    -40030.38    2784.6055   -42814.985    146.24033   0.98287983 
   62800    223.32367    183.48332    127152.84   -40014.069     2778.571    -42792.64    146.71503   0.98223122 
   62900    226.62982    411.92025     127032.3   -39975.555    2819.7058   -42795.261    146.83495   0.98316328 
   63000    227.86527    302.92512    127009.02   -39938.155    2835.0771   -42773.232    146.82839   0.98334347 
   63100    228.64997    304.45088    127018.15   -39919.712    2844.8403   -42764.552    147.22906   0.98327282 
   63200    226.03781    192.88194    127100.29   -39962.377    2812.3401   -42774.717    147.53756   0.98263733 
   63300    223.49989    255.62037    126932.49    -39993.42    2780.7635   -42774.183    147.82126   0.98393633 
   63400    227.12593    82.671989    126971.95   -39908.149    2825.8784   -42734.027    148.23279   0.98363053 
   63500    227.12439    241.65687    127069.82   -40014.305    2825.8593   -42840.164    148.48554   0.98287298 
   63600    225.02009    216.77633    126907.66   -40030.064    2799.6777   -42829.742    148.63618   0.98412888 
   63700    223.42239    168.49574    126844.46   -40034.377    2779.7992   -42814.177    148.59575   0.98461922 
   63800    220.28166    216.60955    126947.36   -40135.573    2740.7227   -42876.295    148.49886   0.98382113 
   63900    223.59923    154.37545    126899.02   -40131.081    2781.9995    -42913.08    149.32141    0.9841959 
   64000    223.01054    231.22121    126847.26   -40114.566    2774.6751   -42889.241    149.52556   0.98459744 
   64100      227.363    341.70092    127043.53   -40038.192     2828.828    -42867.02    149.62073   0.98307636 
   64200    224.20418    106.66108    127272.91   -40041.516    2789.5263   -42831.042    149.97342   0.98130463 
   64300    228.60427    304.79579    127278.61   -39938.069    2844.2718   -42782.341    150.30182   0.98126063 
   64400    226.47792     171.6642    127084.43   -39966.492    2817.8159   -42784.307    149.96454   0.98275995 
   64500     229.1747     354.9447    127015.27   -39972.266     2851.369   -42823.635    150.11331   0.98329506 
   64600    223.96154    166.12727    126968.59   -40018.185    2786.5074   -42804.693    150.16796    0.9836566 
   64700    227.04735     131.8899    126682.94   -40028.245    2824.9006   -42853.145    150.20631   0.98587458 
   64800    227.31689    268.48599     126644.8   -40051.874    2828.2543   -42880.128    150.38946   0.98617151 
   64900    220.83037     244.9725    126566.81    -40022.86    2747.5496    -42770.41    150.34072   0.98677917 
   65000    229.58058    260.68565    126704.85   -39997.937    2856.4189   -42854.356    150.96779   0.98570414 
   65100    223.45548    57.009395    126694.39   -40014.268     2780.211   -42794.479    151.01685   0.98578549 
   65200     227.8464    321.48218    126672.88   -39997.826    2834.8424   -42832.668    150.92697   0.98595286 
   65300    225.19534    172.87582    126705.82   -40001.314    2801.8581   -42803.172    151.18451   0.98569658 
   65400    226.94629    193.60247    126959.22   -39932.977    2823.6433    -42756.62    151.20105   0.98372919 
   65500    222.65221    218.08342    126648.08   -40004.057    2770.2168   -42774.274    151.49547   0.98614594 
   65600    222.55407    217.84704    126591.41   -40035.935    2768.9957   -42804.931    151.57553   0.98658743 
   65700    221.10395    376.18795    126810.34   -40078.996    2750.9535    -42829.95    152.02118   0.98488412 
   65800     223.5224    163.97707    126640.29   -40088.493    2781.0436   -42869.536    151.97704    0.9862066 
   65900    221.34847    347.87332    126704.86   -40041.003    2753.9958   -42794.999    152.71931   0.98570403 
   66000    223.77276    232.76577    126795.89   -39932.486    2784.1586   -42716.644     153.2264   0.98499637 
   66100    227.26547    212.68972     126669.3   -39853.354    2827.6145   -42680.969    153.31411   0.98598078 
   66200    226.39476    152.97765    126472.81   -39801.583    2816.7812   -42618.364    153.23939   0.98751259 
   66300     229.4969     322.1915    126640.62   -39838.416    2855.3778   -42693.793      153.754   0.98620402 
   66400    224.62385    257.75674    126726.71    -39870.23    2794.7478   -42664.977    154.30434   0.98553411 
   66500    223.87823    429.23824    126631.67   -39893.565    2785.4708   -42679.036    154.41523   0.98627373 
   66600    226.26834    141.82491    126474.77   -39915.381    2815.2084    -42730.59    154.53873   0.98749731 
   66700    222.42264    342.73274    126564.38   -39932.442    2767.3605   -42699.802    154.80808   0.98679808 
   66800    226.69889    290.90835    126730.05     -39881.3    2820.5652   -42701.865    155.30402   0.98550813 
[...]
   84600    220.55724    62.151144     126774.9   -40151.369    2744.1514    -42895.52    205.31275   0.98515946 
   84700    222.05092    234.83594    126982.85   -40160.557    2762.7356   -42923.293    206.21074   0.98354617 
   84800    223.62995    361.83126    126967.16   -40120.504    2782.3817   -42902.886    206.46093   0.98366764 
   84900    223.83522    185.50095    126821.31   -40097.447    2784.9357   -42882.382    206.78484   0.98479895 
   85000    227.64278    68.220993    127034.13    -40050.45     2832.309   -42882.759    207.48383   0.98314913 
   85100    224.63022    79.030954    126856.26   -40055.209     2794.827   -42850.036    207.80187   0.98452761 
   85200     224.1499    366.73906    126897.35   -40054.256    2788.8508   -42843.107    207.86009   0.98420879 
   85300    225.95486    139.48408    126678.77   -40079.535    2811.3081   -42890.843    208.09447   0.98590708 
   85400    225.38571    112.53229    126634.84   -40058.927    2804.2267   -42863.154    208.21536   0.98624903 
   85500    226.28258    145.11976    126523.95   -40022.545    2815.3855   -42837.931    208.49836   0.98711345 
   85600    228.27888    436.57122    126632.13   -39987.323    2840.2233   -42827.547    208.38115   0.98627016 
   85700    223.95296    271.42416    126798.94   -40036.042    2786.4006   -42822.442    208.80368    0.9849727 
   85800    228.08456    218.35781    126860.87   -40049.433    2837.8056   -42887.239    209.21006   0.98449186 
   85900    225.83903    307.61139    126736.72   -39955.987    2809.8669   -42765.854    209.59523   0.98545624 
   86000    224.73763    372.08663    126819.13   -40016.484    2796.1634   -42812.647    210.24192    0.9848159 
   86100    223.05804      138.009    126809.64   -40003.041    2775.2661   -42778.308    210.45974   0.98488956 
   86200     226.5745    285.00913    126748.17   -39973.377    2819.0175   -42792.394    210.45264   0.98536724 
   86300    226.54689    169.99225    126576.72   -40010.653    2818.6741   -42829.327    210.56024   0.98670193 
   86400    226.74367    144.23896    126862.45   -40033.808    2821.1223   -42854.931    210.95939   0.98447955 
   86500    223.99131    14.891893    126761.86   -40009.895    2786.8778   -42796.773    211.43244   0.98526076 
   86600    224.59709    87.214575     126707.9   -39950.267    2794.4148   -42744.682    211.96369   0.98568035 
   86700    224.82631    356.68074    126879.85   -39938.565    2797.2667   -42735.832    212.61894   0.98434458 
   86800    222.82378     252.1254    126880.15   -40004.834    2772.3515   -42777.185    212.52256   0.98434225 
   86900     225.5767    370.82047    127142.97   -39976.068     2806.603   -42782.671    212.95034   0.98230751 
   87000    228.57375    276.47589    127271.72   -39988.983     2843.892   -42832.875    212.95439   0.98131379 
   87100    219.57945    278.09005    127214.75   -40024.322    2731.9858   -42756.307    213.14755   0.98175326 
   87200    229.68729    245.25046    127227.25   -40017.283    2857.7465   -42875.029    213.54534   0.98165675 
   87300    224.22798    101.03212    127291.25   -40012.259    2789.8224   -42802.081    214.26409   0.98116324 
   87400    224.55848    72.653351    127130.47   -40027.307    2793.9344   -42821.241      214.234    0.9824041 
   87500    221.19349    144.50413    127198.31   -40025.613    2752.0676    -42777.68    214.50073   0.98188012 
   87600    226.26095    208.23781    126999.95    -40040.64    2815.1163   -42855.757    214.56568   0.98341367 
   87700    224.08453    231.29923    127174.86   -40041.463    2788.0375     -42829.5    215.31329   0.98206119 
   87800    228.03121     324.9757    127224.97   -40019.537    2837.1417   -42856.678    215.45074   0.98167438 
   87900    220.42371     151.1796    127193.57   -40035.153      2742.49   -42777.643    216.63409    0.9819167 
   88000    223.61854    188.13442    127119.26   -40052.402    2782.2398   -42834.642    216.61657   0.98249072 
   88100    223.50337    187.59771    127042.54   -39986.394    2780.8068   -42767.201    216.59533   0.98308405 
   88200    228.84685    143.20433    127039.21   -39953.958    2847.2899   -42801.248    216.97219   0.98310978 
   88300    227.58148    282.13207    127132.81   -39994.052    2831.5463   -42825.599    217.37558   0.98238599 
   88400    222.45578   -15.627149    127384.03   -40109.686    2767.7728   -42877.459    217.51974   0.98044857 
   88500    226.46208    410.39711     127405.6   -40019.999    2817.6188   -42837.617    218.05172   0.98028258 
   88600    223.80964    185.75027    127379.22   -39978.529    2784.6174   -42763.147    218.62987   0.98048557 
   88700    223.38567    95.241589    127312.28   -39949.956    2779.3425   -42729.298     219.0267    0.9810011 
   88800    226.38195    239.30569    127030.41   -39874.867    2816.6218   -42691.489    218.55429   0.98317788 
   88900    225.05984    352.00146    127149.17    -39909.56    2800.1723   -42709.732    218.74706    0.9822596 
   89000    225.87219    76.644539     127167.8   -39895.335    2810.2794   -42705.614    219.25898   0.98211566 
   89100    222.92806    129.71874     127228.7   -40001.721    2773.6489    -42775.37    219.43067   0.98164559 
   89200    225.62172    365.44621    127277.76   -40040.612    2807.1631   -42847.775    219.77461   0.98126718 
   89300    225.60938    99.078336    127340.44   -40071.742    2807.0096   -42878.752    219.62485   0.98078417 
   89400     225.7649    155.87109    127027.23   -40107.582    2808.9445   -42916.527    219.73698    0.9832025 
   89500    223.98013    248.86706    127133.42   -40150.554    2786.7386   -42937.292    220.42374   0.98238131 
   89600    220.27402    343.41708    127146.42   -40189.665    2740.6276   -42930.292    220.59835   0.98228085 
   89700     221.8108    246.61173    127089.39   -40146.302     2759.748    -42906.05    220.67814   0.98272159 
   89800    221.07467    93.754342    127068.13   -40111.502    2750.5892   -42862.092    220.51535   0.98288604 
   89900    221.22404    93.950119    126818.65   -40153.865    2752.4476   -42906.313    220.62631   0.98481963 
   90000    228.05885    366.61411    127030.75   -40064.087    2837.4856   -42901.573    220.81245   0.98317526 
   90100    224.34128   -12.148115    126943.63   -40090.322    2791.2321   -42881.554    221.05511   0.98384998 
   90200     220.8829    306.88386    127064.22   -40120.867    2748.2032    -42869.07    221.46136   0.98291626 
   90300    226.48167     180.7521    126980.36   -40136.984    2817.8625   -42954.846    221.86196    0.9835654 
   90400    228.07711    162.95289    126929.36   -40140.572    2837.7128   -42978.285    222.29954   0.98396065 
   90500     223.7599    208.58733    127079.14   -40117.788    2783.9986   -42901.787    222.34964   0.98280087 
   90600    229.39115    231.37983    127391.74    -40039.89     2854.062   -42893.952    223.12516   0.98038927 
   90700    226.58538    305.55673    127444.19   -40031.151    2819.1529   -42850.304    223.41302   0.97998574 
   90800    222.66779    40.371011    127326.09    -40074.25    2770.4107    -42844.66    223.26344   0.98089473 
   90900    217.89035    218.33791    127268.93   -40166.174    2710.9702   -42877.145    223.44862   0.98133526 
   91000    221.65324     272.2826    127136.52   -40182.729    2757.7877   -42940.517    223.69449   0.98235732 
   91100    221.65181    283.40967    127078.12   -40183.097    2757.7699   -42940.867    223.87915   0.98280878 
   91200    218.81096    370.44279    127192.73   -40145.327    2722.4243   -42867.752    224.33653   0.98192317 
   91300     227.8125    449.86179    127378.08    -40061.83    2834.4207   -42896.251    224.21349   0.98049438 
   91400    228.70508     228.5998    127404.22   -40059.476     2845.526   -42905.002    224.54852   0.98029317 
   91500    226.01092    192.03274    127412.05   -40058.798    2812.0055   -42870.804    224.91959   0.98023298 
   91600    223.61277    193.71578    127417.27   -40096.113     2782.168   -42878.281    225.57043   0.98019278 
   91700    219.16612    198.44482    127192.25   -40157.194    2726.8432   -42884.037    225.27352   0.98192693 
   91800    224.09267    210.64714    127338.57   -40105.409    2788.1388   -42893.548    225.60261   0.98079862 
   91900    224.69473    280.83455     127621.1   -40110.909    2795.6297   -42906.539      225.796   0.97862729 
   92000    223.16941    254.22192    127660.26   -40120.858    2776.6518    -42897.51    226.40226   0.97832712 
   92100    218.27268    285.46236    127496.68   -40155.864    2715.7271   -42871.591    226.53672   0.97958231 
   92200    225.38738    80.657968    127428.14   -40097.892    2804.2475    -42902.14    226.87906   0.98010921 
   92300    226.84342    137.80306     127318.5   -40011.775    2822.3634   -42834.139    226.76308   0.98095319 
   92400    226.40271      296.267    127536.23   -40023.201    2816.8801   -42840.081    227.43219   0.97927849 
   92500    229.09055    123.86558    127492.21    -40064.02     2850.322   -42914.342    227.53944   0.97961662 
   92600    225.66701    60.577923    127610.26   -40029.975    2807.7266   -42837.701    227.57117   0.97871045 
   92700    227.95598     161.9924    127417.27   -40008.464    2836.2058   -42844.669    227.62503   0.98019277 
   92800    226.33525    103.85468    127218.98   -40065.539    2816.0408    -42881.58    227.50736   0.98172056 
   92900    226.41361    374.54405    127298.88    -40032.32    2817.0158   -42849.336    227.57839   0.98110441 
   93000    224.81694    115.98109    127415.78   -40074.441    2797.1501   -42871.591    228.51454   0.98020428 
   93100    226.28509    95.997423       127181    -40023.38    2815.4167   -42838.797     228.8423   0.98201374 
   93200     227.9714    130.53617    127169.38   -40044.626    2836.3977   -42881.023    229.34071   0.98210349 
   93300    226.29999    51.241751     127226.6    -40068.51    2815.6021   -42884.112    229.53658   0.98166177 
   93400    222.39373     178.0825    127344.39   -40095.654    2767.0008   -42862.655    229.91808   0.98075377 
   93500    220.64164    184.90534    127250.75   -40128.442    2745.2015   -42873.644    230.27438   0.98147548 
   93600    219.73834    18.546208    127188.07   -40190.448    2733.9627    -42924.41    230.53765   0.98195915 
   93700    221.31161    178.82042    127413.89   -40161.727    2753.5372   -42915.264    230.89737   0.98021877 
   93800    226.73792    150.90255    127410.38   -40153.727    2821.0508   -42974.778    231.51639    0.9802458 
   93900    225.15936    132.40049    127593.86   -40142.016    2801.4105   -42943.426     231.8292   0.97883625 
   94000    225.15528   -0.2840617    127550.43   -40142.293    2801.3597   -42943.652    231.75815   0.97916952 
   94100    220.02166    159.76314    127471.67   -40147.147    2737.4877   -42884.635    232.33906   0.97977448 
   94200    223.02958    136.21323    127694.47   -40142.592    2774.9119   -42917.504    232.70826   0.97806499 
   94300    225.98901    340.79512    127772.48   -40120.334     2811.733   -42932.067    232.96879   0.97746783 
   94400    224.65987    28.079222    127579.24   -40110.052    2795.1959   -42905.248    233.03675   0.97894842 
   94500    225.61545    38.480668    127489.18   -40049.205    2807.0851    -42856.29    232.94802   0.97963989 
   94600    230.22119    426.33953    127366.49   -40086.824    2864.3893   -42951.213    233.11342    0.9805836 
   94700    228.06554    292.00495    127433.59   -40134.305    2837.5689   -42971.874    232.97078   0.98006724 
   94800    227.97476    313.34122    127411.01   -40129.497    2836.4394   -42965.937    233.69324   0.98024095 
   94900    228.01272    130.30922    127448.08   -40099.074    2836.9117   -42935.986    233.74989   0.97995584 
   95000    227.17948    249.35857     127226.6    -40084.38    2826.5446   -42910.925    233.81642   0.98166176 
   95100    224.16873    215.64467    127292.95    -40052.02    2789.0852   -42841.106    234.06453    0.9811501 
   95200    228.21213     36.56286    127215.36     -40089.2    2839.3928   -42928.593    233.50706   0.98174849 
   95300    229.36756    82.747264    127186.61   -39970.409    2853.7685   -42824.177    233.45856   0.98197041 
   95400    225.11902    181.23033     127303.7   -40031.505    2800.9086   -42832.414    234.09184   0.98106724 
   95500    220.43817    281.42463    127231.88   -40034.686      2742.67   -42777.356     233.8967   0.98162101 
   95600    228.47251    194.15811    127224.34   -40028.922    2842.6324   -42871.554    234.71938   0.98167919 
   95700    223.83756    190.53696     127177.5   -40082.445    2784.9648    -42867.41    234.79574   0.98204082 
   95800    221.13325    172.03994    127233.87   -40133.858     2751.318   -42885.176    235.51795   0.98160572 
   95900    225.25542     224.9881    127004.68    -40082.81    2802.6057   -42885.416    235.42557   0.98337707 
   96000    219.00094    385.54964    126991.43    -40145.79    2724.7881   -42870.578    235.68036   0.98347969 
   96100    223.86038    151.45318    127140.58   -40081.511    2785.2487   -42866.759    236.21187   0.98232598 
   96200    221.79218    288.65666    127123.05   -40110.837    2759.5164   -42870.353    236.39738   0.98246143 
   96300    227.64329    260.89503     127371.1   -40064.361    2832.3153   -42896.677    236.84446   0.98054809 
   96400    223.62697    181.89617    127155.04   -40037.681    2782.3447   -42820.025    236.49272   0.98221424 
   96500    224.16391    136.68285    127236.67   -40092.343    2789.0253   -42881.368    237.07209   0.98158408 
   96600    224.33514    216.84088    127049.83   -40097.968    2791.1556   -42889.123    237.28268   0.98302758 
   96700    218.26355    187.76964    127137.09   -40176.343    2715.6136   -42891.956    237.39321   0.98235289 
   96800    219.30549    308.89409    127102.52   -40230.823    2728.5772     -42959.4    237.63197   0.98262011 
   96900    223.16279    193.04528    127187.53   -40173.794    2776.5694   -42950.364    237.86291   0.98196336 
   97000    223.51101    82.426167    127195.95   -40171.142    2780.9019   -42952.044    238.72509   0.98189834 
   97100    224.52838    256.86789    127274.21   -40173.974    2793.5598   -42967.534    239.16401   0.98129454 
   97200    220.48711     272.0376     127244.2   -40173.693    2743.2789   -42916.972    239.73582   0.98152604 
   97300    224.01389    111.01208    127033.34   -40154.491    2787.1587    -42941.65    239.81114   0.98315519 
   97400    221.79122    321.55766    126987.69   -40166.561    2759.5044   -42926.065    239.82953   0.98350862 
   97500    223.75053    219.19635    126979.75   -40062.529    2783.8819   -42846.411    240.13552   0.98357018 
   97600    224.44057    60.820559     127013.5   -40136.069    2792.4674   -42928.537     240.0602   0.98330876 
   97700    224.23545    183.65514    127054.47   -40063.715    2789.9153    -42853.63    240.72099   0.98299175 
   97800    224.17576    407.00701    127282.57   -40034.828    2789.1726       -42824    240.79211   0.98123013 
   97900    229.69333    9.0984961    127356.79   -39994.849    2857.8217    -42852.67    240.69241   0.98065826 
   98000     224.5821    298.14199    127412.79   -40020.696    2794.2283   -42814.925    241.18367   0.98022728 
   98100    223.97796    160.18607    127422.94   -40091.898    2786.7116   -42878.609     241.8222   0.98014919 
   98200    221.82518    322.61039    127436.38   -40080.155    2759.9269   -42840.082    241.96647   0.98004584 
   98300    221.57652    220.10562    127469.75   -40096.647    2756.8331    -42853.48    242.07617   0.97978929 
   98400    222.59351    284.72662    127470.15    -40098.18    2769.4864   -42867.667    242.45492   0.97978621 
   98500    223.97412    295.46772    127677.99   -40106.075    2786.6638   -42892.739    242.73944   0.97819122 
   98600    224.60338    137.85536    127413.99   -40133.901     2794.493   -42928.394    243.06222   0.98021807 
   98700    219.57373    209.31384    127237.91   -40187.396    2731.9146   -42919.311    243.07798   0.98157452 
   98800    219.37033    154.80265    127292.51   -40150.254    2729.3839   -42879.638    243.92771    0.9811535 
   98900    220.24549    345.67938     127346.3   -40139.505    2740.2726   -42879.778    244.55384   0.98073907 
   99000    222.07284     157.1448    127480.04   -40182.685    2763.0083   -42945.693    244.45387   0.97971013 
   99100    227.65049    489.80474    127540.21   -40108.753    2832.4049   -42941.158    244.69981   0.97924797 
   99200    224.26421     212.1956    127482.44   -40112.933    2790.2731   -42903.206    245.10634   0.97969173 
   99300    225.87623    64.546221    127430.96    -40073.15    2810.3297   -42883.479    245.61983   0.98008748 
   99400    221.95163    222.63351    127474.54    -40042.37    2761.5002    -42803.87     246.2435   0.97975247 
   99500    227.37118    178.53867    127530.95   -39919.497    2828.9297   -42748.426    246.31221   0.97931904 
   99600    233.73092    127.58288    127336.43   -39951.648     2908.057   -42859.705    246.51981   0.98081506 
   99700    233.54392    51.048906    127263.31   -39962.286    2905.7304   -42868.017    246.30932    0.9813786 
   99800    226.60541    292.13819     127179.4   -40014.244    2819.4021   -42833.646    246.12805   0.98202613 
   99900    226.93072    142.95259    127252.87   -40087.402    2823.4496   -42910.852    246.60856   0.98145912 
  100000    225.06717    158.28127    127032.52    -40108.01    2800.2635   -42908.273    246.78044   0.98316159 
  100100    226.59115     257.7573    127111.66   -40029.799    2819.2247   -42849.023    247.08731   0.98254941 
  100200    233.73148    255.75538    126996.45   -40053.048    2908.0639   -42961.111    247.20913   0.98344078 
  100300    224.23756    365.60712     127004.5   -40043.923    2789.9415   -42833.865    247.33335    0.9833785 
  100400    226.86882    91.696282    127082.44   -40076.032    2822.6795   -42898.711    247.70526   0.98277533 
  100500    229.40042    291.11988    127319.45   -40004.245    2854.1774   -42858.423    247.90126   0.98094588 
  100600    224.27572    247.61853     127284.2   -40091.812    2790.4164   -42882.228    248.33394   0.98121758 
  100630    223.38142    164.22473    127168.59   -40075.728    2779.2895   -42855.017    248.18945   0.98210956 
Loop time of 94.3557 on 6 procs for 100000 steps with 4175 atoms

Performance: 457.842 ns/day, 0.052 hours/ns, 1059.819 timesteps/s
98.7% CPU use with 6 MPI tasks x no OpenMP threads

MPI task timing breakdown:
Section |  min time  |  avg time  |  max time  |%varavg| %total
---------------------------------------------------------------
Pair    | 76.407     | 78.158     | 81.749     |  20.0 | 82.83
Neigh   | 5.2532     | 5.2662     | 5.288      |   0.5 |  5.58
Comm    | 4.7394     | 8.3427     | 10.118     |  61.6 |  8.84
Output  | 0.15918    | 0.15993    | 0.16343    |   0.4 |  0.17
Modify  | 1.7724     | 1.7898     | 1.8028     |   1.0 |  1.90
Other   |            | 0.6393     |            |       |  0.68

Nlocal:        695.833 ave         704 max         691 min
Histogram: 1 1 2 0 0 0 1 0 0 1
Nghost:        1502.00 ave        1533 max        1485 min
Histogram: 2 1 0 0 1 1 0 0 0 1
Neighs:        0.00000 ave           0 max           0 min
Histogram: 6 0 0 0 0 0 0 0 0 0
FullNghs:      19787.3 ave       20067 max       19559 min
Histogram: 2 0 1 1 0 0 0 0 0 2

Total # of neighbors = 118724
Ave neighs/atom = 28.436886
Neighbor list builds = 5693
Dangerous builds = 0

undump              1
unfix               2
unfix               3
unfix               4


################################################
#######         Run Simulation         #########
################################################

reset_timestep      0
log                 log.run_${NAME}
log                 log.run_liquid_density_MLmW
