LAMMPS data file via write_data, version 29 Oct 2020, timestep = 800000

4175 atoms
1 atom types

-0.653750484306844 50.65375048430215 xlo xhi
-0.653750484306844 50.65375048430215 ylo yhi
-0.653750484306844 50.65375048430215 zlo zhi

Masses

1 18.015

Atoms # atomic

2966 1 0.5683256201543447 1.1789812692118775 -0.15997111305001643 1 0 1
480 1 5.387303278157272 0.9520724919954817 1.1030674043645594 0 0 1
18 1 8.202181445049874 0.9871487517275086 1.301949280610232 0 0 0
1942 1 13.110733438378213 -0.2599172680447104 0.7191070168941651 0 1 0
3305 1 13.763443355115928 2.0722055464386835 2.60665371082633 0 1 0
1177 1 20.097275727729237 0.0641991847391612 1.3778620203755185 0 1 0
969 1 18.019179634646456 0.5610643634268924 -0.46764121543782633 0 1 1
3827 1 24.763192808298992 0.9635405906177714 1.1947519519332095 0 1 0
1096 1 27.027484082154523 1.9079909201836238 0.5413560286403594 0 0 0
2862 1 28.121565715701205 0.006900194042261831 50.17112608126183 0 1 0
3149 1 30.74047081477664 0.9135820367637171 -0.011424731571687774 0 0 0
1554 1 31.944172980520054 -0.043713757257993535 2.2529817857396592 0 0 1
125 1 36.548114033730585 -0.04913731558200951 0.7994848382682385 0 1 1
939 1 38.93701978068428 1.3261788509827181 0.7336083220336467 0 0 0
1172 1 43.95380443505783 1.6102910896228995 1.1491770363827942 0 0 1
3232 1 47.89352367424267 1.0957945373023494 2.1790452221592362 0 0 0
1705 1 10.645189144367116 5.237853352793588 0.1179679228800492 0 0 1
2811 1 15.85066216813506 2.264690881391519 0.920242363701659 0 0 1
3325 1 16.664482218719968 4.64506313256463 1.611736684970111 0 0 1
3682 1 19.448710389435337 4.488901921885653 1.4944629891101116 0 1 1
3262 1 20.50570624757016 2.2862054982774493 2.85983843357254 0 1 0
1572 1 32.6150781037384 4.318425936635236 0.6971923468567567 0 0 0
2560 1 29.948361511712758 4.862273472364701 1.8673217528483463 0 0 0
150 1 34.43214262181776 3.8975461127353705 2.821441145602366 0 0 1
2191 1 36.159506999115365 4.8283603779362085 0.3216238609412585 0 0 0
3145 1 38.63619074495796 3.731151504279885 -0.33547728984999214 0 0 1
1808 1 46.38914752865553 2.9947706007973247 0.9544513369299901 0 0 0
2551 1 50.05887671396786 2.636435811740034 1.0740645354382083 0 0 0
1972 1 2.8549373642111178 5.609974528405741 -0.13041913824304574 0 0 0
1235 1 6.731573696178356 7.346930484703062 1.3205900407332973 0 0 1
1812 1 9.408169719776186 7.8025995461682776 0.4862499130398159 0 0 1
3111 1 15.127761688678083 6.589505940170218 0.06649019398174061 0 0 0
4023 1 20.935085231556222 6.611828992570808 2.191563268601234 0 0 0
1427 1 23.295444301461643 5.418307365700936 1.7722613624026224 0 0 0
606 1 24.311303388418008 5.567767146015978 50.63740073638772 0 0 -1
4125 1 28.555930899875158 6.469559251755741 0.0671683820381721 0 0 0
2242 1 27.066888642370053 8.273471837372634 1.6607142801204584 0 0 0
2129 1 32.67074958066064 7.103757838186823 0.09069752638095685 0 0 1
3430 1 41.89342162456383 6.928357542222128 1.1809657670632447 0 0 0
341 1 45.97223556173769 8.01652621645387 1.6894021742965513 0 0 0
3751 1 0.6412746621924297 9.792054928355341 2.0750047878436755 1 0 0
3774 1 1.5391527581648279 9.912455964720015 -0.3386058482685635 1 0 1
52 1 4.082138188627502 10.563789838561258 0.25278279981274554 0 0 1
2585 1 4.650194671225923 9.081213378993898 2.4144369593202875 0 0 0
658 1 12.783966298501173 9.906162506360147 1.740538227743992 0 0 0
2753 1 17.0813512270506 10.228901913644957 2.2863809974257836 0 0 0
3040 1 14.77737897984724 8.329236596082598 2.2656036623018805 0 0 1
3986 1 18.113070011014006 9.720482059887525 0.0055960155236800535 0 0 0
79 1 20.68007015006704 8.894904033111146 0.6185379301527472 0 0 1
488 1 22.178993973070835 11.073584674485494 1.3727365822026893 0 0 1
809 1 24.813480654188222 11.275233126460911 0.2819504454551688 0 0 1
2132 1 31.81688249111072 11.37549770052527 -0.22294447930284073 0 0 1
2459 1 32.81231000830843 9.399684498601852 1.208272400083469 0 0 0
2491 1 35.403686641297455 9.896005289640815 2.321384704609675 0 0 0
2183 1 36.372254002209175 9.14038272327863 -0.24383509781179613 0 0 1
164 1 39.077573502632745 9.259707778838187 -0.10030563923982139 0 0 0
1764 1 40.402884828350224 9.013657138964 2.228908974162203 0 0 1
1999 1 41.48410787179624 11.742867112955766 2.054711241107962 0 0 0
3493 1 43.98054101796056 8.394861187876087 0.011488551203554076 0 0 1
1558 1 43.40541679833261 10.878511606377613 0.2618858072749801 0 0 0
348 1 48.30225507039317 8.6869162080881 0.4056812043775764 0 0 0
714 1 4.276376046794454 13.310986230263849 1.4180527780707264 0 0 0
2450 1 8.594716703767245 13.168796691581171 1.3891617257478965 0 0 1
3487 1 12.855803670333323 13.521660637944523 -0.5145156826639297 0 0 1
307 1 15.646159759163048 14.218140053022788 -0.11743037569193415 0 0 0
594 1 20.586013784943447 13.148974502272775 0.8040938762949932 0 0 0
3696 1 25.48744243022912 14.035769800438985 0.36671577471478356 0 0 1
717 1 29.98784131266838 13.189442537255603 0.6818039748785476 0 0 0
1596 1 34.938714095190775 14.351694599510902 1.1759517154670396 0 0 0
308 1 39.19172523822709 13.79107188521111 1.01325279173694 0 0 0
234 1 45.89021475879096 12.446847375600596 0.9956572517313986 0 0 0
2021 1 0.23079554242580158 14.595164170550156 1.43997049715203 0 0 0
1486 1 2.5314922571256075 14.831835806617338 0.0702998151107408 0 0 0
3302 1 3.806836189970081 17.244449347799776 -0.29502932584384434 0 0 1
385 1 6.512307882214493 14.853885938629768 1.5477824510881781 0 0 0
255 1 6.304213764459046 16.477255507967943 -0.5107159642008781 0 0 0
1668 1 11.326677976631093 14.081026780331559 1.6618190700342645 0 0 0
2765 1 15.673122803885438 17.204760044583526 -0.4256559672073038 0 0 1
2651 1 19.671541997118045 16.827724283383922 2.5468126692794915 0 0 1
2484 1 21.77941077807586 15.455721793027386 -0.40074244966212674 0 0 0
3506 1 22.535865522644823 17.484355118215014 1.3683413686001415 0 0 0
2526 1 25.408932029402404 16.497020560906304 1.7679948874887712 0 0 1
2981 1 30.469815131708568 15.911570645715766 1.0924939532731854 0 0 0
2281 1 32.99106304656975 16.009070644848578 2.0978310656834513 0 0 1
629 1 37.42343336831139 15.66567699219799 0.11433445396317121 0 0 0
2453 1 41.32185833174593 15.945189009965109 2.15848549436917 0 0 1
1360 1 46.758925882689866 15.11433595872211 0.27786935642390165 0 0 0
3926 1 49.489077490808285 14.708170380594934 -0.49671572193994296 0 0 1
1454 1 0.8942639140689419 18.846094083722356 2.153104039791965 1 0 1
4064 1 3.590671550594349 18.880418257938885 1.9840463476894694 0 0 1
4111 1 7.589358307397893 18.733564532233203 -0.4966559312312917 0 0 1
1135 1 8.01669169938443 20.034929219620025 2.041064188909981 0 0 0
793 1 11.676681023232199 16.98140364631861 2.1065744800193613 0 0 0
2156 1 14.353558791087462 17.309473649602218 2.195663094576965 0 0 0
186 1 18.45647250963884 17.83233238950196 0.22508771153821028 0 0 1
2977 1 23.35199826342504 19.35099074227657 -0.4188897521272934 0 0 0
3237 1 25.54345756863213 19.60820929316441 1.2356135456249202 0 0 0
907 1 27.37801643129799 17.91685583004884 50.54835873759721 0 0 0
861 1 33.62700780151117 18.497998125755082 1.0455939481491037 0 0 0
987 1 36.39091037381691 18.180945141495368 0.9225691725136635 0 0 0
3890 1 39.76742172063699 19.625394342656207 0.8292292742558749 0 0 1
3790 1 46.73178941827139 19.70615371148312 2.232759446117856 0 0 0
1710 1 50.393207775001926 19.022652571351127 -0.1218974803352385 -1 0 0
1199 1 0.647574173424879 24.06597731949109 0.3161325172150672 0 0 0
748 1 5.382039388116482 21.1024389399862 1.7109387087184431 0 0 1
3185 1 11.341178587229107 21.162847947973237 -0.00613751204875268 0 0 0
2428 1 9.955906957105784 21.94879336267369 2.3066216783766795 0 0 1
2384 1 14.06539865269135 21.585164658513648 0.22886977584995893 0 0 1
2083 1 17.788292983487185 20.707886283043514 2.1239941539336984 0 0 1
4099 1 19.14754380525066 23.11704633979657 0.42697751353936075 0 0 0
489 1 26.253140616715747 22.214030128553524 0.7415614143798217 0 0 0
1532 1 30.1894079039674 20.91203775274127 0.7912973285096099 0 0 0
1771 1 32.05064467963339 22.834839748310163 0.5910104489740855 0 0 0
2257 1 37.33252282799047 23.094844956018115 1.4870161144114609 0 0 0
2334 1 39.93433851317998 22.090442479942773 1.810362565060839 0 0 0
135 1 44.692704889212294 20.57040774235236 0.4750310049358675 0 0 1
1948 1 43.9309698967856 23.04217156599812 1.1854042612330382 0 0 0
3585 1 49.99021425995811 21.807967970235765 -0.24783915226121944 0 0 0
3766 1 50.28448807009042 27.37411044386677 50.61489609016882 -1 0 0
3035 1 3.971818827766903 26.329667035184784 -0.21209630057729867 0 0 0
2389 1 9.481948121539304 25.752306069542897 0.5579163697819911 0 0 0
3215 1 14.099681861411518 24.393487764115157 0.8663905093211743 0 0 0
3441 1 12.187362146891813 26.319327364889038 0.521340156069209 0 0 0
2820 1 16.838604204873278 24.945770144867094 0.2502124628493171 0 0 1
549 1 20.995445792187788 25.402453817398914 -0.04487071124508335 0 0 0
1187 1 23.359998728391947 24.015996714733763 -0.5245967598547766 0 0 1
3104 1 31.120976088997796 25.390187603940443 0.7507475104624912 0 0 0
273 1 36.16097801023071 25.72078150961898 1.635978337496843 0 0 1
242 1 40.64270501940102 26.44010824906382 1.792091964146914 0 0 1
3379 1 41.55125714710928 23.98945461120253 0.47104543466018645 0 0 0
295 1 45.85122179206431 24.79801934622253 1.1437066597224037 0 0 0
69 1 49.911697870089654 25.76281923333521 1.611154284042727 -1 0 0
1183 1 8.710945568128771 28.34229686640465 0.42405291549674984 0 0 1
71 1 5.958823922515685 28.383924715784552 -0.6189128895538631 0 0 0
3793 1 12.908237567823125 29.13751417604228 0.4842126611533899 0 0 0
1461 1 22.672987512187362 27.21445028436634 1.5946909436054022 0 0 0
3216 1 24.33903002335062 27.60634253462386 50.448697339637434 0 0 0
2697 1 33.501921769012455 26.390935515589934 0.5037527207792165 0 0 1
2286 1 32.806796446765134 28.865778922321358 1.7250724310389653 0 0 0
30 1 38.15054385041091 27.320605300132453 0.48888839960915575 0 0 1
1893 1 42.54984991237593 27.969015926938656 1.0787383571659106 0 0 0
865 1 46.68857800034593 29.30263200140444 2.329052511971829 0 0 0
3906 1 48.93458394323318 27.855043314355967 3.250037467055378 0 0 0
3014 1 4.966345234682699 30.7257189000876 0.18656717681731272 1 0 0
2626 1 9.796356073949791 32.34931086245041 -0.08507655739689457 0 0 1
1688 1 17.416608398368773 30.872941151421504 0.49521317038059065 0 0 0
522 1 21.952139862688117 30.010037065614906 1.6376374490471037 0 0 1
3634 1 21.37382212120862 30.844336935321465 50.4908985187116 0 0 -1
2784 1 26.48913694348357 30.952854709673062 0.8661610837202407 0 0 0
926 1 30.830215950686885 29.9762666897065 0.44297079470626155 0 0 0
2545 1 31.897350032893538 32.3427181144157 -0.20222523548600158 0 0 0
3741 1 35.300442863764815 30.130299279190055 1.3996035962540887 0 0 0
3961 1 38.000769844235236 29.536210631692242 2.0970918691198768 0 0 0
3110 1 39.8192686144167 31.22344809996465 1.033617376349129 0 0 1
3187 1 42.31068719815262 30.59370294846307 2.23733301082972 0 0 0
2348 1 46.802774659410716 30.15923208443275 -0.14119002507740153 0 0 0
3355 1 50.59446913701177 31.306733230985575 1.52664498705929 -1 0 0
2846 1 1.4541920402272055 33.598324630771046 1.860497033058167 0 0 0
4 1 3.658701770179028 35.321547939403544 1.7682770234114904 0 0 0
1034 1 7.005594303310347 32.5581532455618 -0.4038376435219748 0 0 1
3181 1 6.27258642047884 34.12337733694223 1.6630657298346052 0 0 1
3875 1 11.370500105224098 34.40545114942127 50.317288662837115 0 0 0
3435 1 15.519209020735879 34.315530951901565 0.9768245994873614 0 0 1
2740 1 18.22692150956993 33.77864243287823 1.6291635803113964 0 0 0
924 1 23.35175368040975 34.98765892463409 1.0466634606880296 0 0 0
1563 1 21.291810244092986 35.231113143606464 50.441317139360265 0 0 0
337 1 25.384536783247892 35.009331231267325 50.63488686143269 0 0 -1
3802 1 27.380131719562247 33.45319113102924 0.48429374820168447 0 0 0
1986 1 32.77398398645566 33.42273458114519 2.1943588420887563 0 0 1
1521 1 37.85307919321072 34.7663851624319 -0.45940214261185686 0 0 0
397 1 38.992298128462664 33.45659971769412 1.7499582255265405 0 0 0
2672 1 44.045011758610016 32.977175851472154 1.0923812047833426 -1 0 1
3330 1 42.585489626060976 34.6676897157668 -0.37822545460799684 0 0 1
2265 1 46.5020669229998 32.868165207327564 -0.08232785614082416 0 0 1
3404 1 50.51479654154464 35.07444700779537 2.662590570969974 -1 0 0
2291 1 48.498139125403924 33.081619361035536 2.273367196322252 -1 0 0
169 1 8.391341282855185 35.87237222663319 2.3997405503082803 0 0 0
4068 1 7.097069058818512 38.39289957091023 1.5763714447848356 0 0 1
1085 1 10.915929301273513 35.96250106318645 1.1719676992566719 0 0 0
495 1 12.20146572705523 38.41376333037694 0.48267112285696157 0 0 0
2763 1 14.58826941498358 38.3819054322238 1.6981261924224915 0 0 0
2282 1 16.452165104452984 36.854288276254735 -0.05137638193259131 0 0 0
3644 1 19.208492029142814 37.03490674950021 -0.26250001593243866 0 0 1
90 1 26.0884539320758 37.71451374257158 -0.5411812629111344 0 0 0
2857 1 31.102719763734417 36.97074004879019 0.7018094574414273 0 0 0
1662 1 33.651240358601655 35.74264197904873 1.41988342405977 0 0 0
2903 1 40.93428134818731 35.41890871040172 2.073373769208519 0 0 1
271 1 39.35482531062239 37.88068682052926 2.7268851918572667 0 0 0
4140 1 46.71313242338019 35.780996068417096 0.11487448521434618 0 0 1
2233 1 45.64475934545864 36.68274343975523 2.697075891550002 0 0 0
2943 1 49.32329624369349 36.766482451247256 1.0885179871491542 0 0 0
1163 1 -0.21312929613001746 39.02597599987443 0.7571285799123286 1 0 1
3204 1 2.4304801767636777 39.29356874960436 1.3721567232178278 0 0 1
3888 1 11.783623199890965 40.900915240911885 1.5797035429430366 0 -1 1
2213 1 15.80749493111919 40.70172455422434 2.157483463631416 0 0 0
729 1 19.934662402159102 39.64795079301595 0.2722094867683129 0 0 0
4034 1 17.778859954247213 41.70633671255395 0.4631236949488442 0 0 0
2895 1 22.112535122805443 40.103202333085406 1.9241626641717446 0 0 0
189 1 24.17534826615516 39.80886306769146 -0.3514407936981164 0 0 1
2363 1 31.248185539836584 39.811872546475485 0.46054954232094425 0 0 0
217 1 33.94975393402268 40.414200991207295 0.7365573068767461 0 0 0
261 1 44.00697459172045 38.781119834454856 1.9492301871240638 0 0 1
1327 1 45.401985416006056 40.9561852744784 2.1214745327778513 0 0 0
4109 1 50.130848479294315 40.62681809698881 2.6816006068863905 0 0 0
3877 1 1.2331313527647905 43.521589157278925 1.4620148937622859 0 0 0
3239 1 9.280367506277013 42.27454302754647 1.3739665915410382 0 0 1
3283 1 21.018280442875604 44.606801668690025 1.407212313786609 0 0 0
3849 1 25.95717455024656 41.796351762603976 0.663455000628808 0 0 0
3212 1 24.782229667388382 43.90357757798711 2.090977584383455 0 0 0
2810 1 30.283871931494577 43.96262708482193 1.7040534279927284 0 0 0
1279 1 34.26026399100476 42.9467578472306 -0.4773186674998552 0 0 0
1056 1 38.67136318033269 42.38594151019022 2.1707103658688753 0 0 0
1865 1 37.066284401719116 43.59456495131582 -0.03624017442419003 0 0 1
1702 1 41.55534534234846 43.07181819299558 2.068851405589561 0 0 0
2051 1 42.309485791729685 42.3299207277136 -0.3111336360700284 0 -1 0
3108 1 49.63364802909234 43.06757257157332 1.4697470454474417 -1 0 0
1844 1 0.94706584341785 45.94628225152823 2.5272220914091466 1 0 0
3100 1 3.505088402959448 46.997350306333914 2.366121741562344 1 0 0
1806 1 6.272588224166284 45.805297910234245 1.1655136103199075 0 0 0
1953 1 13.914257668361634 44.589776274650745 0.9311828857773827 0 0 0
3560 1 15.955253995952287 46.22319779999374 0.6034112556263063 0 -1 0
2861 1 24.637028347049224 45.73658777065569 0.1068781306876384 0 0 0
1869 1 29.023394989771866 44.45505182930016 50.622390825628585 0 0 -1
457 1 27.210372241644496 46.65332609217292 50.42108152908115 0 0 -1
3975 1 32.739154707682886 44.667535527480396 1.1144354715757507 0 -1 0
3809 1 32.70225236955487 47.052791269383434 50.621878785408256 0 0 -1
3700 1 38.050507280686205 46.65501454275382 2.0092922521448573 0 0 0
2849 1 40.654508343636664 45.65041623116659 2.3956973104276544 0 0 0
4083 1 42.13679661937637 46.838014662688195 0.4913602965944388 0 0 0
3735 1 44.498664940781254 45.71676504250979 1.3701387266350316 0 0 0
3705 1 46.8979114396426 47.06292595193824 1.7151702789040826 0 -1 1
1824 1 49.462587247121945 46.263764739631796 0.9717852852298219 0 0 0
1001 1 1.42139540426298 50.582962016035054 1.7659888090170721 1 0 0
1048 1 3.0948563507284033 48.94550312600097 0.649887978209791 1 -1 0
3912 1 5.486964607733402 49.86666914902706 -0.39386176949899304 0 0 0
1295 1 7.378977145596549 48.165027242037084 1.0824055093200213 0 0 0
2418 1 10.579047753323646 50.45989483809484 1.5828568534727987 0 0 0
1257 1 10.173894472383703 48.09027806681276 0.5785553968307415 0 0 0
1209 1 14.23404266059692 48.412345180442856 1.0736595248442757 0 -1 0
3055 1 18.932860854585957 47.96546775867759 0.20261344227342248 0 0 0
1280 1 21.85077343194846 50.22249112710459 -0.4308679969557694 0 0 0
844 1 23.453960668729255 48.32892588551577 0.9237632393756603 0 0 0
3466 1 25.497588801667426 49.695853365988626 1.7891927307946607 0 0 0
3752 1 27.815430416941766 49.0006816988552 0.3655135259161495 0 -1 0
2953 1 32.27798890864541 48.64342454433404 1.6799117490411715 0 -1 1
3454 1 41.59514823025134 49.50279927651319 0.7968242204104483 0 -1 1
3555 1 43.822882620645714 50.49854044420033 2.051753487600401 0 -1 1
2137 1 45.587821272558884 49.02216055988403 0.32492018263389333 -1 0 0
796 1 48.332921217576896 50.05778283112264 0.8930021544244975 0 0 0
2288 1 -0.6189512752791586 48.79512280956838 2.025796608400608 0 0 0
2218 1 2.109772530717509 0.22519985176169477 4.062548684787569 0 0 0
3760 1 4.4102260935425015 1.425091589080858 3.8062217407119485 0 0 1
1109 1 6.087675506610288 -0.11293611032096551 5.409118394933955 1 0 0
74 1 8.746084156258071 0.9926705064552483 5.2697385287833365 0 1 0
70 1 10.628686021991854 50.318920812983734 4.3880582553140846 0 -1 0
2200 1 13.262525797542516 -0.12500308004495875 4.521805449881829 0 0 0
3445 1 15.266695424183949 2.420829471482422 5.329189788957511 0 0 1
3520 1 24.325584389408572 2.1646072903658253 4.986886623540588 0 0 0
226 1 30.34982588317358 1.0855257033035772 4.192945925128233 0 1 0
3750 1 34.69007544121952 1.1121874036441468 2.4471221222385657 0 0 1
446 1 35.413369385379724 0.09223338723614072 4.875175247011287 0 0 0
134 1 38.21034650896621 1.507879913962363 5.10646557078541 0 0 0
3434 1 39.84423887618422 0.9154744638190371 3.161136109070559 0 0 0
972 1 46.86444582123906 1.1843873817436938 4.793155846163155 0 0 0
1058 1 49.25622205127391 0.3488151068089971 5.584405875867017 -1 1 0
1640 1 0.27087011476151057 1.8098308901424214 5.160917945955655 1 0 0
2978 1 -0.08406665925535417 3.8653940152885076 3.177925462745363 0 0 0
3931 1 4.6459607438294395 4.113490281928926 3.902324047734454 1 0 0
566 1 7.155882264159174 4.909814612326572 3.0589003080874115 0 0 1
1253 1 8.963132367743265 2.8950630028998026 3.1497527747949627 0 1 0
620 1 11.53353353530214 3.9260062187693974 2.519550283697721 0 0 0
632 1 16.278876453386015 4.633612679848872 4.35650614538561 0 0 0
995 1 19.99721614592313 1.9537994786337909 5.565783137844555 0 0 0
822 1 23.03929715138931 2.8379953853140942 2.4876668438814717 0 0 0
548 1 26.89317007137381 3.1595851982614644 4.877639243471345 0 0 0
1015 1 28.484020914921203 2.698811877346761 2.775454532624299 0 0 0
424 1 36.45160008523668 5.521655375327586 3.431009647970523 0 0 0
1083 1 42.31908323400337 2.661649807752907 3.3261284278888277 0 1 1
2762 1 43.084862383181246 5.416371884248968 3.2396554735449845 0 0 0
545 1 2.3824540355236867 7.832555222387901 3.2616288017067374 0 0 0
3160 1 2.411876020604418 5.048262483986338 2.537077260549109 0 0 0
1081 1 7.716938914072111 6.100571698888467 5.343030524738247 0 0 0
1098 1 10.02244928443254 7.274357447610171 5.0792383621007575 0 0 0
364 1 12.046307275126377 5.388674556280231 4.990986756533996 0 0 0
3391 1 14.417987472498867 6.697397510920873 4.7137422996344664 0 0 1
3484 1 19.628170835814316 7.1869663731558395 4.513255893015231 0 0 0
2934 1 25.008598111612738 7.119213585101936 3.2646559029035984 0 0 0
277 1 30.641108921007653 6.386247678772033 3.972393638837177 0 0 0
3916 1 36.191328939949344 8.226697173137469 4.206612179307247 0 0 0
2407 1 38.900509137178005 8.623501681650952 4.74330718771348 0 0 1
690 1 41.92556241366218 6.907393851169595 5.168211186684276 0 0 0
466 1 45.88253427524792 5.194016678174067 2.3322396895901933 -1 0 0
1248 1 47.50421407682754 5.879048182787679 4.595985456551809 0 0 0
2645 1 50.15380178875259 6.266159598442609 4.17753922243634 -1 0 0
862 1 6.1762951742090335 10.650142997173118 4.320326919534497 0 0 0
3504 1 8.535607808631198 11.35044885698273 3.3197200540048697 0 0 0
524 1 10.233597517968715 8.97281801636847 2.808281441312895 0 0 0
2774 1 18.48240086856869 9.630087684639287 4.618837130819728 0 0 0
2101 1 22.750416121996416 11.273182456195727 4.261069404223129 0 0 0
163 1 25.538923409125992 10.684191180014237 2.9089543122025767 0 0 1
574 1 23.99906983672137 8.723326828067004 5.102185913299703 0 0 0
2573 1 28.586433674032254 9.953890172598458 3.3489841185210585 0 0 0
2589 1 31.266911962836122 9.271475958896291 3.595068964020153 0 0 0
3093 1 42.67232880344184 9.296311597896839 4.254792673901634 0 0 0
427 1 45.3040219093739 9.307263440076703 3.790556462196351 0 0 1
3629 1 49.47901640628781 8.920579651351817 2.71016278148504 -1 0 0
2128 1 48.6564319289141 10.514212963903297 4.983706078750413 0 0 0
146 1 0.5414201968673016 12.45316053655093 2.869212799240519 1 0 0
2623 1 3.1437212963334784 13.534244112317374 3.906875320618159 1 0 0
212 1 10.23928799833412 11.873088993823593 5.3864000678627475 0 0 0
4052 1 12.228576968891666 12.10774238575405 3.3741532629184023 0 0 0
3092 1 14.51979072807084 13.439635747097848 4.198535304002125 0 0 0
2176 1 16.54250786689312 12.901401677031314 2.316288695727611 0 0 0
9 1 26.496471398423154 13.37591849091804 2.883742850136337 0 0 0
616 1 24.121916012114895 13.776672810652698 5.509419540760198 0 0 1
1467 1 29.185356279690325 12.54232336301196 3.07457718519091 0 0 0
1843 1 29.987918120802302 13.508828569137254 5.514895852715662 0 0 0
2598 1 35.44567772123972 12.600517466023325 3.2308279553877797 0 0 1
1983 1 38.09972607950489 13.313124719788517 3.7280485560094396 0 0 0
1117 1 41.93492592124612 13.532614830988777 4.5350271428110345 0 0 0
1729 1 43.73108598164292 14.241844061158556 2.221663494657947 0 0 0
3477 1 46.50709662060527 11.773842038135411 3.612626567985436 0 0 0
810 1 0.2629289832749008 16.52945823179929 3.321502246326806 0 0 0
3296 1 2.1853752609302437 15.837144833105697 5.171498539549437 0 0 0
109 1 6.5610742662607375 16.240214794088224 4.031960608576695 0 0 0
2072 1 13.98006700112457 16.06619199151569 4.707673474108845 0 0 1
1765 1 18.952569201956102 14.123833534969895 2.8960223470754283 0 0 0
1348 1 28.281384549875273 17.866796548488374 1.802441743392904 0 0 1
2690 1 26.290294503005008 15.64473683064227 4.45683880011047 0 0 0
4073 1 32.06202222735784 15.179866406929525 4.746188814822691 0 0 1
3820 1 37.765186296588425 15.747778189692394 4.970820405713653 0 0 0
2910 1 45.123156835954845 16.176799689559715 4.296537955847105 0 0 0
2882 1 47.11949183952066 16.90413748195422 2.5230851920633874 0 0 0
3868 1 49.1192257145502 16.849918034658725 4.483385673966721 -1 0 1
213 1 4.15032728736236 17.558931272312226 4.320326363827339 0 0 0
1212 1 7.878216186307149 18.46097072919105 4.146851001015691 0 0 0
2920 1 10.610689224500176 18.440141840973098 4.22658432486889 0 0 0
2618 1 19.07862479390722 19.056591695848528 3.9326592641799687 0 0 0
1033 1 22.288679650969076 17.61452896885339 4.554921782087672 0 0 0
1725 1 25.507964803765248 20.39808757545699 3.858243461910467 0 0 0
1982 1 29.739380989829357 19.08363381406536 4.065631076917343 0 0 0
3910 1 32.26462803831811 19.890280642440896 3.2744762408662553 0 0 1
325 1 37.67222104364103 17.91300270551364 3.2564016344342828 0 0 0
3979 1 36.14203810050243 19.694123712206252 4.794183725114855 0 0 0
3144 1 40.31848898660253 18.318126515175805 3.083189935949218 0 0 0
1974 1 41.12819715063678 19.423295582504743 5.469017611370848 0 0 0
2022 1 45.304758261308606 20.654752575417785 4.372107090833474 0 0 0
1404 1 0.9204392323922324 22.84718793810162 5.132859814246438 1 0 0
2209 1 -0.40167085516032464 20.77785480545131 3.9418806557125894 0 0 0
2430 1 14.523721096861923 21.690915800114865 4.275786431178191 0 0 0
2712 1 14.995724212230995 20.007319221702204 2.1258571148876646 0 0 0
3904 1 19.69185895671598 22.508727353344742 3.303729774863241 0 0 0
591 1 23.422887236855285 22.17642721408997 4.139188108251854 0 0 0
2782 1 24.28771009485682 24.037368568822327 2.2585405363658566 0 0 0
1679 1 28.000972401352126 21.261710324220566 4.55668245742699 0 0 1
2297 1 28.366169162775012 22.471580872218475 2.3403206926256686 0 0 0
2848 1 33.29015659440839 22.61210634604515 2.926502651760534 0 0 0
4010 1 35.95656487851102 22.20357232831384 3.4910166360320334 0 0 0
1697 1 41.060656104090484 21.89831209031866 4.228600621892854 0 0 0
3971 1 43.71045111385219 22.77248327148895 3.89885788696507 0 0 0
2049 1 48.95155550764923 21.471297058545463 2.237391953123742 0 0 0
3721 1 1.0944567707113737 25.127779554954433 3.3357185583691016 0 0 0
3103 1 4.9110026762337124 23.43455693200789 3.333897744112848 0 0 0
3672 1 3.7681210919739367 25.88496678775572 2.5291422616243593 0 0 0
1989 1 7.172581413161018 24.446243141462748 4.43476672996476 0 0 0
472 1 9.517389824570126 24.46612033659298 3.0687824017303273 0 0 0
2532 1 11.822355538079714 25.070894957078174 4.688594498828148 0 0 0
3833 1 14.211683479219733 24.25341325351246 3.6086565849637067 0 0 1
1791 1 16.366472685852937 25.239308226187752 4.785134396913604 0 0 1
1789 1 17.83921055120887 26.230919055778795 2.5222849177430513 0 0 0
1665 1 20.315775008176196 25.48220064687603 3.0219373818207473 0 0 0
1424 1 24.826828575775195 26.807030313329697 3.227763449154235 0 0 0
618 1 29.440901762581564 24.985647762114674 2.8803164194163804 0 0 1
2758 1 32.067140477192495 24.533856772601094 4.343257400922573 0 0 0
4038 1 44.39406404867414 25.163098245328847 5.217583605699475 -1 0 0
2002 1 41.6344669793893 26.183454632193367 4.6149282812239525 0 0 0
945 1 47.259097510165205 24.997056719486327 5.099472085596498 0 0 0
42 1 47.96156768840726 24.006091213553805 2.4928702662920528 0 0 0
770 1 4.543176308280493 27.787585434032078 4.26876091514826 0 0 0
1455 1 7.173908403134143 27.22409048366214 4.901900605876979 0 0 0
2345 1 8.928646879487976 28.597064743319525 3.3055141404119666 0 0 0
4035 1 11.379020490986962 28.163622278866274 4.856132900407358 0 0 0
1347 1 17.256943020878662 28.94301382235579 2.7342997759788448 0 0 0
2829 1 28.440444833063484 29.451090274074822 1.9756484584994296 0 0 0
2082 1 27.60784056000237 27.238572485804955 3.4254199329679 0 0 0
4089 1 33.53412972905049 26.41927626265655 5.3363279224216695 0 0 0
3322 1 32.56016766891442 29.150305756109127 4.767148817759063 0 0 0
72 1 36.26331436532335 26.51367401881253 4.32440265689127 0 0 0
2557 1 38.14680031044546 28.788114592989796 4.77843281628312 0 0 0
461 1 40.86006352885869 28.691201544096486 5.860671835591088 0 0 0
2680 1 44.8276509834059 27.06700391299645 2.5733942322728525 0 0 0
196 1 48.31398462396635 27.354958705093697 5.749884031981647 0 0 0
1067 1 1.6198855266045178 31.73670224029856 3.923836221025332 0 0 1
915 1 0.014871576182615587 29.27797657043111 3.6606647959713303 1 0 1
932 1 3.723043387195137 30.21015172836373 2.827290346999694 1 0 0
3012 1 5.727935111809141 32.06659945898471 3.5963144128368585 0 0 0
3677 1 10.96006350700534 31.98220079612 2.558898058352587 0 0 0
819 1 8.739542659751667 31.103967189868047 4.095360775095714 0 0 1
1275 1 12.657580997442716 29.91659583718122 3.1628066391365675 0 0 0
2629 1 15.357706096778841 30.130665561787655 4.35303860375953 0 0 0
1591 1 19.582543020691464 30.397143193767505 3.1242746422381624 0 0 0
2492 1 24.432811693972784 30.912273192075332 2.621319429695741 0 0 0
3202 1 29.782735884668735 30.29868688716002 4.489205325287562 0 0 0
712 1 42.52088375754445 30.78293808318207 4.738412496065905 0 0 1
2750 1 45.54823789124096 30.510358099147794 4.730307984451205 0 0 0
888 1 11.883737086476813 34.32343049897666 3.3378507107712534 0 0 1
805 1 14.636155660870646 34.69208997148735 3.5261232327187857 0 0 0
2362 1 15.412539291810912 32.7910687319287 5.1563880997472795 0 0 1
2074 1 19.62372409632297 33.045017359777404 4.332091363365377 0 0 0
1516 1 23.926952302069783 33.4655030232186 3.2817415684990454 0 0 0
1415 1 26.12771811364786 34.3940731636131 4.7476408595436865 0 0 0
916 1 28.362780996265904 34.26030893790136 3.078524806760586 0 0 0
3191 1 30.50780564759484 32.92821619806266 3.879732393634841 0 0 0
3081 1 34.94664325651716 32.319147605454674 3.141392341130569 0 0 0
2481 1 37.38609213915453 33.711436947073 3.8210809793573297 0 0 0
2695 1 42.105716154907896 34.98349411080105 4.602961927887294 0 0 0
775 1 44.470413763505036 34.26290531848771 3.332727214526209 0 0 0
3941 1 46.73679204120427 32.92172213573876 4.601481363328616 0 0 0
754 1 4.4993428923938295 37.80974661307897 2.3853413770407728 0 0 0
3142 1 3.36078381063788 37.17252250891228 4.8591899951266 0 0 0
3838 1 8.145834860974158 35.7268909766165 5.108534482026228 0 0 0
2184 1 14.691223823563114 37.388330876385595 4.461749083148074 0 0 0
2376 1 19.82408079443161 36.01053526002576 2.5055697385035853 0 0 1
608 1 18.984153945410643 37.422618365475344 4.694526476143479 0 0 0
3220 1 22.49860488719547 37.229763480835416 2.4624452720962977 0 0 1
3049 1 23.034393113869697 37.51523101395881 5.339763671574964 0 0 1
2929 1 25.50446343572585 36.991728387977545 4.373977064625125 0 0 0
3872 1 26.869776046223453 37.88739937225148 2.062933322895677 0 0 0
3175 1 29.247195139831586 36.716631435764114 2.640639806866498 0 0 0
762 1 30.300185741566487 37.74633953709454 4.981317895057026 0 0 0
612 1 34.521048266833816 37.11347766724673 3.6736622004009725 0 0 0
3771 1 37.28188728724045 36.39531659333487 4.3609791574805605 0 0 0
3653 1 47.762501619009925 37.520587123904065 4.3543511629878795 0 0 0
3957 1 50.21740463194425 36.31163495365077 4.896076259095276 -1 0 0