
# Create simulation box of size 50 x 50 x 50 Angstrom
#
lattice	            sc 1
Lattice spacing in x,y,z = 1.0000000 1.0000000 1.0000000
region 	            all block 0 50 0 50 0 50 units box
create_box          1 all
Created orthogonal box = (0.0000000 0.0000000 0.0000000) to (50.000000 50.000000 50.000000)
  1 by 1 by 1 MPI processor grid

# fill box with 4175 randomly distributed atoms
#
create_atoms        1 random 4175 63782 all
Created 4175 atoms
  create_atoms CPU = 0.000 seconds
mass                1 18.015

# Define potential
#
pair_style          sw
pair_coeff          * * ML_mW.sw mW
Reading sw potential file ML_mW.sw with DATE: 2019-02-27

# Run minimization
#
minimize            1.0e-8 1.0e-8 10000 1000
WARNING: Using 'neigh_modify every 1 delay 0 check yes' setting during minimization (../min.cpp:187)
Neighbor list info ...
  update every 1 steps, delay 0 steps, check yes
  max neighbors/atom: 2000, page size: 100000
  master list distance cutoff = 6.0032907
  ghost atom cutoff = 6.0032907
  binsize = 3.0016454, bins = 17 17 17
  1 neighbor lists, perpetual/occasional/extra = 1 0 0
  (1) pair sw, perpetual
      attributes: full, newton on
      pair build: full/bin/atomonly
      stencil: full/bin/3d
      bin: standard
Per MPI rank memory allocation (min/avg/max) = 4.759 | 4.759 | 4.759 Mbytes
Step Temp E_pair E_mol TotEng Press 
       0            0    7792709.3            0    7792709.3    5898794.3 
     631            0   -45138.185            0   -45138.185   -130.57836 
Loop time of 7.39256 on 1 procs for 631 steps with 4175 atoms

100.0% CPU use with 1 MPI tasks x no OpenMP threads

Minimization stats:
  Stopping criterion = max force evaluations
  Energy initial, next-to-last, final = 
      7792709.32924456  -45137.9104522973  -45138.1854596308
  Force two-norm initial, final = 2.0191930e+08 4.4741522
  Force max component initial, final = 1.0948746e+08 1.0165594
  Final line search alpha, max atom move = 0.045182713 0.045930911
  Iterations, force evaluations = 631 1000

MPI task timing breakdown:
Section |  min time  |  avg time  |  max time  |%varavg| %total
---------------------------------------------------------------
Pair    | 7.128      | 7.128      | 7.128      |   0.0 | 96.42
Neigh   | 0.1667     | 0.1667     | 0.1667     |   0.0 |  2.25
Comm    | 0.019885   | 0.019885   | 0.019885   |   0.0 |  0.27
Output  | 0          | 0          | 0          |   0.0 |  0.00
Modify  | 0          | 0          | 0          |   0.0 |  0.00
Other   |            | 0.07795    |            |       |  1.05

Nlocal:        4175.00 ave        4175 max        4175 min
Histogram: 1 0 0 0 0 0 0 0 0 0
Nghost:        3825.00 ave        3825 max        3825 min
Histogram: 1 0 0 0 0 0 0 0 0 0
Neighs:        0.00000 ave           0 max           0 min
Histogram: 1 0 0 0 0 0 0 0 0 0
FullNghs:     119936.0 ave      119936 max      119936 min
Histogram: 1 0 0 0 0 0 0 0 0 0

Total # of neighbors = 119936
Ave neighs/atom = 28.727186
Neighbor list builds = 26
Dangerous builds = 0

# Add velocity/set timestep
#
velocity            all create ${TEMP} 120598 rot yes dist gaussian
velocity            all create 205 120598 rot yes dist gaussian
timestep            5.0

# Define output
#
compute	            1 all msd
thermo	            100
thermo_style        custom step temp press vol etotal ke pe c_1[4] density

# Neighbor lists
#
neigh_modify        delay 0 every 1 check yes

# Set fixes
#
fix                 1 all momentum 10 linear 1 1 1 rescale
fix                 2 all nve
fix                 3 all temp/csvr ${TEMP} ${TEMP} 500.0 928347
fix                 3 all temp/csvr 205 ${TEMP} 500.0 928347
fix                 3 all temp/csvr 205 205 500.0 928347
fix                 4 all press/berendsen iso ${PRES} ${PRES} 1000.0 modulus 20000
fix                 4 all press/berendsen iso -100 ${PRES} 1000.0 modulus 20000
fix                 4 all press/berendsen iso -100 -100 1000.0 modulus 20000

# Run 0.5 ns equilibration
#
dump                1 all custom 1000 eq.${NAME}.dump id type x y z vx vy vz
dump                1 all custom 1000 eq.liquid_density_MLmW.dump id type x y z vx vy vz
run                 100000
Per MPI rank memory allocation (min/avg/max) = 4.009 | 4.009 | 4.009 Mbytes
Step Temp Press Volume TotEng KinEng PotEng c_1[4] Density 
     631          205    802.16775       125000   -42587.596    2550.5897   -45138.185            0   0.99914793 
     700    132.68098   -96.788045    125599.02   -41809.843    1650.8037   -43460.647   0.22646234   0.99438269 
     800    163.57459   -89.094135    125354.02   -41107.959    2035.1789   -43143.138   0.56161585   0.99632615 
     900    181.57059   -29.796646    125682.31   -40686.453    2259.0834   -42945.536   0.90142107   0.99372373 
    1000    193.53823   -237.15885    125829.51   -40434.225    2407.9835   -42842.209    1.3158311   0.99256119 
    1100    199.11996    11.408592    125735.34   -40274.149    2477.4309    -42751.58    1.6835689   0.99330461 
    1200    201.66888   -237.76799    125691.77   -40335.524    2509.1443   -42844.668     1.970642   0.99364892 
    1300    198.50822   -272.62213    125709.84   -40339.913    2469.8197   -42809.733    2.2669587   0.99350606 
    1400    199.66034   -164.49882    125597.05   -40368.966    2484.1542    -42853.12    2.4926908   0.99439828 
    1500    202.41361   -4.4371305    125535.21   -40343.399    2518.4102   -42861.809    2.7588237   0.99488816 
    1600    208.55329   -139.66519    125830.88   -40295.726    2594.7994   -42890.526    3.0810609    0.9925504 
    1700     203.8925   -152.59784    125936.48   -40355.067    2536.8103   -42891.878    3.4098516   0.99171813 
    1800     205.9573   -61.475071    126152.82   -40450.371    2562.5003   -43012.871    3.6397689   0.99001747 
    1900    207.33678   -2.1880062    126728.46    -40476.93    2579.6637   -43056.593    3.8842259   0.98552043 
    2000    204.55991    -134.7167    126647.32   -40459.207    2545.1142   -43004.321    4.1196453   0.98615184 
    2100    209.56442   -76.290971    126868.89   -40436.238    2607.3798   -43043.618    4.3941988   0.98442958 
    2200    208.56717    -122.5841    127037.21   -40486.449    2594.9721   -43081.421    4.6936572   0.98312528 
    2300    209.20915   -118.27687    127336.42   -40499.742    2602.9596   -43102.701    4.9018036   0.98081517 
    2400     208.7984   -80.594169    127298.77   -40529.787    2597.8491   -43127.636     5.001175   0.98110525 
    2500    209.25737   -205.63857     127334.8   -40504.895    2603.5595   -43108.455    5.1509465   0.98082767 
    2600    210.43111   -129.11639    127523.54   -40482.024     2618.163   -43100.187     5.461598   0.97937601 
    2700    211.73398   -111.93776    127600.11   -40513.807    2634.3733    -43148.18    5.6654625   0.97878828 
    2800    210.57803    93.547289    128018.22   -40525.387     2619.991   -43145.378    5.8526414   0.97559156 
    2900    205.84008    -281.5014    127901.56   -40619.304     2561.042   -43180.346    5.9799574   0.97648137 
    3000      203.915   -146.69671    127943.88   -40667.641    2537.0903   -43204.731    6.1438025   0.97615838 
    3100    210.28659    47.002911    128219.63   -40654.205     2616.365    -43270.57    6.4823737   0.97405907 
    3200    208.17852    26.754775     128354.5   -40710.923    2590.1366   -43301.059    6.6886097   0.97303555 
    3300    206.58639    143.90531    128408.51   -40713.508    2570.3274   -43283.836    6.8550127   0.97262628 
    3400    205.15793   -7.4863753    128508.85   -40758.519    2552.5547   -43311.074    6.9908408   0.97186683 
    3500    204.53798    64.739332     128670.4   -40790.403    2544.8414   -43335.244    7.0949791   0.97064661 
    3600    204.83956   -142.62169    128655.54   -40846.719    2548.5935   -43395.313    7.2148958   0.97075872 
    3700    205.66288   -49.472576    128796.04   -40903.744    2558.8372   -43462.581    7.3085319   0.96969981 
    3800    204.76727   -240.06218    128806.23    -40874.95    2547.6941   -43422.644    7.5274801   0.96962306 
    3900     199.5037   -115.47415    128696.16   -40906.516    2482.2053   -43388.721    7.5196781   0.97045233 
    4000    203.22384     -142.317    128691.28   -40907.841    2528.4909   -43436.332    7.7612361   0.97048919 
    4100    206.99605   -118.59024    128785.14   -40891.307    2575.4244   -43466.731    7.9070346   0.96978182 
    4200    206.67564   -36.795282    128892.95   -40921.748    2571.4379   -43493.186    7.9147839   0.96897072 
    4300    207.49433   -64.498597    128857.03   -40930.389    2581.6239   -43512.013    8.1988914   0.96924084 
    4400    203.62438    9.1670072    129118.38   -40937.056    2533.4744   -43470.531    8.2299272   0.96727894 
    4500    204.80162   -117.32098    129073.76   -40940.929    2548.1216    -43489.05     8.222837   0.96761333 
    4600    204.83039   -69.877381    129182.05   -41011.244    2548.4795   -43559.723    8.3446158   0.96680219 
    4700    207.80635   -199.88916    129249.55   -40953.751    2585.5061   -43539.257    8.4740937   0.96629727 
    4800     206.5713   -87.703266    129225.26   -41019.077    2570.1397   -43589.217    8.5597073   0.96647893 
    4900     207.4237   -178.76604    129309.64   -40930.916    2580.7452   -43511.661    8.7705082   0.96584827 
    5000    212.05464   -179.50176    129282.03   -40913.333    2638.3629   -43551.696    8.8407707    0.9660545 
    5100    205.21286   -36.377722    129279.38    -40978.09    2553.2382   -43531.329      9.04448   0.96607435 
    5200    204.30884   -160.75273    129367.05    -41038.55    2541.9904   -43580.541    9.1450257   0.96541965 
    5300    203.22403   -6.5406623    129561.36   -41001.333    2528.4933   -43529.827    9.2955251   0.96397171 
    5400    202.85477   -105.65457    129592.42    -41045.98     2523.899   -43569.879     9.402874   0.96374074 
    5500    202.22514    122.98651    129796.22   -41042.483    2516.0653   -43558.548     9.516169    0.9622275 
    5600    205.03676   -130.94312    129840.94   -41056.375    2551.0472   -43607.422    9.6007564   0.96189606 
    5700    203.21972   -95.604657    129912.52   -41046.792    2528.4397   -43575.231    9.6694814   0.96136611 
    5800    205.64172   -282.69842     129988.4   -41074.625    2558.5739   -43633.198    9.7227696   0.96080489 
    5900    201.78101   -49.279821    129901.65   -41122.142    2510.5393   -43632.681    9.8748418    0.9614465 
    6000    200.46303   -217.01643    129985.49   -41123.143    2494.1412   -43617.285    10.015039   0.96082637 
    6100    209.45055   -255.23856    130240.65   -41089.485     2605.963   -43695.448    10.055195   0.95894403 
    6200    202.93985   -11.665669    130199.11   -41151.045    2524.9576   -43676.002    10.116882   0.95924995 
    6300    206.19835   -27.655863    130241.71   -41116.612    2565.4995   -43682.112    10.162431   0.95893624 
    6400    205.39026   -55.553446    130277.61    -41109.16    2555.4454   -43664.605    10.417232   0.95867194 
    6500    207.77776   -72.126525    130217.49   -41052.427    2585.1504   -43637.577     10.40655   0.95911457 
    6600    203.43356     58.56796    130123.28   -41130.041    2531.1002   -43661.141    10.474479   0.95980897 
    6700    203.21272   -135.56652    130323.08   -41192.398    2528.3525   -43720.751    10.655385   0.95833749 
    6800    202.32407    -15.75242    130346.57   -41112.828    2517.2961   -43630.124    10.796902    0.9581648 
    6900    203.09284   -139.96835    130398.73   -41062.822     2526.861   -43589.683    10.832433   0.95778154 
    7000    207.87568   -181.30258    130465.57   -41055.806    2586.3687   -43642.174     10.88841   0.95729083 
    7100    208.03957     43.06012    130592.04   -41089.469    2588.4078   -43677.877    10.884663   0.95636376 
    7200    203.76897   -7.3748041    130535.92   -41138.832    2535.2734   -43674.106    11.035339   0.95677488 
    7300    200.03976    6.6608874    130377.04   -41179.309     2488.875   -43668.184    11.134152   0.95794086 
    7400    200.85671   -131.78986     130492.1   -41198.237    2499.0393   -43697.276    11.435163   0.95709619 
    7500    201.86029   -170.54572    130407.99   -41163.833    2511.5258   -43675.359    11.391108   0.95771351 
    7600    207.27771   -112.49854    130526.17   -41226.327    2578.9288   -43805.256    11.488325    0.9568464 
    7700    205.67311   -30.025184    130592.48   -41147.584    2558.9645   -43706.549    11.413218   0.95636049 
    7800    205.06793   -105.90576    130832.55   -41134.568    2551.4349   -43686.003    11.505097   0.95460568 
    7900    202.43412   -90.163439    130845.96   -41193.166    2518.6653   -43711.831     11.60697   0.95450784 
    8000    203.82299   -51.955362    130722.25   -41184.837    2535.9455   -43720.783    11.776028   0.95541109 
    8100    203.01839   -102.35763    130614.15   -41261.914    2525.9347   -43787.849    11.880564   0.95620187 
    8200    205.89153    15.119697    130699.55   -41291.232    2561.6821   -43852.914    11.862873   0.95557708 
    8300    202.73103   -64.534559    130753.81   -41273.505    2522.3594   -43795.865    11.795868   0.95518049 
    8400    207.81921     4.516553    130894.99   -41234.774    2585.6661    -43820.44    11.947232   0.95415027 
    8500    205.45956   -155.20823    130691.57   -41175.699    2556.3075   -43732.006    11.964513    0.9556354 
    8600    205.48375   -65.643504    130621.61   -41203.533    2556.6085   -43760.141    11.992662   0.95614723 
    8700     207.5072   -114.53185    130428.66   -41188.661    2581.7841   -43770.445    12.141024   0.95756171 
    8800    204.62653   -213.61469    130325.21   -41206.466    2545.9431   -43752.409    12.175878    0.9583218 
    8900    201.38398   -143.66484    130461.61   -41285.088    2505.5996   -43790.688    12.191361   0.95731988 
    9000     204.4897   -58.327965    130492.13   -41250.342    2544.2406   -43794.583    12.255436   0.95709596 
    9100    200.18295   -134.64784    130526.57    -41303.32    2490.6565   -43793.976    12.372581   0.95684345 
    9200    201.84186   -149.27276    130378.85    -41217.43    2511.2965   -43728.727    12.388421   0.95792756 
    9300    203.39142    3.9329944    130649.26   -41262.802     2530.576   -43793.378    12.539139   0.95594491 
    9400    205.95508   -59.582378    130700.94   -41234.911    2562.4728   -43797.384    12.670541   0.95556691 
    9500    205.08324   -43.899315    130831.37   -41247.258    2551.6253   -43798.883    12.917111   0.95461429 
    9600    205.97985    -86.26695    130778.06   -41236.782    2562.7809   -43799.563    12.989517   0.95500337 
    9700     205.4816   -57.642116    130660.67   -41176.406    2556.5817   -43732.988    12.964383   0.95586141 
    9800    204.17473   -33.329391     130734.2   -41255.738    2540.3218    -43796.06    13.015459   0.95532378 
    9900    202.14257   -133.16474    130640.45   -41306.838    2515.0379   -43821.876    13.075961   0.95600933 
   10000    205.44532   -190.80038    130575.59   -41312.451    2556.1303   -43868.581    13.186438   0.95648421 
   10100     203.8539    -8.142125    130410.62   -41281.776      2536.33   -43818.106    13.267668   0.95769414 
   10200    199.25283   -64.658224    130516.75   -41320.624     2479.084   -43799.708    13.419978   0.95691542 
   10300    203.32479   -63.361735    130425.79   -41310.628     2529.747   -43840.375    13.579794   0.95758277 
   10400    206.27954   -23.481727    130746.57   -41244.614    2566.5097   -43811.124    13.551469   0.95523344 
   10500    205.55706   -82.111994    130792.03   -41237.518    2557.5206   -43795.039    13.495409   0.95490139 
   10600    208.79835   -49.509751    130950.04   -41190.256    2597.8484   -43788.104    13.485085   0.95374914 
   10700     208.2713   -38.184164    130789.88   -41189.332    2591.2909   -43780.623    13.668614   0.95491706 
   10800    208.96231    -62.22645    130778.34   -41180.774    2599.8884   -43780.662    13.903942   0.95500136 
   10900    202.84488   -130.07594    130665.44   -41207.088    2523.7759   -43730.864    13.977075    0.9558265 
   11000    205.09059   -27.821331    130519.51   -41210.834    2551.7168   -43762.551     14.06343   0.95689518 
   11100    203.09526    -16.33395    130684.41   -41247.529    2526.8912   -43774.421    14.062823   0.95568775 
   11200    205.77341   -191.50699    130940.99   -41262.032    2560.2124   -43822.245    14.166059   0.95381509 
   11300     209.0066   -167.24288    130996.86   -41286.651    2600.4394    -43887.09    14.239056   0.95340826 
   11400     204.7799   -65.410691    131076.75   -41295.408    2547.8512   -43843.259    14.318319   0.95282716 
   11500    204.99606    1.5121408    131009.09   -41312.915    2550.5408   -43863.456    14.458272    0.9533193 
   11600    206.97514     6.769127    131134.34   -41329.293    2575.1642   -43904.457    14.461774   0.95240872 
   11700    206.48969   -161.29605    131157.71   -41236.981    2569.1243   -43806.105    14.479028   0.95223902 
   11800    206.98082   -40.599367    131340.45   -41304.584    2575.2349   -43879.819     14.60269   0.95091413 
   11900    206.98447   -68.758011    131394.97   -41329.683    2575.2803   -43904.964    14.496989   0.95051959 
   12000    205.83749   -150.15177    131251.59   -41340.293    2561.0097   -43901.303    14.451694   0.95155789 
   12100    210.21049   -94.746311    131378.07   -41319.162    2615.4181    -43934.58    14.641737   0.95064182 
   12200    206.72181    37.323662    131341.54   -41328.922    2572.0123   -43900.935    14.732117   0.95090623 
   12300    206.33388    -82.92096    131432.43    -41343.11    2567.1857   -43910.295    14.842513   0.95024866 
   12400     207.8069    79.196267    131557.27   -41344.662     2585.513   -43930.175    14.844942   0.94934691 
   12500      202.322    37.846949    131547.69   -41441.571    2517.2703   -43958.841    14.844988   0.94941607 
   12600    202.73364    23.723818    131652.34   -41382.282    2522.3919   -43904.674    14.885007   0.94866136 
   12700    204.98209   -137.81945    131740.76   -41371.273    2550.3669    -43921.64    14.975854   0.94802466 
   12800      206.388   -9.9808024    131715.53   -41359.417     2567.859   -43927.276    14.892814   0.94820625 
   12900    207.35501   -24.379164     131695.7   -41417.455    2579.8905   -43997.345    14.899167   0.94834901 
   13000    207.48727   -72.119657    131840.25   -41362.912    2581.5361   -43944.448     14.93462   0.94730926 
   13100    209.24203    13.334352    131720.28   -41375.928    2603.3687   -43979.297    15.074423   0.94817207 
   13200    209.34178    6.3770432    131900.88   -41307.719    2604.6097   -43912.328    15.086245   0.94687384 
   13300    209.27997   -153.29896     131928.8   -41357.115    2603.8408   -43960.956    15.034386   0.94667341 
   13400    207.05746   -80.467749    131723.91   -41430.097    2576.1884   -44006.285    15.029949   0.94814591 
   13500    203.48442   -135.82201    131644.44   -41474.137    2531.7331    -44005.87    15.204766    0.9487183 
   13600    207.24213   -32.491864     131809.2   -41502.777    2578.4861   -44081.263    15.234568   0.94753244 
   13700    204.21524   -56.929466    131925.67   -41501.759    2540.8258   -44042.585    15.376411   0.94669587 
   13800    204.33818   -189.13962     131829.8   -41431.666    2542.3555   -43974.022    15.386664   0.94738438 
   13900    202.94873   -34.307966    131714.79   -41452.459     2525.068   -43977.527     15.53182   0.94821162 
   14000    209.02944   -76.162187    131725.77   -41432.926    2600.7236    -44033.65    15.420143   0.94813255 
   14100    203.18741    -143.5755    131902.13   -41432.962    2528.0377   -43960.999    15.446723   0.94686483 
   14200    203.71124    -109.7529    131755.81   -41476.962    2534.5551   -44011.517    15.467585   0.94791639 
   14300    200.58376   -136.09742    131610.31   -41520.552    2495.6434   -44016.196    15.564797   0.94896432 
   14400    204.34382   -165.40465    131641.28   -41484.332    2542.4256   -44026.757    15.514893    0.9487411 
   14500    206.64333   -85.054224    131713.37   -41437.372    2571.0358   -44008.408    15.636293   0.94822179 
   14600    200.96035   -178.39933    131497.59   -41451.761    2500.3288    -43952.09    15.681844   0.94977778 
   14700    208.35557   -5.4889199     131676.8   -41472.827    2592.3394   -44065.167     15.64932   0.94848514 
   14800    202.91111    19.806626    131583.45   -41516.051       2524.6   -44040.651    15.748703   0.94915805 
   14900    201.19731   -185.27692    131401.77   -41586.848    2503.2771   -44090.125    15.618976   0.95047038 
   15000    197.36788   -173.24784    131460.38   -41576.713    2455.6316   -44032.345    15.879003   0.95004664 
   15100    203.39335   -11.520761    131532.29   -41603.182    2530.5999   -44133.782    15.881787   0.94952722 
   15200    204.02058   -148.21302    131526.87   -41532.364    2538.4039   -44070.768    15.883183   0.94956639 
   15300    205.02889   -3.3254309    131774.79   -41545.378    2550.9491   -44096.327    16.016644   0.94777982 
   15400    200.53395   -180.10255    131652.56   -41529.492    2495.0236   -44024.515    16.158244   0.94865979 
   15500    204.43531   -83.334781    131747.19   -41507.973    2543.5639   -44051.536    16.168502    0.9479784 
   15600    203.16573   -206.24333    131755.87   -41453.543    2527.7679   -43981.311    16.219511   0.94791592 
   15700    200.97967   -49.552669    131765.81   -41521.868    2500.5692   -44022.437    16.342976   0.94784445 
   15800    203.54774   -35.209319     131730.2   -41528.571    2532.5208   -44061.092    16.464695   0.94810069 
   15900     203.2697   -42.766423    131898.91   -41547.286    2529.0615   -44076.348    16.564095     0.946888 
   16000    206.02657   -60.915475    131890.38   -41491.428    2563.3623   -44054.791    16.531766   0.94694921 
   16100    207.43831   -33.092887    132050.52   -41449.061     2580.927   -44029.988    16.530987   0.94580083 
   16200    206.08905     13.90357    131965.63   -41513.607    2564.1396   -44077.747    16.559432   0.94640921 
   16300    206.37962   -69.614821    131937.78   -41528.789    2567.7548   -44096.544     16.71861   0.94660899 
   16400    208.69027   -68.728606     131930.4   -41443.207    2596.5038   -44039.711    16.846794   0.94666196 
   16500    207.57479   -40.580433    131678.46   -41435.912     2582.625   -44018.537    16.933886   0.94847324 
   16600     204.3993   -126.40002    131647.43   -41412.508    2543.1159   -43955.624    16.889327   0.94869676 
   16700     204.2439   -58.277346    131812.39   -41433.161    2541.1824   -43974.343    16.942312   0.94750947 
   16800    205.69752   -54.330964    131793.33   -41419.386    2559.2683   -43978.654    17.034001   0.94764649 
   16900     206.8938   -57.788483    131744.22   -41382.901    2574.1522   -43957.053    17.110616   0.94799975 
   17000    207.48564   -138.35397     131728.8   -41400.056    2581.5158   -43981.571     17.17012   0.94811077 
   17100    205.75124   -121.88787    131815.67   -41329.991    2559.9366   -43889.928    17.145188    0.9474859 
   17200     210.1838   -30.797498    131817.01   -41345.748     2615.086   -43960.834    17.184214    0.9474763 
   17300    205.53822   -87.024523    131742.17   -41429.893    2557.2862   -43987.179    17.184653   0.94801456 
   17400    206.18974   -99.827634    131819.05   -41448.069    2565.3924   -44013.461    17.284023   0.94746164 
   17500     206.2267   -169.02198    131747.36   -41447.933    2565.8522   -44013.785    17.290677   0.94797715 
   17600     208.8151    70.193656    131699.42   -41456.451    2598.0569   -44054.508     17.26463   0.94832225 
   17700    203.81553   -170.25706    131735.72   -41481.416    2535.8527   -44017.269    17.450488   0.94806095 
   17800    203.41442   -10.185717    131662.81   -41473.156    2530.8621   -44004.018    17.307436   0.94858596 
   17900    206.63147    11.902518    131760.83   -41469.826    2570.8883   -44040.715    17.408732   0.94788029 
   18000    205.36663   -108.30182    131777.19   -41421.954    2555.1513   -43977.105    17.436374   0.94776258 
   18100    205.52165   -189.55119    131836.54   -41520.833      2557.08   -44077.913     17.46829   0.94733593 
   18200    205.04726   -63.117154    131905.08   -41527.223    2551.1777   -44078.401    17.629785   0.94684368 
   18300    209.63738    -11.30885    131894.87   -41455.587    2608.2876   -44063.875    17.653134   0.94691694 
   18400    202.92173   -165.73213    131848.05   -41513.208    2524.7322   -44037.941     17.78454   0.94725325 
   18500    208.87415   -48.577012    131741.88   -41489.381    2598.7915   -44088.172    17.563885   0.94801659 
   18600    206.19433   -107.18356    131835.52   -41537.325    2565.4495   -44102.775    17.715855   0.94734322 
   18700    208.19129   -41.745829    132044.67   -41523.866    2590.2954   -44114.162    17.838201   0.94584274 
   18800    204.41885    48.572189    132199.67   -41512.575    2543.3591   -44055.934    17.846658   0.94473378 
   18900    207.94573   -85.591772    132182.84   -41558.218    2587.2402   -44145.458    17.920337   0.94485401 
   19000    206.86862    79.973085    132051.55   -41545.261    2573.8389   -44119.099    17.939718   0.94579343 
   19100    204.12713   -145.60261    131978.37    -41606.13    2539.7296   -44145.859    17.838744   0.94631786 
   19200    206.22236   -135.25244    132073.37   -41595.333    2565.7982   -44161.131    17.769838   0.94563723 
   19300    207.39499   -78.417077    132154.16   -41536.216     2580.388   -44116.604    17.901278   0.94505909 
   19400    204.71944   -228.23109    132104.61   -41549.508     2547.099   -44096.607    17.969115    0.9454136 
   19500    205.42299   -126.36074    132131.95   -41540.071    2555.8525   -44095.923    17.942831   0.94521796 
   19600    204.87413   -14.719134    132206.38   -41588.821    2549.0237   -44137.845    17.957572   0.94468582 
   19700    211.80314   -86.405586    132297.49   -41581.491    2635.2337   -44216.725    18.106376   0.94403522 
   19800    202.04619   -145.89348    132291.97    -41627.01    2513.8387   -44140.849    18.036092    0.9440746 
   19900    209.82582   -143.71966    132309.74   -41627.586    2610.6321   -44238.218    17.988714   0.94394782 
   20000    203.94862   -133.84299    132237.96   -41670.553    2537.5086   -44208.062    18.179976   0.94446019 
   20100    202.92858   -110.88288    132362.34   -41637.256    2524.8174   -44162.074    18.049775   0.94357268 
   20200    206.26944    -75.19534    132554.33   -41683.865    2566.3839   -44250.249    18.004833   0.94220604 
   20300    201.82501   -215.13709    132595.49   -41715.663    2511.0869    -44226.75    18.197335   0.94191357 
   20400     203.0908    -7.624095    132636.51   -41710.731    2526.8356   -44237.566    18.083633   0.94162229 
   20500    204.39865   -41.139765    132543.63   -41678.627    2543.1078   -44221.734    18.140731   0.94228212 
   20600    207.40394   -146.64351       132591   -41710.492    2580.4994   -44290.991    18.242649   0.94194546 
   20700    205.18058   -117.90055    132417.17   -41651.882    2552.8364   -44204.719     18.19492   0.94318198 
   20800    203.10189   -110.11423    132472.91   -41643.833    2526.9737   -44170.807    18.245765   0.94278517 
   20900    207.05564   -171.12521    132629.23   -41682.998    2576.1658   -44259.164    18.374988   0.94167395 
   21000    201.00554   -139.17718    132577.56   -41764.374     2500.891   -44265.265     18.28714   0.94204094 
   21100     203.5533   -122.99299    132481.66   -41790.791    2532.5901   -44323.381    18.188395   0.94272288 
   21200    203.00294   -254.51842    132569.26   -41758.391    2525.7425   -44284.133     18.15253   0.94209993 
   21300    203.91168    31.946063     132630.5   -41782.872     2537.049   -44319.921    18.314796   0.94166494 
   21400    208.09255   -98.011643    132581.19   -41744.336    2589.0669   -44333.402      18.4017   0.94201517 
   21500    204.79008   -129.16209    132432.78   -41734.325    2547.9779   -44282.303    18.347957   0.94307081 
   21600    207.68574    42.819438    132520.42    -41683.35    2584.0054   -44267.355     18.32654   0.94244713 
   21700     205.7379    32.239054    132704.22   -41660.539    2559.7706   -44220.309    18.293375   0.94114184 
   21800    206.65048   -52.208798       132846   -41648.117    2571.1249   -44219.242    18.427227   0.94013735 
   21900    207.10102    5.1187612    132805.94   -41660.392    2576.7305   -44237.123    18.481616   0.94042095 
   22000    199.92016   -150.70378    132781.57   -41688.072    2487.3868   -44175.459    18.557884   0.94059355 
   22100    209.81732   -178.77279    132588.03    -41641.38    2610.5263   -44251.906    18.444718   0.94196659 
   22200    206.17912   -102.51345    132689.76    -41674.51    2565.2602    -44239.77    18.589717   0.94124441 
   22300    207.87556   -119.73977    132843.99   -41650.141    2586.3672   -44236.508    18.601969   0.94015164 
   22400    205.09878    -53.27695    132757.55   -41619.092    2551.8187    -44170.91     18.54617   0.94076375 
   22500     206.5086   -186.89751    132646.46   -41628.064    2569.3596   -44197.424    18.660407   0.94155164 
   22600    211.13397   -45.099782    132649.75   -41596.913    2626.9079   -44223.821    18.586095   0.94152827 
   22700    208.72205   -81.608316    132813.73   -41598.621    2596.8991   -44195.521     18.48517   0.94036584 
   22800    207.64031   -161.51673    132684.61   -41596.673    2583.4402   -44180.113    18.644617   0.94128092 
   22900    207.24916   -114.34155    132804.27   -41639.346    2578.5736    -44217.92    18.659164   0.94043282 
   23000    205.90222    -135.9292    132725.98   -41622.621    2561.8151   -44184.436    18.741866   0.94098752 
   23100    201.30011   -163.61084     132779.2   -41727.533    2504.5561   -44232.089    18.800388   0.94061033 
   23200    207.53886   -129.94543    132936.63   -41668.538     2582.178   -44250.716    18.867291   0.93949645 
   23300    205.49665    20.621581     132864.6   -41708.601     2556.769    -44265.37    18.825066   0.94000581 
   23400    208.34516     32.34712    132936.61   -41647.599    2592.2099   -44239.809    18.626549   0.93949658 
   23500    202.01593   -187.81626    132767.65   -41674.938    2513.4622   -44188.401    18.664456   0.94069216 
   23600    205.92283   -163.97553    132740.68    -41650.53    2562.0714   -44212.601    18.865458   0.94088329 
   23700    203.20737    -143.1555    132643.79   -41677.055     2528.286   -44205.341    18.862302   0.94157058 
   23800    201.38091    -143.9541    132354.29   -41734.906    2505.5614   -44240.467    18.775957   0.94363008 
   23900    200.43886   -123.31642    132349.88   -41728.468    2493.8405   -44222.308    18.675794   0.94366153 
   24000    204.50164   -123.17744    132283.01   -41664.951    2544.3892    -44209.34    18.790679   0.94413857 
   24100    205.90343   -42.791911    132402.89   -41656.609    2561.8301   -44218.439    18.983042   0.94328372 
   24200    204.14678   -227.14594    132418.86   -41716.114     2539.974   -44256.088    18.900347   0.94316994 
   24300    203.12764   -116.40327    132376.31   -41664.876    2527.2941    -44192.17    18.932929   0.94347312 
   24400    204.40314   -82.493921    132560.68   -41702.289    2543.1637   -44245.453    18.885393   0.94216089 
   24500    202.03354    33.504052    132557.34   -41670.648    2513.6813   -44184.329    19.131888   0.94218466 
   24600     200.9121   -50.948958    132468.81   -41666.322    2499.7285   -44166.051    19.078417   0.94281432 
   24700    206.14543    -126.6156    132509.81   -41673.493    2564.8411   -44238.334    19.016372   0.94252261 
   24800    201.77396   -17.954391    132593.84   -41691.903    2510.4516   -44202.354    18.935222   0.94192527 
   24900    204.63482   -41.327849    132798.52   -41655.168    2546.0463   -44201.215    19.080233   0.94047355 
   25000    205.01979   -271.91147    132742.05   -41648.035     2550.836   -44198.871    19.175478   0.94087361 
   25100    206.03265   -88.420095    132558.73   -41640.855    2563.4379   -44204.293    19.249083   0.94217475 
   25200    205.60295   -81.922418    132634.95   -41675.784    2558.0916   -44233.876    19.181801   0.94163332 
   25300     204.7028   -30.547599    132534.22   -41687.594     2546.892   -44234.486    19.173694   0.94234903 
   25400     205.6315   -57.341038    132538.81   -41689.351    2558.4467   -44247.798    19.279806   0.94231638 
   25500    206.34687   -90.326353    132560.28   -41636.037    2567.3474   -44203.384    19.173166   0.94216373 
   25600    205.85123    60.603914    132550.57   -41694.006    2561.1807   -44255.187    19.217193    0.9422328 
   25700    201.10672    -124.4841    132699.24   -41722.943    2502.1499   -44225.093    19.256408   0.94117712 
   25800    205.27631   -209.86686     132502.6   -41704.708    2554.0276   -44258.735    19.345784   0.94257386 
   25900    207.87365    93.549129    132639.91   -41677.596    2586.3434   -44263.939    19.402902    0.9415981 
   26000    209.48289   -129.48724     132566.6    -41617.51    2606.3654   -44223.875     19.42418   0.94211883 
   26100    198.75956   -56.097193    132729.73   -41686.305    2472.9468   -44159.251    19.528216   0.94096091 
   26200    205.21747    -112.3639    132540.31   -41692.557    2553.2955   -44245.852    19.495273   0.94230568 
   26300    206.16373   -171.23711    132537.15   -41669.707    2565.0688   -44234.776    19.398552   0.94232819 
   26400     203.1278   -205.35172    132567.69   -41663.202     2527.296   -44190.498    19.550242   0.94211106 
   26500    204.16802   -103.38112    132538.33    -41697.38    2540.2383   -44237.618    19.552923   0.94231976 
   26600    203.96826   -30.133816    132615.72   -41719.653     2537.753   -44257.405    19.703259   0.94176987 
   26700    203.92947   -10.882797    132551.35   -41736.187    2537.2704   -44273.457    19.653776   0.94222721 
   26800    204.62809   -27.534933    132635.73   -41665.678    2545.9625    -44211.64    19.530811   0.94162779 
   26900    203.29249   -112.52564    132617.06   -41665.825    2529.3451    -44195.17    19.499356   0.94176039 
   27000    204.78099   -139.91418    132659.26   -41715.592    2547.8649   -44263.457    19.672972   0.94146078 
   27100    202.41565   -24.319736    132669.25   -41720.125    2518.4355   -44238.561    19.773379    0.9413899 
   27200    201.54948   -61.425148    132677.06   -41734.869    2507.6587   -44242.528    19.819687    0.9413345 
   27300    205.30615   -22.923067    132745.71   -41756.719    2554.3988   -44311.118    19.837999   0.94084768 
   27400    204.09481   -147.05171    132745.41   -41723.198    2539.3275   -44262.525    19.847992   0.94084981 
   27500    206.34264   -129.12718    132698.81   -41652.277    2567.2948   -44219.572    19.831772   0.94118021 
   27600    204.18618    25.227023    132619.82   -41689.669    2540.4642   -44230.133    19.932668   0.94174074 
   27700    201.64008   -42.793615    132767.67   -41696.408    2508.7859   -44205.194    19.974097   0.94069202 
   27800    209.24568   -195.32743    132726.18   -41627.229    2603.4141   -44230.643    19.993914   0.94098613 
   27900    205.38113   -169.50801    132721.58   -41653.618    2555.3317    -44208.95    19.901336   0.94101875 
   28000    207.86166   -62.004258    132552.97   -41694.844    2586.1942   -44281.039    20.009132   0.94221573 
   28100    204.84845   -44.433124    132668.41   -41662.537    2548.7041   -44211.241     20.09191   0.94139587 
   28200    204.26943   -114.70046    132654.72   -41713.211       2541.5   -44254.711    20.051973     0.941493 
   28300    204.43298   -153.93088     132775.6   -41698.821     2543.535   -44242.356    20.041761   0.94063588 
   28400    202.03715   -89.255175    132604.75   -41751.796    2513.7263   -44265.522    20.242046   0.94184782 
   28500    205.36263   -169.25885    132643.23   -41766.139    2555.1016   -44321.241     20.15383   0.94157457 
   28600     202.0915    -170.4553    132543.61   -41731.207    2514.4024    -44245.61    20.090551   0.94228223 
   28700    207.12393   -213.48883    132558.09   -41730.301    2577.0154   -44307.316    20.019544   0.94217929 
   28800    207.80537   -209.34613    132626.94   -41707.127    2585.4938   -44292.621    19.985936   0.94169023 
   28900    206.06365   -72.956473    132605.74   -41677.359    2563.8235   -44241.183    19.960698   0.94184075 
   29000    204.77984   -141.39239    132577.95   -41735.837    2547.8505   -44283.688    20.114461   0.94203818 
   29100    207.87633   -81.416474    132704.54    -41680.74    2586.3767   -44267.117    20.203674   0.94113953 
   29200     205.5765   -90.171376    132796.54   -41648.196    2557.7625   -44205.958    20.222711   0.94048752 
   29300    206.76536   -170.60477    132707.74   -41726.774    2572.5542   -44299.328     20.13334   0.94111682 
   29400    202.18161   -73.773188    132783.47   -41778.133    2515.5236   -44293.657    20.139335   0.94058009 
   29500    200.57519    14.940682    132807.89   -41802.236    2495.5367   -44297.773    20.232518   0.94040717 
   29600    203.58376   -194.13735    132872.99   -41727.328    2532.9691   -44260.297    20.393235   0.93994642 
   29700    201.09465   -143.67732    132901.79   -41759.333    2501.9998   -44261.333    20.361678   0.93974276 
   29800    203.91185    39.824993    132950.37   -41734.858    2537.0511   -44271.909    20.353893   0.93939937 
   29900    204.42649   -101.26577    132926.38   -41751.323    2543.4542   -44294.778    20.300461   0.93956891 
   30000    203.74641   -209.31497    132625.64   -41740.719    2534.9927   -44275.712    20.380226   0.94169941 
   30100    205.85899   -16.548141    132743.05   -41731.924    2561.2771   -44293.201    20.446815    0.9408665 
   30200    205.27248    -118.7186    132771.61   -41749.576    2553.9799   -44303.556    20.465319   0.94066415 
   30300    205.78327   -19.992048    132752.92   -41698.936     2560.335   -44259.271    20.554161   0.94079658 
   30400    205.67823   -147.58514    132804.81   -41682.546    2559.0282   -44241.574    20.426278   0.94042898 
   30500    205.40323   -8.0385748    132695.06   -41692.569    2555.6067   -44248.176    20.619016   0.94120677 
   30600    206.47174   -123.49959    132729.01   -41688.053    2568.9009   -44256.954    20.722273   0.94096602 
   30700    203.37368    1.9226457    132915.86   -41718.202    2530.3553   -44248.557    20.629141   0.93964327 
   30800    202.03452   -99.130491    132793.74   -41656.172    2513.6935   -44169.865     20.66262   0.94050738 
   30900    202.72135   -42.713932    132904.73   -41760.888     2522.239   -44283.127    20.810643   0.93972194 
   31000    202.78002    21.409853    132796.09    -41809.24    2522.9689   -44332.209    20.865199   0.94049076 
   31100    201.95883   -98.606714    132717.87   -41808.233    2512.7518   -44320.985    20.818526   0.94104504 
   31200    204.02572    31.662891    132717.56   -41817.306    2538.4679   -44355.774    20.785176   0.94104721 
   31300    205.58686   -143.49905    132591.74    -41776.01    2557.8913   -44333.902    20.797657    0.9419402 
   31400    203.33715    38.755717    132639.97    -41740.55    2529.9007    -44270.45    20.781108    0.9415977 
   31500    203.91829   -130.28544     132659.4   -41770.871    2537.1312   -44308.002    20.818813   0.94145976 
   31600    204.81217   -155.27253    132677.67   -41711.918    2548.2527    -44260.17    20.851918   0.94133013 
   31700    203.54531   -80.730168    132695.98   -41750.998    2532.4906   -44283.488    20.792309   0.94120029 
   31800    207.31195   -17.567821    132706.75   -41687.873    2579.3548   -44267.227    20.787138   0.94112387 
   31900    209.04422   -145.67187    132741.92   -41676.893    2600.9075     -44277.8    20.952704   0.94087454 
   32000    209.96278   -116.04274    132763.03   -41678.011    2612.3362   -44290.347     20.84259    0.9407249 
   32100    205.20431   -48.446105    132762.09    -41703.37    2553.1317   -44256.502    20.989927   0.94073157 
   32200    206.34488    13.881665    132969.63   -41693.495    2567.3225   -44260.818    21.059122   0.93926326 
   32300    204.91892   -86.382253    132865.27   -41674.444     2549.581   -44224.025    21.191582     0.940001 
   32400    201.26126   -246.38769    132635.01   -41746.395    2504.0727   -44250.468    21.069129   0.94163293 
   32500     206.4259   -111.53999    132757.12   -41744.758    2568.3306   -44313.089     20.94826   0.94076678 
   32600    206.97352    28.940047    132857.35   -41699.015    2575.1441   -44274.159    21.057764   0.94005707 
   32700    205.34777    -38.35455    132917.13   -41764.804    2554.9167   -44319.721    21.013791   0.93963424 
   32800    204.13186   -35.851165    133135.03    -41804.82    2539.7884   -44344.608    21.131483   0.93809637 
   32900    202.20113   -173.43474    133029.94   -41804.076    2515.7664   -44319.843    21.179906   0.93883744 
   33000    202.95716   -138.85966    132928.18   -41866.101    2525.1729   -44391.274    21.302517   0.93955616 
   33100    205.64664   -156.45115    132960.37   -41798.599    2558.6351   -44357.235    21.332839   0.93932871 
   33200    204.61947   -83.309334    133026.66    -41835.05    2545.8552   -44380.905    21.204743    0.9388606 
   33300    205.99243   -90.173526    133028.56   -41771.511    2562.9375   -44334.449     21.00936   0.93884723 
   33400    204.41098   -185.51683    133059.55   -41850.608    2543.2612   -44393.869    21.085839   0.93862854 
   33500    205.90334   -43.139059    132971.15   -41828.427     2561.829   -44390.256    21.246138   0.93925252 
   33600    207.08414   -88.448616     133035.4   -41807.242    2576.5204   -44383.763    21.338463    0.9387989 
   33700    205.37119     28.39732    133030.92   -41796.152     2555.208    -44351.36    21.397284   0.93883053 
   33800    205.63863   -93.352699    133078.59   -41796.848    2558.5355   -44355.383    21.237038   0.93849427 
   33900    208.55369   -147.35793    133069.24    -41803.54    2594.8043   -44398.344    21.190464   0.93856019 
   34000    209.24837   -145.09914    133008.42   -41776.027    2603.4476   -44379.474    21.477529   0.93898939 
   34100    199.86265    74.099813     132914.8   -41810.588    2486.6713   -44297.259    21.363216   0.93965075 
   34200    204.86889    -255.4131     133172.7   -41810.989    2548.9585   -44359.948    21.357498   0.93783103 
   34300    204.25704   -94.945046    133146.21   -41865.403    2541.3459   -44406.748     21.28106    0.9380176 
   34400    208.68102   -7.6094295    133223.28   -41800.786    2596.3887   -44397.175    21.472328   0.93747496 
   34500    205.10712   -123.77757    133131.93   -41829.117    2551.9225   -44381.039    21.254796    0.9381182 
   34600    206.72575   -285.75414    132976.11   -41821.639    2572.0613   -44393.701    21.404873   0.93921748 
   34700    202.62449   -118.39591    132878.35    -41893.45    2521.0339   -44414.484    21.219051    0.9399085 
   34800    203.75026   -89.639853    132964.29   -41875.775    2535.0406   -44410.815    21.252007   0.93930104 
   34900    203.48781   -70.295738    133043.28   -41867.218    2531.7752   -44398.993    21.483726    0.9387433 
   35000    201.69798   -155.93657    133141.59    -41936.95    2509.5063   -44446.456    21.516693   0.93805016 
   35100     199.8896   -143.76405    133151.63   -41879.981    2487.0066   -44366.988    21.557413   0.93797946 
   35200    202.87994   -77.630111    133033.99   -41874.185    2524.2122   -44398.398    21.385803    0.9388089 
   35300     200.5356   -103.26107    133107.76   -41856.171    2495.0441   -44351.215    21.326314   0.93828859 
   35400    202.10694   -86.923239    133177.01   -41864.105    2514.5946     -44378.7    21.426693   0.93780066 
   35500    204.50881   -169.56642    133166.45   -41769.108    2544.4784   -44313.586    21.405959   0.93787503 
   35600    204.76155   -173.17315       133050   -41800.917     2547.623    -44348.54    21.434664   0.93869588 
   35700    207.67988   -75.990053    133103.01   -41774.058    2583.9326    -44357.99    21.385737    0.9383221 
   35800    206.64937   -125.94488    133041.09   -41796.179     2571.111    -44367.29     21.43235   0.93875876 
   35900    204.10643   -79.588917    132922.31   -41754.123    2539.4721   -44293.595    21.452705   0.93959765 
   36000    205.18911   -32.425397    133034.46   -41721.387    2552.9427   -44274.329    21.526684   0.93880554 
   36100    205.78319   -245.24469    133001.32    -41746.94    2560.3341   -44307.274     21.61227   0.93903949 
   36200     204.2018   -93.050014    132930.72   -41770.737    2540.6586   -44311.396    21.513888   0.93953822 
   36300    200.91347   -105.45202    133039.75   -41826.185    2499.7455   -44325.931    21.609125   0.93876823 
   36400     205.0377   -31.092853    133006.98   -41773.933    2551.0588   -44324.992      21.6761   0.93899953 
   36500    204.21365   -223.97932    132978.03   -41755.916    2540.8061   -44296.722    21.525228   0.93920393 
   36600    202.97466   -93.213092    132875.14   -41887.455    2525.3906   -44412.845    21.717515    0.9399312 
   36700    205.85263   -48.964863    132835.48   -41834.259    2561.1981   -44395.457    21.689578   0.94021187 
   36800    200.81419   -142.10434     132854.8   -41833.647    2498.5104   -44332.158    21.692411   0.94007508 
   36900    201.15112    -211.1739    132701.48   -41843.159    2502.7024   -44345.862    21.741734   0.94116125 
   37000    205.22326    -68.44718    132962.14   -41778.556    2553.3675   -44331.923    21.815002   0.93931621 
   37100     206.5836   -33.882144    133072.75   -41774.913    2570.2927   -44345.206    21.770502   0.93853541 
   37200    206.91399   -122.35212    133083.95   -41816.139    2574.4035   -44390.542     21.77221   0.93845643 
   37300    201.70604   -12.063698    133178.85   -41836.558    2509.6066   -44346.165    21.856998   0.93778773 
   37400    200.61356   -150.74363    133143.19   -41865.819    2496.0141   -44361.833    21.822077   0.93803891 
   37500    200.86202   -3.3402674    133036.48   -41859.831    2499.1054   -44358.936    21.863562   0.93879131 
   37600    203.23586   -40.102351    133041.45   -41825.561    2528.6405   -44354.201     21.97862   0.93875626 
   37700    205.11243   -141.48055    133054.67   -41832.377    2551.9886   -44384.366    21.977002   0.93866294 
   37800    198.72988   -126.07202    132865.52   -41923.967    2472.5775   -44396.544    21.922278   0.93999927 
   37900    201.69847   -160.44488    132800.08   -41874.302    2509.5124   -44383.815     21.81965   0.94046247 
   38000    201.74922   -307.72449    132814.43    -41845.92    2510.1439   -44356.064    21.801765   0.94036087 
   38100    203.08364   -158.05808     132910.4   -41803.278    2526.7465   -44330.024    21.923211   0.93968189 
   38200    201.51254   -104.59304    132995.05   -41817.023    2507.1991   -44324.222    21.893017   0.93908373 
   38300    207.35426    -57.18149    132981.89   -41766.613    2579.8812   -44346.494    21.975743   0.93917667 
   38400    207.24634   -178.48672    132936.98   -41829.639    2578.5384   -44408.177    22.099729   0.93949394 
   38500    204.12876    -72.26314    132943.98   -41855.918    2539.7499   -44395.668    22.020339    0.9394445 
   38600     208.7113   -73.025901     132949.9   -41823.014    2596.7653   -44419.779    22.106701   0.93940264 
   38700      203.103   -93.096629    133031.27   -41837.059    2526.9874   -44364.046     22.11335   0.93882807 
   38800    201.00184   -197.89271    133007.07   -41848.336    2500.8451   -44349.181    22.192343   0.93899888 
   38900    208.20598   -80.853611    132977.44   -41803.604    2590.4782   -44394.082    22.074242   0.93920809 
   39000    203.58448   -96.876636    132863.64   -41836.558     2532.978   -44369.536    22.160102   0.94001254 
   39100    203.91975   -48.570936       132947   -41799.014    2537.1494   -44336.163    22.113724   0.93942318 
   39200    204.48182   -139.59704    132986.47   -41820.261    2544.1426   -44364.404     22.04535   0.93914438 
   39300    203.71684    5.8731711    133021.83   -41821.513    2534.6248   -44356.137    22.106349   0.93889468 
   39400    205.79027   -67.052075    133122.23   -41793.963    2560.4221   -44354.385    22.188751   0.93818661 
   39500     206.1534   -31.249529    133175.91   -41764.159    2564.9402   -44329.099    22.183561   0.93780844 
   39600    207.22436   -31.672353    133096.03   -41801.679     2578.265   -44379.944    22.099198   0.93837126 
   39700    207.67038   -188.05418    133047.55   -41762.909    2583.8144   -44346.724    22.069446    0.9387132 
   39800    204.14808   -87.588531    132998.54   -41821.168    2539.9902   -44361.159    22.110291    0.9390591 
   39900    200.43654   -115.74268    133227.79   -41864.687    2493.8117   -44358.499     22.39256   0.93744323 
   40000    198.63847   -88.334945    133118.21   -41887.793    2471.4402   -44359.233    22.377853   0.93821493 
   40100    205.64911   -171.86465    133138.96   -41798.136    2558.6659   -44356.801    22.319761    0.9380687 
   40200    203.91732   -90.284721    133093.46   -41811.807    2537.1192   -44348.927    22.343222   0.93838942 
   40300     207.0909   -59.447981    133156.37   -41810.536    2576.6046   -44387.141    22.439698   0.93794604 
   40400    206.90285   -55.120351    133055.78   -41731.229    2574.2649   -44305.493    22.368063   0.93865514 
   40500     207.9649    -147.4422    133137.41   -41728.181    2587.4788    -44315.66    22.453647   0.93807965 
   40600    203.13276    -15.01174    133186.25   -41770.621    2527.3577   -44297.979    22.458365   0.93773564 
   40700    203.40332   -111.99311    133305.72   -41819.553     2530.724   -44350.277    22.491538   0.93689522 
   40800    206.38506   -23.697491    133300.92    -41863.21    2567.8225   -44431.032    22.571447   0.93692897 
   40900    205.18152    -83.20577    133331.07   -41891.054    2552.8482   -44443.903     22.48949   0.93671708 
   41000    201.62855   -190.31289    133309.27   -41815.604    2508.6425   -44324.247    22.608905   0.93687029 
   41100    205.07326   -98.258775    133186.77   -41795.685    2551.5012   -44347.187    22.570843   0.93773195 
   41200    202.07655   -160.37976    133061.82   -41801.432    2514.2165   -44315.648    22.459759   0.93861255 
   41300    199.54154   -84.041918    133141.93    -41935.71    2482.6761   -44418.386    22.484115   0.93804775 
   41400    201.59672   -243.89621    133090.14   -41893.072    2508.2465   -44401.318    22.472075   0.93841282 
   41500    201.73773   -79.942314     133113.7   -41890.909    2510.0009    -44400.91    22.626186   0.93824673 
   41600    204.58327   -181.49433    133186.77   -41845.014    2545.4048   -44390.419    22.625965   0.93773194 
   41700    201.70826   -163.23148    133163.07   -41833.002    2509.6343   -44342.636    22.633481   0.93789885 
   41800    203.99754   -188.14502    133220.04   -41834.417    2538.1173   -44372.535     22.53155   0.93749777 
   41900    205.64635   -159.19164    133232.55   -41826.681    2558.6315   -44385.313    22.550522   0.93740977 
   42000    206.92092   -24.270346    133307.71   -41823.779    2574.4897   -44398.269    22.386849   0.93688123 
   42100    208.85539   -101.47136    133249.41   -41819.175    2598.5581   -44417.733    22.558338   0.93729111 
   42200    205.47741   -269.23183     133237.9   -41782.687    2556.5296   -44339.216    22.851234   0.93737212 
   42300    206.32622   -180.10669     133102.9   -41773.875    2567.0905   -44340.965    22.718595   0.93832286 
   42400    207.07093   -2.9819119    133127.32    -41799.69    2576.3561   -44376.046    22.646687   0.93815075 
   42500    208.48523   -156.36395    133189.98   -41792.571    2593.9526   -44386.524    22.733838    0.9377094 
   42600    202.41917   -55.287626    133228.46   -41803.857    2518.4793   -44322.337    22.577257   0.93743854 
   42700    203.26037   -34.813922    133435.57   -41798.549    2528.9455   -44327.494    22.585328   0.93598353 
   42800    203.65495   -187.52084    133344.94    -41766.53    2533.8547   -44300.385    22.632793   0.93661969 
   42900    206.60422   -95.804428    133270.45   -41835.072    2570.5493   -44405.621    22.764003   0.93714316 
   43000    203.20758   -89.842338    133286.19   -41863.839    2528.2886   -44392.127    22.718678   0.93703252 
   43100    202.32686   -62.375595    133314.93   -41837.972    2517.3307   -44355.303    22.740808   0.93683047 
   43200    205.88262   -140.97739    133224.84   -41801.873    2561.5712   -44363.445    22.734782   0.93746397 
   43300    206.39304   -78.686149     133323.3   -41823.798    2567.9219    -44391.72    22.813478   0.93677168 
   43400    204.38639   -157.19792    133279.64   -41793.565    2542.9553   -44336.521    22.746918   0.93707856 
   43500    208.12488   -28.152022    133401.47   -41803.658    2589.4692   -44393.127    22.752037   0.93622277 
   43600    211.37385   -46.033295     133319.8   -41732.566    2629.8925   -44362.459    22.786147   0.93679629 
   43700    208.23995    -99.59264    133453.17   -41757.616    2590.9009   -44348.517    22.840728   0.93586006 
   43800    204.82235   -172.99703    133345.25   -41762.064    2548.3794   -44310.444    22.756483   0.93661744 
   43900    206.47688   -81.996523    133543.67   -41791.892    2568.9649   -44360.856    22.900047   0.93522587 
   44000    204.98683   -19.929994    133462.55   -41817.838    2550.4258   -44368.264    22.920793   0.93579426 
   44100    205.73239   -68.793446     133560.1   -41830.457    2559.7021   -44390.159    22.894973   0.93511077 
   44200    199.67809    -74.94459     133517.3   -41859.259    2484.3751   -44343.634    22.888937   0.93541056 
   44300    201.56747   -235.75633    133456.45   -41866.827    2507.8825    -44374.71    22.836365   0.93583702 
   44400     204.9263   -95.429368    133427.51    -41834.18    2549.6727   -44383.853    22.874872   0.93604006 
   44500    204.75168    -95.01797     133428.1   -41864.178    2547.5001   -44411.678    23.086479   0.93603593 
   44600    202.94815    13.713909     133484.8   -41914.249    2525.0608    -44439.31    22.988254   0.93563833 
   44700    204.23289     45.88319    133416.75   -41898.997    2541.0454   -44440.042     23.05874   0.93611556 
   44800    204.83843   -205.59454    133474.72   -41865.412    2548.5795   -44413.991    23.096241   0.93570893 
   44900    206.03262   -82.961256     133423.1    -41822.29    2563.4375   -44385.728    22.934829   0.93607099 
   45000    209.22654   -62.595738    133358.76   -41824.003    2603.1759   -44427.179    23.041351   0.93652259 
   45100    208.44151    -229.2058    133301.49   -41785.142    2593.4087   -44378.551    22.974615   0.93692495 
   45200    207.75264   -178.09772     133486.7   -41863.421    2584.8378   -44448.259    23.035945   0.93562498 
   45300    205.83225   -65.549549    133426.98   -41872.148    2560.9445   -44433.093    23.274951   0.93604377 
   45400    204.60136    -40.76318     133303.8   -41858.266    2545.6299   -44403.896    23.337078   0.93690874 
   45500    205.86945   -73.257441    133394.84   -41872.328    2561.4073   -44433.735    23.264909    0.9362693 
   45600    205.85777   -204.76964    133425.15   -41878.509     2561.262   -44439.771    23.282274   0.93605662 
   45700     201.8652   -140.16548    133373.41   -41873.473    2511.5868    -44385.06    23.173562   0.93641973 
   45800    208.07104   -139.03039     133372.8   -41839.286    2588.7994   -44428.086      23.1722   0.93642401 
   45900    206.94053     -182.309    133346.75   -41778.485    2574.7337   -44353.219    23.386554   0.93660691 
   46000    205.98334   -146.97579    133355.88   -41771.234    2562.8244   -44334.058    23.307889   0.93654281 
   46100    208.96813   -88.770276    133391.19   -41724.552    2599.9608   -44324.513    23.323375    0.9362949 
   46200     208.6928   -173.45623    133528.17    -41716.17    2596.5352   -44312.705    23.507918   0.93533438 
   46300    209.44322   -98.150989    133526.52   -41742.303    2605.8718   -44348.175    23.438697   0.93534597 
   46400    210.02191   -111.05017    133548.05   -41786.196    2613.0719   -44399.268    23.312634   0.93519518 
   46500    206.47641   -45.315408    133584.04   -41808.116    2568.9591   -44377.075    23.256619   0.93494319 
   46600    210.87529   -10.529818    133695.23    -41812.72    2623.6895   -44436.409    23.449921   0.93416562 
   46700    207.88747   -167.26291    133633.56   -41887.365    2586.5153   -44473.881     23.63596   0.93459672 
   46800    202.09568   -153.78631    133452.72   -41942.934    2514.4544   -44457.388    23.661614   0.93586323 
   46900    206.68676   -42.638694    133538.71   -41875.408    2571.5762   -44446.984    23.502699   0.93526061 
   47000    205.18932   -163.73317    133628.42   -41857.897    2552.9452   -44410.842    23.490603    0.9346327 
   47100    209.89287   -173.18565    133595.42   -41844.458    2611.4664   -44455.924    23.562426    0.9348636 
   47200    209.29072   -74.769889    133665.39   -41897.729    2603.9744   -44501.704     23.53784   0.93437419 
   47300    205.25248   -191.57538    133803.94   -41926.053     2553.731   -44479.784    23.749952    0.9334067 
   47400    204.17631   -40.059123    133868.88   -41885.426    2540.3414   -44425.767    23.767132   0.93295385 
   47500    205.41591   -256.38895    133657.33    -41837.17    2555.7645   -44392.934     23.82875   0.93443054 
   47600    208.26563   -53.653153    133682.59   -41798.721    2591.2204   -44389.942    23.759559   0.93425396 
   47700    210.15377   -154.91601    133628.85   -41852.846    2614.7124   -44467.559    23.688734   0.93462967 
   47800    205.30409    -39.16043    133515.55   -41865.453    2554.3732   -44419.827    23.578522   0.93542281 
   47900     205.0242   -117.11284    133422.43   -41933.067    2550.8909   -44483.958     23.73565   0.93607565 
   48000      203.217   -54.207458    133493.26   -41949.698    2528.4058   -44478.103    23.742133   0.93557901 
   48100    206.46445    -23.11869    133576.18   -41912.586    2568.8103   -44481.396     23.74519   0.93499825 
   48200     200.7151    16.487177    133463.52   -41936.307    2497.2775   -44433.585    23.695832   0.93578748 
   48300    203.45446   -151.75629    133504.57   -41916.088    2531.3602   -44447.448    23.820411   0.93549972 
   48400    207.21866   -45.583187    133711.62   -41842.429    2578.1941   -44420.623    23.846946   0.93405111 
   48500    208.16065   -178.34901    133717.44   -41924.848    2589.9143   -44514.762    23.717842    0.9340105 
   48600     203.2231   -159.90705    133699.79   -41922.333    2528.4817   -44450.815    23.750873   0.93413376 
   48700    210.42847   -31.779126    133759.73   -41886.824    2618.1303   -44504.954    23.821721   0.93371519 
   48800     203.7728     -74.0264    133725.37   -41923.848    2535.3211   -44459.169    23.976604   0.93395512 
   48900    205.03273   -26.884071    133890.04   -41915.616     2550.997   -44466.613    23.920289   0.93280647 
   49000    206.20743   -169.40887    133987.65   -41953.018    2565.6125   -44518.631    23.750643   0.93212689 
   49100    204.27306   -182.83807    133945.71   -41953.901    2541.5452   -44495.446    23.701117   0.93241876 
   49200    210.38675    -168.0757    133943.46   -41974.305    2617.6112   -44591.917    23.821498   0.93243438 
   49300    205.71745    6.5384681     133947.8   -41939.444    2559.5162   -44498.961    23.852611   0.93240423 
   49400    204.73624   0.54823616    133919.08   -41911.006     2547.308   -44458.315    23.912679   0.93260415 
   49500    207.00942    -129.4286    133880.62   -41928.165    2575.5908   -44503.756    23.931179    0.9328721 
   49600     205.4466    58.739378    133827.35    -41903.72    2556.1463   -44459.867    23.944093   0.93324337 
   49700     205.7473   -4.8166583    133913.19    -41929.05    2559.8876   -44488.938    23.891313    0.9326452 
   49800    202.05688   -107.58795    134036.59   -41971.903    2513.9717   -44485.875    23.882398   0.93178654 
   49900    203.89612   -111.32106     133881.6   -41863.096    2536.8553   -44399.951     23.98996   0.93286526 
   50000    205.07043   -133.69738    133894.17   -41906.815     2551.466   -44458.281    23.895124   0.93277769 
   50100    209.30681   -153.75592    133840.64   -41913.413    2604.1747   -44517.588     23.83775   0.93315072 
   50200     202.6276   -134.45587    133851.61   -41948.519    2521.0725   -44469.592    23.924472   0.93307426 
   50300    206.43249    -174.8163    134024.14   -41931.058    2568.4126    -44499.47     24.01094    0.9318731 
   50400    205.43435   -148.92443    134020.52    -41964.78    2555.9938   -44520.774    23.846738   0.93189829 
   50500    200.36766   -105.36171    133999.41   -41997.049    2492.9547   -44490.003    23.954227    0.9320451 
   50600    202.60629   -54.647611    133935.73   -42015.647    2520.8074   -44536.455    24.083141   0.93248824 
   50700    202.49116   -245.65499    133820.78    -42021.26    2519.3749   -44540.635    24.143903   0.93328922 
   50800    204.01477   -100.11603    133854.48   -42008.196    2538.3316   -44546.528    24.169874   0.93305427 
   50900    202.25494   -201.57539    133912.03   -41942.689     2516.436   -44459.125    24.056345   0.93265323 
   51000    204.32951   -100.62223    134020.92   -41963.432    2542.2476   -44505.679    24.118254   0.93189547 
   51100    203.58805   -101.29666    133810.39   -42000.532    2533.0223   -44533.555    24.095967   0.93336168 
   51200    205.09302   -157.17166    133783.94   -41973.221     2551.747   -44524.968    23.999413   0.93354624 
   51300    203.52433   -186.52326    133688.63   -42038.731    2532.2296   -44570.961     24.10725   0.93421177 
   51400    200.69652   -226.45921    133656.57   -42029.129    2497.0463   -44526.175    24.181971   0.93443585 
   51500    200.22132   -126.20235    133597.66   -42027.028    2491.1339   -44518.161    24.230304    0.9348479 
   51600    205.95528    12.944543     133813.7   -41956.862    2562.4752   -44519.337    24.184167   0.93333856 
   51700     204.2399    -10.69819    133930.05   -41954.451    2541.1326   -44495.583    24.296708   0.93252779 
   51800     205.6978   -86.229879    133763.76    -41991.03    2559.2717   -44550.302    24.332205   0.93368703 
   51900    200.96674   -42.365115    133808.98   -42033.748    2500.4083   -44534.156    24.336008   0.93337154 
   52000    199.14451   -109.79657    133836.71   -42039.228    2477.7363   -44516.965    24.319705   0.93317813 
   52100    201.27221   -38.812081    133914.32   -41968.817    2504.2089   -44473.026    24.469577   0.93263729 
   52200    204.73179   -136.91125     133870.7   -41993.713    2547.2527   -44540.965     24.36072   0.93294118 
   52300    204.04696   -57.848525    133929.83   -41984.881    2538.7321   -44523.614    24.421808   0.93252927 
   52400    205.98405   -217.54986    133875.83    -41950.74    2562.8331   -44513.573    24.398221   0.93290546 
   52500    205.78377   -69.294061    133855.78   -41946.691    2560.3413   -44507.032    24.436939   0.93304518 
   52600    204.44526   -93.423578    133938.16   -41979.561    2543.6877   -44523.249     24.41914   0.93247133 
   52700    202.92087   -176.11542    133761.14     -42000.2    2524.7214   -44524.921    24.413547   0.93370534 
   52800    204.56028   -92.083836    133819.38   -41967.426    2545.1187   -44512.545    24.480863   0.93329898 
   52900     204.1652   -113.68196    133935.32   -41957.838    2540.2033   -44498.042    24.596966   0.93249109 
   53000    207.45222   -267.55162    133951.89   -41935.974       2581.1   -44517.074    24.457599   0.93237575 
   53100    200.60691   -128.45492     133848.1   -41982.163    2495.9314   -44478.095    24.382831   0.93309871 
   53200    205.44524   -194.09135    133955.61   -41981.713    2556.1294   -44537.843    24.464538   0.93234987 
   53300    207.83347   -81.913493    133864.77   -41972.461    2585.8435   -44558.305    24.503405   0.93298255 
   53400    200.36821   -208.29727    133800.37   -42036.436    2492.9615   -44529.398    24.561824   0.93343162 
   53500    203.74228    6.2286832    133664.16   -42038.305    2534.9413   -44573.246    24.463105   0.93438277 
   53600    204.90182   -2.5629718    133864.27   -42045.324    2549.3682   -44594.692    24.613507   0.93298598 
   53700    202.33291    58.883379    133947.45   -42066.861     2517.406   -44584.267    24.743276   0.93240663 
   53800    205.08383   -215.42251     134007.9    -41961.43    2551.6327   -44513.062    24.702204   0.93198606 
   53900    201.71125   -120.17894    134027.54   -42018.299    2509.6715   -44527.971    24.680508   0.93184949 
   54000    203.80841   -106.37795    133956.02   -41994.197    2535.7641   -44529.961    24.604128   0.93234695 
   54100    201.53995   -24.975135    133858.03   -42004.021    2507.5402   -44511.562    24.484174   0.93302948 
   54200     203.2837   -175.92958    133867.38    -41992.49    2529.2357   -44521.726    24.625745   0.93296432 
   54300    205.36968   -47.727072     133954.1   -41961.109    2555.1892   -44516.298    24.760595   0.93236034 
   54400    204.05137     -73.9017    134040.56   -41996.265    2538.7869   -44535.052    24.754041   0.93175896 
   54500    202.17516   -137.61456    134091.53   -41995.988    2515.4433   -44511.431    24.762368   0.93140477 
   54600    209.24222   -22.015433    134054.04   -41905.397    2603.3711   -44508.768     24.70377   0.93166526 
   54700    204.49048      8.77171    134150.44   -41921.425    2544.2504   -44465.676    24.823875   0.93099579 
   54800    205.49262    -241.1345    133931.74    -41974.91    2556.7189   -44531.629    24.792352   0.93251602 
   54900    203.03781   -125.63795    133678.72   -42022.685    2526.1763   -44548.862    24.603736   0.93428102 
   55000    203.88749   -133.04578     133692.4   -42062.612     2536.748    -44599.36     24.51733   0.93418539 
   55100    204.11061   -58.049957    133858.96   -42025.324    2539.5241   -44564.848    24.530546     0.933023 
   55200    204.93004   -141.92328    133832.45   -42031.284    2549.7193   -44581.004    24.543318   0.93320786 
   55300    203.17821   -145.04422    133914.43   -41989.596    2527.9232   -44517.519    24.768976   0.93263653 
   55400    204.70236   -159.14173    133893.79    -41966.53    2546.8866   -44513.416    24.766632   0.93278033 
   55500    205.20248   -106.27694    133836.88   -41927.153     2553.109   -44480.262    24.759365   0.93317693 
   55600    205.72068   -48.444264    133817.73   -41964.442    2559.5564   -44523.999    24.898714   0.93331046 
   55700    202.48188   0.28428775    133744.16   -41961.069    2519.2595   -44480.328    24.836371   0.93382389 
   55800    207.02728    22.374784    133750.77   -41965.924     2575.813   -44541.737    24.733901   0.93377774 
   55900    208.72341   -179.93505    133787.04   -41925.442    2596.9161   -44522.358    24.613041   0.93352456 
   56000    204.99887   -167.02382       133806   -41923.044    2550.5756    -44473.62    24.631527   0.93339234 
   56100    206.99681   -92.646813    133827.79   -41891.804    2575.4338   -44467.238     24.78072    0.9332403 
   56200    207.24013   -132.66371    133903.26   -41891.248    2578.4612   -44469.709    24.829953   0.93271435 
   56300    205.76922    6.5635911    133827.52    -41913.88    2560.1603    -44474.04    24.845849   0.93324218 
   56400    204.50211   -198.26871    133756.23   -41899.358     2544.395   -44443.753    24.723122   0.93373961 
   56500    201.38146   -128.35873    133848.38   -41962.125    2505.5683   -44467.693    24.759412    0.9330968 
   56600    202.84815   -125.20722    133891.32    -41974.96    2523.8167   -44498.777    24.914073   0.93279749 
   56700    200.46171   -44.213092    133891.13   -41997.066    2494.1247   -44491.191    24.948121   0.93279885 
   56800    207.80558   -47.455404    133933.19   -41932.681    2585.4965   -44518.177    24.772155   0.93250588 
   56900     205.0096   -199.45887    133827.13   -41911.668    2550.7092   -44462.377    24.943849   0.93324495 
   57000    208.14395   -122.97812    133987.45   -41875.168    2589.7064   -44464.874     24.98469   0.93212829 
   57100    208.27806   -44.209753    133843.56   -41927.101    2591.3751   -44518.476    24.928304    0.9331304 
   57200    202.44102   -68.323771     133959.4   -41976.416    2518.7512   -44495.167    24.896999   0.93232346 
   57300    202.53081   -144.21499    133925.78   -42035.435    2519.8684   -44555.303    24.850374    0.9325575 
   57400     200.3479   -17.815676    133976.17    -42036.17    2492.7087   -44528.879    24.927036   0.93220676 
   57500    198.94336   -17.739676    133910.98   -42082.796    2475.2336    -44558.03    24.880206   0.93266055 
   57600    203.52584   -12.431174    133903.82   -42043.745    2532.2484   -44575.994    25.007652   0.93271044 
   57700     204.6863    -42.70446    134019.26   -42072.952    2546.6867   -44619.639    24.856618   0.93190702 
   57800    201.28038   -22.333355    134079.87   -42096.344    2504.3106   -44600.655    24.966268   0.93148579 
   57900    207.86918   -85.015349    134135.36   -42077.938    2586.2878   -44664.226    25.175245   0.93110045 
   58000    201.79921    -83.30007    134164.53   -42080.023    2510.7658   -44590.789    25.080574   0.93089799 
   58100    205.38828   -31.648289    134169.83   -42034.285    2555.4207   -44589.706     25.10213   0.93086122 
   58200    206.74398    18.992596    134140.44   -41981.911    2572.2882   -44554.199    25.011705   0.93106517 
   58300    207.45455   -116.36017     134250.6   -41921.895     2581.129   -44503.024    24.985753   0.93030115 
   58400    208.74837   -108.83317    134307.87   -41936.773    2597.2266       -44534    24.963357   0.92990447 
   58500    210.74514   -199.05575    134367.11   -41934.936    2622.0702   -44557.006    25.035577   0.92949451 
   58600    206.90892   -30.936006    134312.57   -41907.376    2574.3404   -44481.716     25.18233   0.92987191 
   58700    209.68734   -63.788686    134361.59   -41917.116    2608.9092   -44526.025     25.10201   0.92953268 
   58800    207.83907   -185.06043    134305.61    -41973.39    2585.9132   -44559.303    25.035709   0.92992015 
   58900     204.0894   -120.00048    134285.98   -42006.772    2539.2602   -44546.032     24.98808   0.93005608 
   59000    203.55495   -48.459673    134134.02   -41998.991    2532.6106   -44531.601    25.010394   0.93110975 
   59100    204.46619   -140.37378    134128.79   -42003.687    2543.9481   -44547.635    24.933676   0.93114606 
   59200    206.17754   -170.85107    134214.12   -42010.386    2565.2406   -44575.626    25.112544   0.93055401 
   59300     204.6811   -86.363957     134192.8   -42003.845     2546.622   -44550.467    25.213202    0.9307019 
   59400    205.78729    -89.48014    134244.78    -42052.74    2560.3852   -44613.125    25.209444   0.93034151 
   59500    202.76318    -135.3147    134182.79   -42006.601    2522.7594    -44529.36    25.069964   0.93077129 
   59600    206.45672   -192.92285    134136.07    -42005.39     2568.714   -44574.104    25.036303   0.93109551 
   59700    205.42209   -103.55541    134248.02   -42031.768    2555.8413    -44587.61    25.089395   0.93031905 
   59800    201.04194   -175.87065    134274.99   -42023.055    2501.3439   -44524.399    25.144922    0.9301322 
   59900    200.30067   -184.03687    134071.53   -42004.556    2492.1211   -44496.677    25.135025   0.93154374 
   60000    201.05608   -63.220136    134005.56   -42028.859    2501.5199   -44530.379    25.036152   0.93200232 
   60100    205.46656   -127.67429    134111.94   -41985.814    2556.3946   -44542.209    25.245624   0.93126301 
   60200    203.43585   -205.89794    134109.59   -41966.788    2531.1287   -44497.917    25.049471   0.93127936 
   60300     205.4495   -222.83516    134005.76   -41918.794    2556.1824   -44474.976    25.036202   0.93200089 
   60400    210.05241   -85.053525    134077.95    -41870.21    2613.4513   -44483.661    25.091122   0.93149909 
   60500    208.92103   -147.49901    133947.74   -41920.762    2599.3748   -44520.136    25.106583    0.9324046 
   60600    204.42726    -244.8786    134041.61   -41959.544    2543.4638   -44503.008    25.221032   0.93175164 
   60700    203.52535   -132.67189    133971.73   -41981.348    2532.2423    -44513.59    25.149973   0.93223764 
   60800    204.38651   -105.85742    133865.98   -41936.462    2542.9567   -44479.418     25.07804   0.93297409 
   60900    205.90467    15.252197    133879.86   -41931.534    2561.8455    -44493.38     25.33271   0.93287739 
   61000    204.19156   -35.429081    133968.41   -41957.512    2540.5313   -44498.043    25.228266   0.93226077 
   61100    202.98234   -93.954077    133939.05   -41991.792    2525.4862   -44517.278    25.158642   0.93246509 
   61200    203.11394   -67.229614    134007.52   -41996.322    2527.1236   -44523.446    25.235508   0.93198868 
   61300    205.80197   -34.067665    134019.72   -41986.614    2560.5677   -44547.182    25.138202   0.93190385 
   61400    206.39257   -52.479969    134038.55    -42018.93     2567.916   -44586.846    25.203227    0.9317729 
   61500    203.36178   -118.74299    134043.83   -42026.735    2530.2071   -44556.943    25.198737   0.93173623 
   61600     203.3575   -78.508027    134032.74     -41983.9    2530.1539   -44514.054    25.208948   0.93181333 
   61700    201.98872   -92.941424    134059.91   -42049.549    2513.1237   -44562.672    25.189904   0.93162447 
   61800    201.76794   -174.98278    134111.33   -42101.291    2510.3768   -44611.668    25.058483   0.93126725 
   61900    203.75944   -110.89515    134120.02   -42043.412    2535.1548   -44578.567    25.215672   0.93120692 
   62000    203.17926   -61.746822    134265.95   -42002.239    2527.9363   -44530.175    25.121346   0.93019479 
   62100    206.18659   -59.555805    134344.84   -42016.709    2565.3532   -44582.062    25.359724   0.92964862 
   62200    204.90613   -51.139203    134184.77   -41974.244    2549.4219   -44523.666    25.500133   0.93075758 
   62300    203.79666   -16.793895    134233.47   -42002.967    2535.6179   -44538.585    25.485317   0.93041991 
   62400    201.57182   -50.255045    134178.13   -41952.649    2507.9367   -44460.586    25.316505   0.93080365 
   62500    206.10799   -137.80269    134376.23   -41947.272    2564.3753   -44511.647    25.289705   0.92943142 
   62600    206.52637   -69.889923    134293.71   -41950.348    2569.5806   -44519.929    25.355991   0.93000252 
   62700    202.34999   -188.90594    134258.26   -41978.841    2517.6185   -44496.459    25.521257   0.93024812 
   62800    203.16488   -206.10391    134172.96   -41963.835    2527.7574   -44491.592     25.35298   0.93083947 
   62900    209.81452   -28.576992    134220.42   -41912.611    2610.4915   -44523.103    25.290327   0.93051038 
   63000    208.34143   -59.767127    134190.27   -41884.099    2592.1635   -44476.262    25.312329   0.93071944 
   63100    210.01521   -19.022787    134163.81    -41887.76    2612.9885   -44500.749    25.395223   0.93090301 
   63200    207.31058    34.331289    134168.57    -41930.95    2579.3377   -44510.288    25.491271   0.93086996 
   63300    203.68642   -189.03737    134187.24   -41963.439    2534.2462   -44497.685    25.480147   0.93074048 
   63400    208.78686   -114.18388    134312.26   -41898.983    2597.7055   -44496.688    25.483681   0.92987407 
   63500    206.45549   -18.914336    134253.19   -41989.215    2568.6988   -44557.914    25.495861   0.93028322 
   63600    207.68469   -63.144358    134345.85   -41980.211    2583.9924   -44564.204    25.454523   0.92964157 
   63700    203.44705   -131.70721    134428.57   -41984.665    2531.2681   -44515.933    25.519048   0.92906958 
   63800    204.78861   -149.65397    134461.18   -42076.509    2547.9597   -44624.469    25.590472    0.9288442 
   63900    200.73627   -83.139832    134349.18   -42057.827    2497.5408   -44555.368    25.688843   0.92961858 
   64000    202.12123   -77.670691    134331.51   -42051.046    2514.7724   -44565.819     25.69367   0.92974086 
   64100    202.88152   -67.417765    134424.45   -41971.895    2524.2318   -44496.126    25.776667   0.92909802 
   64200    207.18507   -13.527302    134485.35   -41964.452    2577.7762   -44542.228    25.625966   0.92867733 
   64300     207.3377   -60.954002    134392.05   -41888.825    2579.6752     -44468.5      25.6063   0.92932199 
   64400    208.75614   -87.401135    134456.44    -41909.54    2597.3233   -44506.863    25.714989   0.92887695 
   64500     206.1884   -149.89077    134486.75   -41908.263    2565.3757   -44473.638    25.660873   0.92866763 
   64600     205.9017   -197.89617    134482.61   -41958.923    2561.8087   -44520.731    25.577941   0.92869622 
   64700    204.31607   -87.413417    134337.15   -41989.286    2542.0804   -44531.366    25.731619   0.92970181 
   64800    204.79793   -62.597198    134465.53   -41990.392    2548.0756   -44538.468    25.725642   0.92881421 
   64900    205.22399    57.185386    134604.48   -41975.231    2553.3767   -44528.607    25.637656   0.92785541 
   65000    209.81193   -62.792458    134581.33   -41941.653    2610.4593   -44552.113    25.590517   0.92801496 
   65100    202.19254   -203.74278    134511.64   -41975.873    2515.6595   -44491.533    25.704719   0.92849579 
   65200    205.24421   -61.079667    134333.37   -41968.749    2553.6282   -44522.377    25.707885   0.92972794 
   65300    205.98312   -25.848847    134403.24   -41964.515    2562.8216   -44527.337    25.694993   0.92924465 
   65400    208.98539   -169.15507    134180.21   -41913.274    2600.1755    -44513.45    25.739187    0.9307892 
   65500    203.61273   -49.033296    134509.47   -41974.936    2533.3294   -44508.265     25.75945   0.92851074 
   65600    203.13415    -39.73545    134568.28    -42011.25    2527.3751   -44538.625    25.738311   0.92810495 
   65700    200.37777   -112.46809    134410.91   -42048.356    2493.0804   -44541.436    25.761098   0.92919162 
   65800    205.12486   -136.65824    134447.21   -42050.072    2552.1433   -44602.216    25.773478   0.92894073 
   65900    203.24625   -29.224396       134482   -42024.354    2528.7697   -44553.124    25.884951    0.9287004 
   66000    207.39998   -55.930198    134551.28   -41935.606    2580.4501   -44516.056    25.937968   0.92822226 
   66100    207.30403   -87.743815    134516.66    -41895.03    2579.2563   -44474.286    25.851085   0.92846117 
   66200    208.50187    -30.74554    134466.07   -41845.719    2594.1597   -44439.879    25.778292   0.92881046 
   66300    209.18479    69.018152    134493.82   -41894.485    2602.6564   -44497.141    25.904376   0.92861884 
   66400    209.37216   -155.55247    134535.25   -41938.865    2604.9878   -44543.852    25.895676   0.92833282 
   66500    203.15806   -99.983879    134545.17   -41958.284    2527.6725   -44485.956     25.92602   0.92826441 
   66600    205.24447   -64.276253    134485.16   -41987.508    2553.6314    -44541.14    26.041615   0.92867864 
   66700    206.61705   -100.32466    134552.41   -42001.534    2570.7089   -44572.243    25.938026   0.92821442 
   66800    206.27762   -53.504763    134487.54   -41932.426    2566.4858   -44498.911    25.927705   0.92866215 
[...]
   84600    199.06268   -206.74567    134449.96   -42070.019    2476.7182   -44546.737     27.74616   0.92892172 
   84700      202.727   -69.173233    134600.06   -42080.784    2522.3093   -44603.093    27.643713   0.92788586 
   84800    205.56284   -130.68593    134496.43   -42060.462    2557.5925   -44618.055    27.611451   0.92860076 
   84900    201.85197   -71.733698    134444.84   -42044.004    2511.4222   -44555.426    27.691748    0.9289571 
   85000    207.70632   -71.727083     134467.3   -42001.201    2584.2615   -44585.462    27.729885   0.92880199 
   85100    203.68848   -140.79907    134461.23   -41992.924    2534.2719   -44527.196    27.700472   0.92884392 
   85200    205.49422   0.65218514    134478.95   -41999.832    2556.7388   -44556.571    27.687004   0.92872152 
   85300    204.33573   -198.01505    134371.36    -42025.88    2542.3249   -44568.205    27.657657   0.92946511 
   85400    202.34098   -247.88228     134453.5   -42021.853    2517.5064   -44539.359    27.869934   0.92889727 
   85500    206.33969   -151.37789     134466.5   -41986.254     2567.258   -44553.512    27.816013   0.92880748 
   85600    207.01013   -167.26913    134412.04   -41971.159    2575.5995   -44546.758    27.830258   0.92918379 
   85700    205.29054   -63.768043    134487.91    -42009.27    2554.2047   -44563.474     27.69873   0.92865962 
   85800    205.53083   -268.73855    134443.43    -42010.58    2557.1942   -44567.774    27.735507   0.92896684 
   85900    204.94469   -44.860884    134467.65   -41921.648    2549.9015    -44471.55    27.713185   0.92879955 
   86000    205.88415   -184.60756     134390.9   -41972.151    2561.5902   -44533.741    27.907687   0.92932999 
   86100    204.99489    -123.6215    134338.09    -41970.14    2550.5261   -44520.667    27.828181   0.92969528 
   86200    207.33971    33.950966    134408.07    -41938.71    2579.7002   -44518.411    27.824678   0.92921126 
   86300    205.15053    -99.63763    134334.89   -41976.693    2552.4626   -44529.156    27.678778   0.92971743 
   86400    203.76323   -24.721034    134408.98   -41991.735     2535.202   -44526.937    27.888856   0.92920497 
   86500    204.92721   -186.96254    134383.34   -41983.005    2549.6841    -44532.69    27.805402   0.92938222 
   86600    206.80887   -140.97717    134243.52   -41942.773    2573.0956   -44515.869     27.75915   0.93035025 
   86700    206.99557    -103.6173    134167.12   -41930.328    2575.4184   -44505.746    27.885571   0.93087999 
   86800    203.29468    -138.8876     134077.8   -41977.765    2529.3723   -44507.137    27.860442   0.93150016 
   86900    208.30249   -122.46336    134217.34   -41946.479     2591.679   -44538.158    27.763146   0.93053172 
   87000    206.26557   -131.89545    134211.67   -41964.578    2566.3359   -44530.914    27.892424   0.93057105 
   87100    204.82049   -51.498906    134142.09   -41983.519    2548.3563   -44531.875     27.74823   0.93105373 
   87200    203.93156   -115.14766    134113.15   -41991.679    2537.2963   -44528.975    27.807657   0.93125463 
   87300    204.27175   -36.485728    134206.76   -41991.348    2541.5289   -44532.877    27.998726   0.93060506 
   87400    205.83658   -40.866768    134198.14   -42006.406    2560.9984   -44567.404    28.004654   0.93066487 
   87500    201.11522   -70.558664    134135.97   -42014.978    2502.2557   -44517.233    27.973321   0.93109618 
   87600    204.66252   -211.14957    134154.09   -42011.271    2546.3908   -44557.661    27.911744    0.9309704 
   87700    204.12539   -58.194358    134282.44   -42026.696    2539.7079   -44566.404    27.827205   0.93008059 
   87800    204.55113   -67.639236    134397.72   -42004.581     2545.005   -44549.586     28.06454   0.92928282 
   87900    204.45846   -200.19511    134346.01   -42024.368    2543.8519    -44568.22    28.056422   0.92964049 
   88000    203.47344   -84.335012    134363.36    -42045.67    2531.5964   -44577.267    28.001395   0.92952042 
   88100    204.97569   -53.104669    134388.85   -41980.091    2550.2873   -44530.378    28.045187   0.92934416 
   88200    206.27086   -170.13368    134425.88   -41950.582    2566.4016   -44516.983    28.071304   0.92908813 
   88300    205.22187    -94.49059    134340.27   -41986.157    2553.3502   -44539.507    28.076097   0.92968023 
   88400    203.70744   -90.744057       134431   -42079.423    2534.5078   -44613.931    28.092217   0.92905275 
   88500    205.63097    -80.45968    134489.62   -42014.344    2558.4402   -44572.785    28.013545   0.92864779 
   88600    205.07652   -57.539464    134567.12   -41964.246    2551.5418   -44515.787    28.036218   0.92811301 
   88700    208.25316   -122.57994    134335.93    -41938.15    2591.0653   -44529.215    28.065539   0.92971028 
   88800    210.91911   -89.758319    134350.93   -41890.481    2624.2347   -44514.716    28.101471   0.92960642 
   88900    206.90298   -49.337089    134415.79   -41939.988    2574.2664   -44514.255    28.182352   0.92915787 
   89000    209.44388   -35.941075    134479.39   -41940.821      2605.88   -44546.701    28.255004   0.92871844 
   89100    206.05331   -64.043052    134354.88   -42021.328    2563.6949   -44585.023    27.968975   0.92957909 
   89200    206.07675   -107.92689    134514.09   -42056.435    2563.9865   -44620.422    28.279226    0.9284789 
   89300    201.84336   -146.98223    134509.17   -42088.967    2511.3151   -44600.282    28.243749   0.92851283 
   89400    201.44267   -151.80824    134528.02   -42119.284    2506.3298   -44625.614    28.213511   0.92838277 
   89500    202.69876   -4.5761204    134568.88   -42141.558    2521.9579   -44663.516    28.209655   0.92810083 
   89600    198.50203   -99.110335    134510.66   -42185.199    2469.7426   -44654.942    28.138515   0.92850256 
   89700    200.96468   -126.59204    134416.11   -42146.539    2500.3827   -44646.922    28.140329   0.92915564 
   89800    203.48615   -111.24657    134508.86   -42113.262    2531.7546   -44645.017    28.324811   0.92851499 
   89900    201.80108   -66.396104    134593.04    -42170.24    2510.7891   -44681.029    28.347211   0.92793426 
   90000    202.64592   -69.623401    134527.37   -42092.285    2521.3005   -44613.586    28.270446   0.92838722 
   90100    202.77179   -161.34978    134474.82   -42089.462    2522.8666   -44612.328     28.14961   0.92875005 
   90200    205.16408   -79.202321    134437.73   -42126.578    2552.6312   -44679.209    28.169483   0.92900625 
   90300    204.74121   -113.38393    134518.77   -42132.823    2547.3699   -44680.192    28.320077   0.92844656 
   90400    201.09891  -0.61047056     134470.7   -42123.758    2502.0527   -44625.811    28.333263   0.92877845 
   90500    202.11637    -21.02065    134485.42   -42076.714     2514.712   -44591.426    28.346748    0.9286768 
   90600    207.51036   -104.72763    134402.65    -42002.02    2581.8234   -44583.843    28.294193    0.9292487 
   90700    208.63357   -42.318645    134430.87    -41991.71    2595.7982   -44587.508    28.340856   0.92905365 
   90800    203.83283   -156.54848    134445.09   -42036.061    2536.0679   -44572.129     28.22103   0.92895537 
   90900    199.93465   -64.229629    134395.62   -42114.099    2487.5672   -44601.666    28.227227   0.92929733 
   91000    204.68578    44.641546    134478.46    -42127.72    2546.6803     -44674.4    28.332868   0.92872484 
   91100      203.873    3.7079267    134504.05   -42114.766    2536.5677   -44651.334    28.262038   0.92854815 
   91200    204.32729   -163.12625    134454.81   -42086.583      2542.22   -44628.803    28.441264   0.92888823 
   91300    205.79561   -116.23734     134518.8   -41992.945    2560.4886   -44553.434    28.479682   0.92844638 
   91400    208.96772   -35.051582    134602.31   -41974.039    2599.9557   -44573.995    28.386573   0.92787033 
   91500    210.59891   -174.45358    134570.57   -41999.165    2620.2509   -44619.416    28.415482   0.92808916 
   91600      203.362   -57.477524    134639.57   -42036.767    2530.2099   -44566.977    28.318995   0.92761357 
   91700     201.7861    -123.5792    134674.57   -42111.739    2510.6028   -44622.341    28.432534   0.92737252 
   91800    204.65582     -96.1702    134741.25   -42084.622    2546.3075    -44630.93    28.432595   0.92691358 
   91900    205.13531   -135.48408     134663.3   -42086.693    2552.2732   -44638.966    28.390892   0.92745009 
   92000    208.74976   -20.007679    134644.82    -42099.37    2597.2439   -44696.614    28.355503   0.92757742 
   92100    202.50535    -80.43442    134595.57   -42141.352    2519.5515   -44660.904    28.313695   0.92791679 
   92200    201.50266   -59.671665    134571.98   -42080.104    2507.0762    -44587.18    28.215565   0.92807947 
   92300    207.30443   -183.24323    134619.79   -42005.935    2579.2613   -44585.196    28.466605   0.92774985 
   92400    207.33266   -25.452077    134629.98   -42009.792    2579.6125   -44589.404    28.541387   0.92767966 
   92500    202.29434   -58.348572    134536.99   -42044.427    2516.9262   -44561.353     28.46681   0.92832082 
   92600    203.48733   -108.06535    134687.31    -42035.58    2531.7692   -44567.349    28.406609   0.92728475 
   92700    206.24252   -134.91027    134678.54   -42027.021    2566.0491    -44593.07    28.326903   0.92734515 
   92800    203.45828   -96.784122    134641.41   -42067.456    2531.4078   -44598.864    28.448335   0.92760087 
   92900    205.66646   -211.23747    134650.61    -42030.76    2558.8818   -44589.642     28.48256   0.92753749 
   93000    202.38492   -154.91491    134614.14    -42058.58    2518.0531   -44576.633     28.46232   0.92778881 
   93100    207.38471   -116.91922    134516.08   -42004.759    2580.2601   -44585.019    28.534609   0.92846513 
   93200    208.40044   -172.65557    134547.87   -42029.541    2592.8977   -44622.438    28.417512   0.92824578 
   93300    204.30881   -66.920935    134450.56   -42059.433      2541.99   -44601.423    28.507353   0.92891763 
   93400    201.75009   -109.89004    134439.69   -42080.321    2510.1547   -44590.476    28.454491   0.92899267 
   93500    202.29743   -48.276022    134439.45   -42120.098    2516.9647   -44637.063    28.443404   0.92899438 
   93600    200.00302   -113.94444       134415   -42184.771    2488.4178   -44673.189    28.382321   0.92916335 
   93700    203.60089   -107.23398    134354.55   -42150.469    2533.1822   -44683.651    28.372916   0.92958142 
   93800    207.38587   -133.97277    134292.13   -42107.478    2580.2744   -44687.753    28.556675   0.93001347 
   93900    202.72914   -192.44881    134359.23   -42096.762    2522.3359   -44619.098    28.510774     0.929549 
   94000     205.9771   -195.08965     134339.5   -42106.012    2562.7467   -44668.759    28.534188   0.92968552 
   94100    202.09276   0.85582882    134408.54   -42117.928    2514.4182   -44632.346    28.402668   0.92920799 
   94200    207.60472   -38.544439     134424.4   -42095.648    2582.9974   -44678.646    28.279754   0.92909834 
   94300    205.12677   -82.461247    134494.87   -42045.962     2552.167   -44598.129    28.476197   0.92861153 
   94400    206.05715    -214.1027    134416.21   -42027.907    2563.7427    -44591.65    28.531049   0.92915497 
   94500    211.20508    -134.3726    134421.59   -41972.962    2627.7928   -44600.755    28.552059   0.92911776 
   94600    209.50988   -63.683854    134364.91   -42009.715    2606.7012   -44616.416     28.58315   0.92950976 
   94700    203.30113   -149.25109    134249.44    -42048.34    2529.4526   -44577.793    28.566497   0.93030921 
   94800    206.28213   -71.370048    134340.08   -42034.361    2566.5418   -44600.902    28.405278   0.92968152 
   94900    204.62757   -4.1186454    134290.75   -42012.781     2545.956   -44558.737    28.426235   0.93002302 
   95000    208.10338   -38.291103    134383.68   -42006.328    2589.2016    -44595.53    28.480237   0.92937988 
   95100    209.06997     -193.867    134451.14   -42020.538    2601.2279   -44621.766    28.507906   0.92891362 
   95200    208.00028   -81.056061    134413.19   -42025.948    2587.9189   -44613.867    28.505321   0.92917587 
   95300    211.74945    75.518162    134353.49   -41927.633    2634.5658   -44562.199    28.400693   0.92958871 
   95400    208.71711   -36.885945    134507.03   -41995.134    2596.8377   -44591.972    28.593863   0.92852762 
   95500    206.76201   -87.301503    134581.08   -41997.639    2572.5125   -44570.151    28.563402   0.92801668 
   95600    207.36301   -82.603543    134593.87   -41990.436    2579.9901   -44570.426    28.647472   0.92792854 
   95700    206.90566   -143.59739    134512.73   -42055.616    2574.2997   -44629.915     28.43597   0.92848825 
   95800    204.98518    -24.99983    134534.22   -42090.224    2550.4053    -44640.63    28.668128   0.92833992 
   95900    205.00987   -193.99373    134512.56   -42035.252    2550.7126   -44585.964    28.620666   0.92848942 
   96000    205.40565   -82.644379    134524.02   -42101.369    2555.6369   -44657.006    28.664005   0.92841035 
   96100    204.31883     -91.7249    134478.44   -42052.565    2542.1147   -44594.679    28.702604   0.92872504 
   96200    206.21487    11.279033    134564.31   -42086.962     2565.705   -44652.667    28.763432   0.92813234 
   96300    207.15122   -184.17607    134538.25   -42048.158     2577.355   -44625.513     28.60174   0.92831213 
   96400    203.84462   -100.12597    134514.86    -42027.22    2536.2147   -44563.435    28.701594   0.92847355 
   96500    204.32919    -76.51926     134484.3   -42064.563    2542.2436   -44606.806    28.691244   0.92868453 
   96600    204.08463   -180.43387    134382.17   -42054.618    2539.2008   -44593.819    28.664381   0.92939031 
   96700    199.26351   -174.80611    134387.39    -42125.94    2479.2169   -44605.156    28.754616   0.92935425 
   96800    201.20002   -150.82804    134297.98   -42153.132    2503.3108   -44656.443    28.714217   0.92997294 
   96900    205.47605   -55.946018    134340.24   -42083.511    2556.5127   -44640.023    28.855621    0.9296804 
   97000    200.24904   -114.55008    134296.45   -42094.515    2491.4788   -44585.994    28.934214   0.92998355 
   97100     200.5791   -166.32534     134356.3   -42076.974    2495.5853   -44572.559    28.830521   0.92956932 
   97200    201.39175    83.105405    134347.52   -42085.614    2505.6963    -44591.31    28.760988   0.92963007 
   97300    205.32323   -116.46528    134394.52   -42076.371    2554.6114   -44630.983    28.798447   0.92930496 
   97400    200.98013   -170.35748    134374.64   -42083.891     2500.575   -44584.466    28.864954   0.92944241 
   97500    204.08632   -109.05443    134492.79   -41996.018    2539.2218    -44535.24    28.920208   0.92862595 
   97600    202.89137   -239.94533    134481.35   -42068.927    2524.3543   -44593.281    28.807563   0.92870494 
   97700    203.88301   -152.76951    134495.83   -42016.969    2536.6923   -44553.661    28.838831   0.92860493 
   97800     204.9248    -154.5625    134529.29   -41992.864    2549.6542   -44542.518    28.887277   0.92837394 
   97900    207.28067   -39.934225    134518.36   -41969.307    2578.9657   -44548.273     28.87109   0.92844939 
   98000     209.6831   -57.862194    134570.77   -41985.089    2608.8564   -44593.946    28.785695   0.92808778 
   98100      203.517   -112.41729    134547.41   -42058.984    2532.1384   -44591.122     28.88235   0.92824893 
   98200    205.07046      -204.48    134466.23   -42036.123    2551.4663   -44587.589    28.825034   0.92880933 
   98300    207.33811    9.1178358    134397.33   -42053.252    2579.6802   -44632.932    28.793742   0.92928549 
   98400    207.58327   -124.23185    134507.45   -42068.791    2582.7306   -44651.522    28.845312    0.9285247 
   98500    204.28783   -64.226723    134520.18   -42083.592     2541.729   -44625.321    28.720139   0.92843688 
   98600    200.38311     -13.2859    134503.27   -42111.659    2493.1469   -44604.806    28.871505   0.92855357 
   98700    201.46826   -147.85671    134661.38   -42162.052    2506.6481     -44668.7    28.929052   0.92746332 
   98800    201.07118   -115.00653    134564.23   -42132.386    2501.7077   -44634.093    28.913516   0.92813292 
   98900    201.32015    13.836425    134573.11   -42145.031    2504.8054   -44649.836    28.986768   0.92807165 
   99000    198.08187     5.530542    134633.06   -42180.152    2464.5151   -44644.667    28.848641   0.92765843 
   99100     204.3737   -83.739193    134541.92   -42115.848    2542.7973   -44658.645    28.880102   0.92828683 
   99200    200.79435   -152.05128    134516.67   -42099.464    2498.2635   -44597.728    28.972833    0.9284611 
   99300    203.45672   -176.57272    134504.29   -42058.843    2531.3884   -44590.231    28.992131   0.92854652 
   99400    206.95362    2.7127978    134528.38   -42027.586    2574.8964   -44602.482    28.963345   0.92838028 
   99500    209.41209   -160.87508    134420.19   -41912.014    2605.4845   -44517.498    28.939728   0.92912745 
   99600    209.70714   -175.70676    134461.39   -41950.778    2609.1555   -44559.934    29.027754   0.92884278 
   99700    210.95139   -99.216373    134496.77    -41958.36    2624.6364   -44582.996    29.152905   0.92859843 
   99800     208.0233   -0.1276364    134480.66   -41969.287    2588.2054   -44557.492    29.044561   0.92870969 
   99900    203.73409   -183.61528    134480.41    -42021.22    2534.8394   -44556.059    28.946482   0.92871142 
  100000    209.42049   -156.80503    134414.44   -42022.776     2605.589   -44628.365     28.92923   0.92916722 
  100100    206.77709    -57.81379    134421.37    -41965.25    2572.7001    -44537.95    29.110895   0.92911928 
  100200    207.34194   -94.323982    134418.39   -41958.118    2579.7279   -44537.846    29.234071   0.92913989 
  100300    207.50594   -77.176059    134460.42   -41945.506    2581.7684   -44527.274    29.190859   0.92884948 
  100400    206.00239   -76.388993    134439.36   -41978.551    2563.0614   -44541.613    29.089383     0.928995 
  100500    208.48245   -95.610659    134395.51   -41915.413     2593.918   -44509.331    29.063986   0.92929809 
  100600    208.16044    23.102705    134516.66   -41994.653    2589.9116   -44584.564    29.113103   0.92846115 
  100631    204.45418   -134.57333    134528.13    -41984.08    2543.7987   -44527.879    29.205457   0.92838199 
Loop time of 464.671 on 1 procs for 100000 steps with 4175 atoms

Performance: 92.969 ns/day, 0.258 hours/ns, 215.206 timesteps/s
100.0% CPU use with 1 MPI tasks x no OpenMP threads

MPI task timing breakdown:
Section |  min time  |  avg time  |  max time  |%varavg| %total
---------------------------------------------------------------
Pair    | 420.35     | 420.35     | 420.35     |   0.0 | 90.46
Neigh   | 31.474     | 31.474     | 31.474     |   0.0 |  6.77
Comm    | 2.0641     | 2.0641     | 2.0641     |   0.0 |  0.44
Output  | 0.92072    | 0.92072    | 0.92072    |   0.0 |  0.20
Modify  | 8.3791     | 8.3791     | 8.3791     |   0.0 |  1.80
Other   |            | 1.48       |            |       |  0.32

Nlocal:        4175.00 ave        4175 max        4175 min
Histogram: 1 0 0 0 0 0 0 0 0 0
Nghost:        3674.00 ave        3674 max        3674 min
Histogram: 1 0 0 0 0 0 0 0 0 0
Neighs:        0.00000 ave           0 max           0 min
Histogram: 1 0 0 0 0 0 0 0 0 0
FullNghs:     113264.0 ave      113264 max      113264 min
Histogram: 1 0 0 0 0 0 0 0 0 0

Total # of neighbors = 113264
Ave neighs/atom = 27.129102
Neighbor list builds = 5049
Dangerous builds = 0

undump              1
unfix               2
unfix               3
unfix               4


################################################
#######         Run Simulation         #########
################################################

reset_timestep      0
log                 log.run_${NAME}
log                 log.run_liquid_density_MLmW
