
# Create simulation box of size 50 x 50 x 50 Angstrom
#
lattice	            sc 1
Lattice spacing in x,y,z = 1.0000000 1.0000000 1.0000000
region 	            all block 0 50 0 50 0 50 units box
create_box          1 all
Created orthogonal box = (0.0000000 0.0000000 0.0000000) to (50.000000 50.000000 50.000000)
  1 by 2 by 3 MPI processor grid

# fill box with 4169 randomly distributed atoms
#
create_atoms        1 random 4169 63782 all
Created 4169 atoms
  create_atoms CPU = 0.000 seconds
mass                1 18.015

# Define potential
#
pair_style          sw
pair_coeff          * * ML_mW.sw mW
Reading sw potential file ML_mW.sw with DATE: 2019-02-27

# Run minimization
#
minimize            1.0e-8 1.0e-8 10000 1000
WARNING: Using 'neigh_modify every 1 delay 0 check yes' setting during minimization (../min.cpp:187)
Neighbor list info ...
  update every 1 steps, delay 0 steps, check yes
  max neighbors/atom: 2000, page size: 100000
  master list distance cutoff = 6.0032907
  ghost atom cutoff = 6.0032907
  binsize = 3.0016454, bins = 17 17 17
  1 neighbor lists, perpetual/occasional/extra = 1 0 0
  (1) pair sw, perpetual
      attributes: full, newton on
      pair build: full/bin/atomonly
      stencil: full/bin/3d
      bin: standard
Per MPI rank memory allocation (min/avg/max) = 4.255 | 4.258 | 4.261 Mbytes
Step Temp E_pair E_mol TotEng Press 
       0            0    7783778.6            0    7783778.6    5891538.7 
     630            0   -45100.671            0   -45100.671   -33.645425 
Loop time of 1.2663 on 6 procs for 630 steps with 4169 atoms

99.1% CPU use with 6 MPI tasks x no OpenMP threads

Minimization stats:
  Stopping criterion = max force evaluations
  Energy initial, next-to-last, final = 
       7783778.6045464  -45100.6138394717  -45100.6714481628
  Force two-norm initial, final = 2.0191929e+08 1.9154294
  Force max component initial, final = 1.0948746e+08 0.55224559
  Final line search alpha, max atom move = 0.074060414 0.040899537
  Iterations, force evaluations = 630 1001

MPI task timing breakdown:
Section |  min time  |  avg time  |  max time  |%varavg| %total
---------------------------------------------------------------
Pair    | 0.887      | 1.015      | 1.1361     |   8.8 | 80.15
Neigh   | 0.023609   | 0.025257   | 0.027029   |   0.8 |  1.99
Comm    | 0.080334   | 0.20285    | 0.3325     |  19.9 | 16.02
Output  | 0          | 0          | 0          |   0.0 |  0.00
Modify  | 0          | 0          | 0          |   0.0 |  0.00
Other   |            | 0.02324    |            |       |  1.83

Nlocal:        694.833 ave         711 max         678 min
Histogram: 1 2 0 0 0 0 0 1 0 2
Nghost:        1484.33 ave        1523 max        1464 min
Histogram: 2 1 0 1 0 1 0 0 0 1
Neighs:        0.00000 ave           0 max           0 min
Histogram: 6 0 0 0 0 0 0 0 0 0
FullNghs:      19864.7 ave       20554 max       18883 min
Histogram: 1 0 0 2 0 0 0 0 1 2

Total # of neighbors = 119188
Ave neighs/atom = 28.589110
Neighbor list builds = 26
Dangerous builds = 0

# Add velocity/set timestep
#
velocity            all create ${TEMP} 120598 rot yes dist gaussian
velocity            all create 223 120598 rot yes dist gaussian
timestep            5.0

# Define output
#
compute	            1 all msd
thermo	            100
thermo_style        custom step temp press vol etotal ke pe c_1[4] density

# Neighbor lists
#
neigh_modify        delay 0 every 1 check yes

# Set fixes
#
fix                 1 all momentum 10 linear 1 1 1 rescale
fix                 2 all nve
fix                 3 all temp/csvr ${TEMP} ${TEMP} 500.0 928347
fix                 3 all temp/csvr 223 ${TEMP} 500.0 928347
fix                 3 all temp/csvr 223 223 500.0 928347
fix                 4 all press/berendsen iso ${PRES} ${PRES} 1000.0 modulus 20000
fix                 4 all press/berendsen iso -1000 ${PRES} 1000.0 modulus 20000
fix                 4 all press/berendsen iso -1000 -1000 1000.0 modulus 20000

# Run 0.5 ns equilibration
#
dump                1 all custom 1000 eq.${NAME}.dump id type x y z vx vy vz
dump                1 all custom 1000 eq.liquid_223K_1000atm_ML.dump id type x y z vx vy vz
run                 100000
Per MPI rank memory allocation (min/avg/max) = 3.506 | 3.508 | 3.511 Mbytes
Step Temp Press Volume TotEng KinEng PotEng c_1[4] Density 
     630          223    979.54182       125000   -42330.116    2770.5556   -45100.671 2.1849767e-33   0.99771203 
     700    141.40262   -444.49212    126510.39   -41455.401    1756.7884   -43212.189   0.25142017   0.98580046 
     800     175.7165   -855.48479    127151.15   -40648.172    2183.1047   -42831.277   0.58100515   0.98083266 
     900    191.48889    -1003.471    127525.66   -40184.472    2379.0611   -42563.533    1.0637407   0.97795221 
    1000    208.17036   -1081.7205    127843.52   -39877.771     2586.312   -42464.083    1.4526132   0.97552076 
    1100    216.48719   -980.42386    128053.93    -39684.74    2689.6404    -42374.38    1.9004133   0.97391779 
    1200    214.86603   -910.03406    128284.64   -39721.765    2669.4991   -42391.264    2.3190915   0.97216632 
    1300    218.08076   -809.28845    128837.93   -39705.141    2709.4389    -42414.58    2.7285639   0.96799138 
    1400    216.43901   -1144.1159    129175.06   -39724.147    2689.0418   -42413.189    3.1214153   0.96546504 
    1500    219.02383   -1157.6068    129324.51   -39673.023    2721.1556   -42394.178    3.5093671   0.96434929 
    1600    218.65425   -586.98992    129242.61   -39579.058     2716.564   -42295.622    3.9478248   0.96496045 
    1700    222.30333   -1058.7294    129413.66    -39608.53    2761.9001    -42370.43    4.2956116   0.96368504 
    1800    218.11821   -982.22618    129444.95   -39699.864    2709.9042   -42409.768    4.7177404   0.96345209 
    1900    225.02284   -1085.5108    129646.99   -39707.606    2795.6875   -42503.294    4.9991442   0.96195063 
    2000      223.477   -878.62269     129538.1   -39686.251    2776.4819   -42462.733    5.2860898   0.96275924 
    2100    226.30838   -881.64199    129750.64   -39663.933     2811.659   -42475.592    5.5688758   0.96118216 
    2200    227.28042    -1011.213    129694.75   -39737.788    2823.7356   -42561.523    5.8533459   0.96159639 
    2300    228.83008   -1127.2944    129578.31   -39751.381    2842.9887    -42594.37    6.1340524   0.96246047 
    2400    228.33389   -871.38903    129597.77    -39778.67    2836.8239   -42615.494    6.3067219   0.96231598 
    2500    230.37508   -915.93485    130032.93   -39742.083    2862.1837   -42604.267    6.5740119   0.95909557 
    2600    229.37818   -1014.9175    130047.19   -39705.711    2849.7982   -42555.509    6.8747568   0.95899038 
    2700    225.33262   -1052.4801    130088.75   -39755.106    2799.5361   -42554.642    7.2146715   0.95868402 
    2800    227.64041   -1011.5713    130245.44   -39751.277    2828.2082   -42579.486    7.4322727    0.9575307 
    2900    225.19133   -899.16735       130389   -39833.784    2797.7808   -42631.565     7.642303   0.95647639 
    3000    220.27571   -857.87987    130490.07   -39887.583     2736.709   -42624.292    7.9802899   0.95573556 
    3100    224.28893    -995.2881    130805.39   -39871.673    2786.5693   -42658.242    8.1384771   0.95343169 
    3200    225.44713   -890.08882    130722.86   -39945.992    2800.9588   -42746.951    8.4157383   0.95403359 
    3300    224.95848   -916.95499    130886.59   -39956.157    2794.8878   -42751.044    8.5655711    0.9528402 
    3400    225.55169   -1078.0135    131143.97    -40009.44    2802.2579   -42811.698    8.8415897    0.9509702 
    3500    224.22628   -958.45366    131071.43   -40062.078    2785.7909   -42847.869    8.9249595   0.95149644 
    3600    223.56243   -996.60562    131366.45   -40126.873    2777.5432   -42904.416    9.1590978   0.94935965 
    3700    222.50484   -910.89334    131559.29   -40194.109    2764.4038   -42958.513    9.4278999   0.94796807 
    3800     223.6016   -1014.8907    131519.32   -40157.737      2778.03   -42935.767     9.615821   0.94825614 
    3900    221.00462   -906.00825    131939.75   -40192.633     2745.765   -42938.398    9.8171249   0.94523452 
    4000    223.08702   -957.46194    132048.01   -40194.909    2771.6368   -42966.546    10.113091   0.94445957 
    4100    219.82523   -940.47359    132356.32   -40183.473    2731.1123   -42914.585    10.441333   0.94225954 
    4200    223.21074   -1057.1634    132388.16   -40203.825    2773.1739   -42976.999    10.478452   0.94203289 
    4300    220.33967    -899.1558    132468.07   -40214.408    2737.5037   -42951.911    10.603014   0.94146464 
    4400     226.6966   -954.55196    132487.21   -40219.369    2816.4823   -43035.851    10.701812   0.94132866 
    4500    220.13088   -1028.6198     132565.9   -40235.424    2734.9096   -42970.334    10.986655   0.94076983 
    4600    221.22613   -1140.9452    132480.26   -40287.477    2748.5171   -43035.994    11.024667   0.94137799 
    4700    224.56077   -1003.5789    132350.28   -40212.699    2789.9466   -43002.645     11.11171   0.94230251 
    4800    225.33528   -812.53457    132466.86    -40283.51    2799.5692   -43083.079    11.324562   0.94147323 
    4900    227.70348   -1212.5697    132459.14   -40186.008    2828.9918       -43015    11.527429   0.94152814 
    5000    228.61598   -1113.8843     132420.8   -40151.669    2840.3287   -42991.998    11.671854   0.94180072 
    5100    224.23891   -1076.2588    132327.45    -40220.13    2785.9479   -43006.078     11.77686   0.94246513 
    5200    220.43355   -968.10104     132285.7   -40279.749      2738.67   -43018.419    11.937806   0.94276252 
    5300    224.63303   -997.96189    132348.77   -40241.531    2790.8444   -43032.376    12.011853   0.94231331 
    5400    221.91681   -941.70282     132444.4   -40273.959    2757.0981   -43031.057    12.199432   0.94163287 
    5500    228.20801   -880.06731    132647.82   -40283.738      2835.26   -43118.998    12.325235   0.94018886 
    5600    224.62696   -1049.7937    132581.91    -40300.39     2790.769   -43091.159    12.470465   0.94065625 
    5700    219.91488   -1064.2244    132460.24   -40319.114     2732.226    -43051.34    12.556221    0.9415203 
    5800    222.56451   -1033.9497    132395.33   -40342.921    2765.1451   -43108.066    12.744411   0.94198192 
    5900    221.58603   -916.11136    132469.66   -40389.207    2752.9884   -43142.195    12.994603   0.94145334 
    6000    223.07134   -919.23067    132593.22   -40387.718     2771.442    -43159.16     13.12331     0.940576 
    6100    225.39138   -965.76926    132697.88   -40319.532    2800.2662   -43119.798    13.117721   0.93983418 
    6200    219.55401   -1134.6106    132450.79    -40383.82    2727.7427   -43111.563    13.252688   0.94158749 
    6300    217.73251   -907.75318     132634.5   -40337.513    2705.1123   -43042.625    13.427831   0.94028327 
    6400    224.04121   -1061.5028    132647.23   -40328.559    2783.4916    -43112.05    13.624144   0.94019307 
    6500    223.86475   -909.96969     132689.3   -40289.906    2781.2992   -43071.205    13.920839   0.93989496 
    6600    224.03513   -999.30226    132855.88    -40381.26    2783.4161   -43164.676    13.950549   0.93871645 
    6700    219.43022   -1137.1345    132949.84   -40455.741    2726.2046   -43181.946    14.027262   0.93805303 
    6800    223.86134    -954.1262    133038.53    -40388.78     2781.257   -43170.037    14.069835   0.93742769 
    6900    229.80528   -943.80706    133228.95   -40337.014    2855.1046   -43192.118     14.13572   0.93608785 
    7000    225.67274   -1033.9421    133337.08   -40336.531    2803.7619   -43140.293     14.26703   0.93532871 
    7100    219.79898    -901.2883    133234.07   -40361.064    2730.7862    -43091.85    14.416481   0.93605193 
    7200     223.6235   -992.59544    133263.03   -40431.154     2778.302   -43209.456    14.668177   0.93584846 
    7300    218.26338   -921.44724    133079.49   -40495.436    2711.7078   -43207.144    14.650091    0.9371392 
    7400    218.60374   -1139.9734    133168.93    -40539.72    2715.9364   -43255.656    14.592536   0.93650977 
    7500    218.76992   -1044.1555    133195.58   -40506.715    2718.0011   -43224.717    14.643879    0.9363224 
    7600    215.81916   -992.50323    133370.17   -40587.599    2681.3408    -43268.94    14.776623   0.93509666 
    7700    219.82393   -910.60652    133299.42   -40485.558    2731.0961   -43216.654    14.956576   0.93559302 
    7800    221.73705   -875.78126    133189.01   -40473.047    2754.8647   -43227.912    15.084766   0.93636857 
    7900    221.25824   -1069.6875    133192.28   -40541.809     2748.916   -43290.725    15.170204   0.93634561 
    8000    222.61835   -979.99645    133055.32   -40506.738     2765.814   -43272.552    15.318869   0.93730939 
    8100    217.40867    -941.1996     133036.2   -40576.051    2701.0889    -43277.14    15.457927    0.9374441 
    8200    214.27969   -925.58929    133259.67    -40587.65    2662.2143   -43249.864    15.559043   0.93587206 
    8300    220.60628   -1148.2637    133355.56   -40574.162     2740.816   -43314.978    15.759339   0.93519913 
    8400       219.38   -1064.7559    133214.12   -40521.493    2725.5807   -43247.074    15.912726    0.9361921 
    8500    225.93302   -780.20966    133407.99   -40458.359    2806.9956   -43265.355    16.023623   0.93483156 
    8600    223.63963   -980.53937    133629.64   -40481.987    2778.5024    -43260.49    16.148906   0.93328098 
    8700    225.77042   -874.52723    133787.93   -40454.399    2804.9754   -43259.374    16.259125   0.93217681 
    8800    222.80699   -1050.5658    133815.39   -40488.244    2768.1576   -43256.402    16.287937    0.9319855 
    8900    216.48477   -1037.9372    133829.01   -40576.735    2689.6103   -43266.346    16.379185   0.93189063 
    9000    220.62038   -948.40553    133740.99   -40537.286    2740.9912   -43278.278    16.509919   0.93250393 
    9100     217.8916   -1082.7353    133748.43    -40609.66    2707.0888   -43316.749    16.480914   0.93245207 
    9200    221.73464   -1079.2199    133967.58   -40514.009    2754.8348   -43268.843    16.474271   0.93092675 
    9300    223.12893   -1034.6379    133680.95   -40574.037    2772.1575   -43346.194    16.705033   0.93292277 
    9400    225.99469   -853.43093    133762.77   -40535.882    2807.7617   -43343.643    16.709761   0.93235216 
    9500    222.51037   -998.20443    133640.69   -40570.714    2764.4725   -43335.187    16.788224   0.93320385 
    9600    222.15713   -1026.0067    133531.81   -40536.159    2760.0838   -43296.243    16.822902   0.93396473 
    9700     227.3029   -1053.5629    133595.51   -40484.994     2824.015   -43309.009    16.941775   0.93351939 
    9800    222.68857   -1086.9251    133700.87   -40562.651    2766.6865   -43329.337    17.077842    0.9327838 
    9900    218.32165   -976.72896     133397.5   -40642.814    2712.4317   -43355.245     17.13462    0.9349051 
   10000    214.55594   -1036.2003    133276.05   -40654.983    2665.6466    -43320.63    17.119176   0.93575708 
   10100    222.08202   -966.48145    133475.42   -40624.012    2759.1506   -43383.162     17.22792   0.93435932 
   10200    221.49322     -814.466    133507.45   -40682.407    2751.8354   -43434.242    17.271693   0.93413518 
   10300    217.58747   -1105.9188    133522.67   -40667.538    2703.3103   -43370.848    17.472639   0.93402868 
   10400     224.1569   -981.14733    133524.83   -40622.047    2784.9289   -43406.976    17.673062   0.93401356 
   10500    221.86677   -920.13722    133569.28   -40587.298    2756.4764   -43343.775     17.83845   0.93370274 
   10600    223.06577   -1156.1695     133741.5    -40520.78    2771.3728   -43292.153     17.98733   0.93250041 
   10700     224.4897   -865.54057    133960.83   -40508.661    2789.0637   -43297.724    17.990595   0.93097367 
   10800     226.0888   -932.86104    134011.87    -40498.66    2808.9309   -43307.591     17.99772   0.93061911 
   10900    219.88554   -1092.6395    133924.17   -40523.809    2731.8616   -43255.671    18.138345   0.93122853 
   11000    229.35789   -973.76774     133967.9   -40521.835    2849.5461   -43371.381    18.244986   0.93092452 
   11100    226.39236   -982.87501    134177.42   -40554.611    2812.7024   -43367.313    18.287488   0.92947086 
   11200    219.96314   -982.10545    134221.12   -40554.222    2732.8256   -43287.047    18.344442   0.92916828 
   11300    223.37359   -877.37981    134241.25   -40551.439    2775.1972   -43326.637    18.411648   0.92902889 
   11400     223.1258   -1022.3952    134482.71   -40549.218    2772.1185   -43321.337    18.602984   0.92736087 
   11500    225.44859   -1098.9866    134565.59    -40589.16     2800.977   -43390.137    18.802317   0.92678968 
   11600    223.18795    -1074.897    134430.76   -40609.883    2772.8907   -43382.773     18.89104   0.92771922 
   11700     224.8209   -851.09782    134430.87   -40513.143    2793.1785   -43306.322    18.904304   0.92771846 
   11800    221.60702   -1033.0999    134466.67   -40584.454    2753.2492   -43337.703    19.053233   0.92747147 
   11900    223.78621   -959.50824    134559.45   -40593.799    2780.3235   -43374.123    19.082994   0.92683199 
   12000     225.5366   -949.51043    134491.54   -40610.067    2802.0704   -43412.138    19.101793   0.92729997 
   12100    221.97931   -914.61325    134628.65   -40557.272    2757.8745   -43315.147      19.2645   0.92635561 
   12200    225.82938   -1076.3109    134708.47   -40566.758    2805.7079   -43372.466    19.528717    0.9258067 
   12300    221.67631   -1007.1514    134561.73   -40594.247    2754.1101   -43348.357    19.683422   0.92681626 
   12400    224.04881   -909.70494    134579.74   -40583.068    2783.5861   -43366.654    19.718679   0.92669228 
   12500     222.9275   -1051.7304    134864.41   -40665.812    2769.6549   -43435.466    19.954408   0.92473618 
   12600    225.71095   -1003.7013    134892.27   -40594.014    2804.2365    -43398.25    20.040357   0.92454519 
   12700    227.80494   -1157.6982    134811.08    -40594.52    2830.2523   -43424.772     19.88935   0.92510206 
   12800    227.49615   -1010.0466     134576.2   -40579.065    2826.4158   -43405.481    20.030074   0.92671666 
   12900     220.2802   -1051.0885    134483.48   -40645.841    2736.7648   -43382.606    19.977847   0.92735559 
   13000    223.73373   -942.52905    134676.55   -40590.443    2779.6715   -43370.114    20.246089   0.92602615 
   13100    227.83178   -991.30833    134688.45   -40606.457    2830.5858   -43437.043    20.279178   0.92594428 
   13200     230.4762   -1040.0569    134639.86   -40536.553    2863.4401   -43399.993    20.297828   0.92627846 
   13300    227.38855   -909.49616     134729.6   -40599.552    2825.0791   -43424.631    20.397419   0.92566152 
   13400    224.31599   -1053.1947    134884.93   -40700.388    2786.9056   -43487.294    20.462345   0.92459553 
   13500    227.18238   -980.21762    134889.04   -40749.321    2822.5176   -43571.839    20.590663   0.92456735 
   13600     225.4901   -854.22645    135000.81   -40782.118    2801.4927    -43583.61    20.698091   0.92380189 
   13700    218.81314   -899.08374    135094.65   -40772.124    2718.5381   -43490.662    20.679127   0.92316019 
   13800    221.39326   -899.80176    135010.18   -40691.179    2750.5934   -43441.773    20.705001   0.92373778 
   13900    221.85345   -883.42908    134944.73   -40742.558    2756.3108   -43498.869    20.657813   0.92418583 
   14000    222.82157   -945.41248    135177.37   -40729.398    2768.3388   -43497.737    20.913327    0.9225953 
   14100    225.32414   -986.97899     135169.3   -40734.058    2799.4308   -43533.489    20.865098   0.92265038 
   14200    223.65684   -1114.2036    134991.22   -40787.861    2778.7162   -43566.577    20.991686    0.9238675 
   14300    221.56221   -949.18706    134970.52   -40849.995    2752.6925   -43602.688    20.966835   0.92400921 
   14400    223.81544    -1015.512    134808.21   -40814.349    2780.6867   -43595.035    21.158703   0.92512171 
   14500    224.71777   -957.46215    134890.78   -40763.041    2791.8972   -43554.938     21.09111    0.9245554 
   14600    224.27446   -979.44955    134910.88   -40773.545    2786.3895   -43559.935     21.17123   0.92441766 
   14700    221.13204   -1071.1744    134960.38   -40814.874    2747.3481   -43562.223    21.145189   0.92407863 
   14800    221.42757   -1016.6867    134991.18   -40859.841    2751.0198   -43610.861    21.260825   0.92386777 
   14900    217.49445   -1114.2369    134970.16   -40928.959    2702.1546   -43631.113    21.394793   0.92401169 
   15000    217.31653   -949.14764    134763.25    -40939.32    2699.9442   -43639.264    21.495467   0.92543034 
   15100    217.60705   -995.63807    134877.26   -40953.547    2703.5536   -43657.101    21.406007    0.9246481 
   15200     217.8005   -1057.5907    134760.46   -40877.557    2705.9569   -43583.514    21.508166   0.92544951 
   15300    221.66761   -766.98476    134692.15   -40891.014     2754.002   -43645.016    21.519861   0.92591889 
   15400     220.9225   -1101.8412     134891.5   -40865.094    2744.7448   -43609.839    21.575834   0.92455052 
   15500    218.24503    -993.9937    134822.85   -40840.319    2711.4798   -43551.799    21.779472   0.92502124 
   15600    224.63723   -796.59248    134900.28   -40774.175    2790.8966   -43565.071    21.927795   0.92449032 
   15700    219.24763   -1156.9397    134773.12   -40854.218    2723.9361   -43578.154    21.710523   0.92536261 
   15800    219.78141   -817.35748    134950.74   -40844.395    2730.5678   -43574.963     21.78598   0.92414467 
   15900    219.72707   -1035.9269    134996.32   -40884.533    2729.8926   -43614.426    21.735951   0.92383261 
   16000    223.57814   -927.47876    135006.37   -40824.231    2777.7384    -43601.97    21.895117   0.92376381 
   16100    225.37096   -948.69502    135035.28   -40770.906    2800.0125   -43570.919    22.059009   0.92356609 
   16200    221.57289   -1071.9159    134946.79    -40825.78    2752.8252   -43578.606    22.089524   0.92417169 
   16300    218.84135   -930.42328    134843.62   -40838.804    2718.8885   -43557.693    22.211292   0.92487877 
   16400     224.7158   -988.45464    134906.26   -40737.483    2791.8727   -43529.356    22.229169   0.92444935 
   16500    225.11311   -1008.4919    134987.61    -40713.86     2796.809   -43510.669    22.414197   0.92389219 
   16600     222.5817   -973.72965    135210.29   -40703.476    2765.3587   -43468.835    22.425151   0.92237064 
   16700    225.43246   -992.59671    135202.57   -40757.076    2800.7766   -43557.853    22.424472   0.92242334 
   16800    224.33048   -1020.8353    135016.88   -40762.036    2787.0856   -43549.122    22.416329   0.92369193 
   16900    223.78068   -1082.3454    134983.51   -40725.436    2780.2548    -43505.69    22.506004    0.9239203 
   17000    223.90444   -1034.2966    134838.72   -40750.336    2781.7924   -43532.128      22.6375   0.92491237 
   17100    225.82444   -1173.5271    134801.69   -40666.179    2805.6466   -43471.825    22.930419   0.92516647 
   17200    223.66015   -1041.7839    134749.08   -40684.245    2778.7573   -43463.002    23.029337   0.92552768 
   17300     223.3426   -1012.2785    134879.93   -40750.857    2774.8122   -43525.669    23.081004   0.92462981 
   17400    223.63896   -971.50104    134898.77   -40778.742     2778.494   -43557.236    22.983383   0.92450064 
   17500    224.74436   -1078.4266    134816.99   -40773.932    2792.2276   -43566.159    22.893861   0.92506145 
   17600    223.71788   -1018.2189    134903.92   -40755.411    2779.4746   -43534.885    23.103215   0.92446538 
   17700    222.79684   -855.30465    134813.43   -40784.479    2768.0315    -43552.51    23.191068   0.92508588 
   17800    224.84435   -1029.4794    134985.59   -40789.852    2793.4699   -43583.322     23.24599   0.92390604 
   17900    226.11823   -985.35303    135089.93   -40765.313    2809.2966    -43574.61    23.295821   0.92319247 
   18000    231.86914   -978.24919    135259.34   -40718.158    2880.7459   -43598.904     23.54775   0.92203616 
   18100    223.87668   -1136.0749    135191.34   -40833.655    2781.4475   -43615.103    23.594471   0.92249996 
   18200    222.30823   -1081.6052    135033.19   -40829.453     2761.961   -43591.414    23.574758   0.92358039 
   18300    227.40756   -997.41336    134906.61   -40740.981    2825.3153   -43566.296    23.474886   0.92444693 
   18400    224.88358   -999.22341    134837.27   -40804.824    2793.9573   -43598.781    23.539793   0.92492237 
   18500    226.39131    -1020.207    134898.43   -40762.264    2812.6893   -43574.953    23.749517     0.924503 
   18600    223.87741   -957.65437    135151.14   -40822.317    2781.4566   -43603.774    23.798191   0.92277436 
   18700    224.98045   -1029.0595    135251.85   -40775.223    2795.1607   -43570.384    23.907965   0.92208722 
   18800    226.45305   -1074.5267       135278   -40762.563    2813.4564    -43576.02    23.827922   0.92190899 
   18900    224.72274   -916.59494    135128.61   -40810.172     2791.959   -43602.131    23.787415   0.92292819 
   19000    223.97092   -1038.3932    134963.42    -40800.74    2782.6184   -43583.358    23.725842   0.92405784 
   19100    224.72176   -996.81838    135185.67   -40847.409    2791.9469   -43639.356    23.979027   0.92253865 
   19200     226.4518   -894.11913    135221.07   -40827.846    2813.4408   -43641.287    23.981734   0.92229714 
   19300    225.62703   -1010.3719    135136.62   -40771.412    2803.1939   -43574.606     23.94768   0.92287352 
   19400    222.52279   -970.95711    135130.27   -40780.811    2764.6268   -43545.438    23.893002   0.92291683 
   19500    223.74217   -934.42972     135271.3   -40765.664    2779.7763    -43545.44    24.071545   0.92195468 
   19600    223.76095   -1028.4845     135200.1   -40809.054    2780.0097   -43589.063    24.251748   0.92244019 
   19700    227.16187   -1025.1128    135030.24   -40797.675    2822.2627   -43619.938    24.531783   0.92360057 
   19800    226.55834   -983.52495    135001.08   -40839.924    2814.7645   -43654.689    24.310445   0.92380004 
   19900    222.81979   -1060.0637    135107.99   -40834.544    2768.3166    -43602.86    24.344073   0.92306905 
   20000    224.28858   -1210.0748    135106.69   -40889.534    2786.5649   -43676.099    24.497775    0.9230779 
   20100    226.76106   -919.33858    135075.72   -40856.252     2817.283   -43673.535    24.594616   0.92328957 
   20200    225.36262   -968.07755    135068.37   -40914.988    2799.9089   -43714.896    24.621585   0.92333978 
   20300    218.45148   -952.87773    134864.46   -40957.732    2714.0448   -43671.777    24.598572    0.9247359 
   20400    220.56707   -1038.7496    135104.25   -40949.042    2740.3289   -43689.371    24.768813   0.92309458 
   20500    222.83945   -1010.5566    135166.92   -40917.389    2768.5609    -43685.95    24.860164   0.92266658 
   20600    219.04741   -1050.3294    135260.21   -40950.169    2721.4486   -43671.617    24.876435   0.92203024 
   20700    225.85993   -1066.0041    135229.84   -40894.418    2806.0875   -43700.506    24.853883   0.92223729 
   20800     222.3594   -940.39497    135445.79   -40892.512    2762.5968   -43655.109    24.972915   0.92076692 
   20900    220.28688   -1022.1127    135366.55   -40922.834    2736.8478   -43659.682    24.891822   0.92130592 
   21000     220.9426   -1027.0746    135170.28   -41015.071    2744.9944   -43760.066    24.916136   0.92264365 
   21100    217.07521   -913.10908    135336.63   -41014.047     2696.946   -43710.993    24.924322   0.92150963 
   21200    220.49204   -913.37529    135332.57   -40980.984    2739.3968   -43720.381     25.31129   0.92153727 
   21300    220.70906   -1098.6135    135476.72   -40970.854     2742.093   -43712.947    25.450962   0.92055674 
   21400    223.95667     -908.405    135428.07   -40930.751    2782.4413   -43713.193    25.556075   0.92088743 
   21500    223.51508   -995.21935    135417.19   -40933.089     2776.955   -43710.044    25.419773   0.92096137 
   21600    222.12844   -1066.6294    135414.93    -40870.59    2759.7274   -43630.317     25.20036   0.92097678 
   21700    225.55951   -1233.2862    135464.79   -40839.457     2802.355   -43641.813    25.386743   0.92063781 
   21800    222.14432   -1059.3787    135517.42    -40817.13    2759.9246   -43577.054    25.544658   0.92028021 
   21900    225.27468   -986.16631     135545.8   -40834.538    2798.8163   -43633.354     25.64161   0.92008753 
   22000    220.83909   -1045.4433    135358.77   -40894.892    2743.7085   -43638.601    25.662547   0.92135889 
   22100    224.72656   -951.57049    135382.56   -40841.524    2792.0064    -43633.53    25.645773   0.92119696 
   22200    222.73065   -1171.7207    135403.77   -40876.784    2767.2092   -43643.993    25.546055   0.92105266 
   22300    222.80494   -966.74287    135179.18   -40869.093    2768.1322   -43637.226    25.655729   0.92258292 
   22400      223.814    -1038.451    135128.05    -40841.86    2780.6687   -43622.529    25.684307   0.92293205 
   22500    224.39523   -1103.1327    135046.71   -40850.012      2787.89   -43637.902    25.827769    0.9234879 
   22600    224.27622    -1071.032    135239.52   -40815.303    2786.4115   -43601.714    25.861206   0.92217129 
   22700    227.31185   -960.95311    135163.43   -40830.082    2824.1261   -43654.208    25.848524   0.92269041 
   22800    221.63358   -1011.4368    135156.08   -40810.073    2753.5792   -43563.652    25.942173   0.92274062 
   22900    226.92007   -922.93498    135094.55   -40862.145    2819.2586   -43681.404    25.902333   0.92316088 
   23000    226.03291   -1038.4817    135023.66   -40840.852    2808.2366   -43649.089    26.088177   0.92364553 
   23100    221.18992   -1006.1548    135117.87   -40937.948    2748.0672   -43686.015    26.004214   0.92300152 
   23200     219.0678    -1169.919    135172.45   -40879.888    2721.7019    -43601.59    25.883319   0.92262883 
   23300      221.843   -879.13846    135233.89   -40915.189     2756.181    -43671.37    25.802287   0.92220966 
   23400    225.62388   -1011.4285    135058.73   -40845.689    2803.1548   -43648.844    25.969519   0.92340569 
   23500    224.60012    -1013.716    135115.98   -40881.032    2790.4356   -43671.467    26.077987   0.92301446 
   23600    223.99529   -1026.2083     135123.8   -40861.472    2782.9212   -43644.394    26.352631   0.92296101 
   23700    220.97073   -989.74048     134859.6   -40905.206    2745.3439    -43650.55    26.390432   0.92476923 
   23800    222.98178   -1010.1683    135108.23   -40962.438    2770.3292   -43732.767    26.515084   0.92306738 
   23900    220.66068   -893.71752    135197.71   -40974.907    2741.4918   -43716.399    26.517842   0.92245649 
   24000    221.21693   -1148.6372    135096.27   -40906.737    2748.4028    -43655.14    26.542052   0.92314912 
   24100    220.36497   -1070.4565     135187.2   -40904.646     2737.818   -43642.464    26.485943    0.9225282 
   24200    217.11202   -1082.1068    134965.88   -40955.519    2697.4033   -43652.922    26.619028   0.92404096 
   24300    223.75013   -937.42722    134792.15   -40921.863    2779.8753   -43701.739    26.512139   0.92523194 
   24400    220.07633   -1201.6554    134935.65   -40965.911    2734.2319   -43700.143    26.567846   0.92424802 
   24500    219.58697   -1001.0182    134958.53   -40916.658    2728.1522    -43644.81    26.643193   0.92409128 
   24600     224.9729   -970.51394    134817.91    -40910.25     2795.067   -43705.317    26.735875   0.92505514 
   24700    220.04277   -1054.6249    134845.63   -40928.017     2733.815   -43661.832    26.604664   0.92486497 
   24800    222.74125   -1053.9616    135000.92   -40928.278    2767.3409   -43695.619    26.706461   0.92380111 
   24900    223.61625   -999.85495    135108.87   -40857.975    2778.2119   -43636.187    26.732607   0.92306302 
   25000    229.68118   -911.47606    135259.77   -40834.469    2853.5627   -43688.032     26.49538   0.92203325 
   25100    222.87009   -941.94219    135160.08    -40849.33    2768.9416   -43618.272    26.508983   0.92271329 
   25200    218.80792   -1105.0056    135165.35   -40889.708    2718.4731   -43608.181    26.750301   0.92267734 
   25300    222.29555   -1030.6884    135144.59   -40895.247    2761.8035    -43657.05    26.848044   0.92281906 
   25400    226.59156   -976.46907     135211.7    -40892.54    2815.1773   -43707.718    26.923861   0.92236102 
   25500    217.91146    -1025.489    135222.57   -40845.617    2707.3355   -43552.953    27.149244    0.9222869 
   25600     220.8305   -1124.6479    135101.94   -40935.234    2743.6018   -43678.836    27.261757   0.92311036 
   25700    221.12639   -980.26279    135100.61   -40955.898    2747.2779   -43703.176    27.273912   0.92311947 
   25800    221.24146   -1015.4122    135071.34   -40928.742    2748.7075   -43677.449    27.082707   0.92331951 
   25900    224.30041   -862.12098     135076.5   -40882.388    2786.7119     -43669.1     27.17553   0.92328424 
   26000    226.45796     -946.971    135108.88   -40826.128    2813.5174   -43639.646    27.085269   0.92306299 
   26100    219.71675   -884.54064    135061.38     -40913.8    2729.7645   -43643.564    27.171272   0.92338757 
   26200     223.5978   -1078.8652    135158.71   -40898.247    2777.9827   -43676.229    27.322327   0.92272265 
   26300    223.04975   -851.46197    135225.35     -40871.7    2771.1737   -43642.873      27.2859   0.92226795 
   26400    223.07649   -963.16175    135372.63   -40852.901    2771.5059   -43624.407    27.317599   0.92126454 
   26500    224.62773   -904.66733    135204.55   -40902.613    2790.7786   -43693.392    27.514562   0.92240979 
   26600    225.57836   -1024.3068     135067.1   -40946.796    2802.5892   -43749.386    27.453848    0.9233485 
   26700    216.54227   -1004.1638    135205.25    -40966.65    2690.3247   -43656.975    27.482113   0.92240506 
   26800    225.05368    -908.2393     135466.5   -40899.159    2796.0706    -43695.23    27.627288   0.92062615 
   26900    220.67123   -1122.5117    135527.36   -40896.819    2741.6229   -43638.442    27.646746   0.92021278 
   27000    219.58427   -1002.3326    135508.63   -40935.265    2728.1185   -43663.384     27.77071   0.92033992 
   27100    223.20839   -998.31606    135623.58   -40946.498    2773.1446   -43719.643    27.763096   0.91955988 
   27200      221.984   -858.83583    135690.55   -40973.112    2757.9328   -43731.044    27.550062   0.91910601 
   27300    218.51085   -1015.2262    135377.89   -41010.466    2714.7824   -43725.249    27.603524   0.92122872 
   27400    224.50039   -977.07297    135340.69   -40943.678    2789.1965   -43732.875    27.794551   0.92148198 
   27500    224.09308   -1092.1187    135366.22    -40874.17    2784.1361   -43658.306    27.791899   0.92130813 
   27600    219.89843   -1041.6409    135241.06    -40911.25    2732.0217   -43643.271    27.863462    0.9221608 
   27700    222.82087   -1066.9246    135273.18   -40905.371    2768.3301   -43673.701    28.032225   0.92194184 
   27800    225.27997   -986.24354    135218.57   -40832.718     2798.882     -43631.6    27.929795   0.92231416 
   27900    221.64737   -949.83881    135233.13   -40861.061    2753.7506   -43614.811    27.930534   0.92221488 
   28000    219.65625   -1065.5328    135338.06   -40891.266    2729.0128   -43620.279    28.225461   0.92149986 
   28100    220.85174   -1044.4707    135359.66   -40874.652    2743.8656   -43618.518    28.306389   0.92135282 
   28200    226.86458   -868.36821    135380.74   -40931.234    2818.5692   -43749.803     28.27896   0.92120934 
   28300    222.72923   -893.79805    135468.01   -40915.741    2767.1916   -43682.932    28.504407   0.92061588 
   28400    220.89936   -958.83819    135630.78   -40961.331    2744.4573   -43705.788     28.51468   0.91951108 
   28500    221.54478   -916.16375    135557.15   -40999.447    2752.4759   -43751.923    28.661219   0.92001054 
   28600    222.09208   -946.89171     135414.9   -40966.789    2759.2756   -43726.065    28.568304   0.92097694 
   28700    220.71385   -1147.8868    135549.64   -40973.459    2742.1525   -43715.611    28.519669    0.9200615 
   28800    225.49277   -970.35431    135592.26   -40960.281    2801.5259   -43761.807    28.673529   0.91977228 
   28900    223.47776   -924.49088    135694.63   -40927.537    2776.4913   -43704.029     28.60643   0.91907839 
   29000    222.19389   -929.63754    135537.48   -41005.446    2760.5406   -43765.987    28.481935     0.920144 
   29100    221.55168   -807.51304     135520.6   -40946.985    2752.5616   -43699.547    28.406999   0.92025865 
   29200    224.82608   -870.74104    135632.19   -40908.165    2793.2429   -43701.408    28.663387   0.91950153 
   29300    221.31003    -1116.998    135665.35   -40973.171    2749.5594   -43722.731     28.68927   0.91927679 
   29400    219.64654   -952.20644    135515.69   -41018.491    2728.8922   -43747.384    28.673895     0.920292 
   29500    224.08258   -1014.0048    135608.83   -41041.052    2784.0057   -43825.058    28.770088   0.91965994 
   29600    225.36026   -1001.5339    135847.79   -40956.912    2799.8796   -43756.791    28.842906   0.91804222 
   29700    222.00638   -1054.6721    135820.45   -41013.067    2758.2109   -43771.277    28.806781   0.91822701 
   29800    224.70462   -1114.8317    135758.48   -40986.963    2791.7339   -43778.697    28.707708   0.91864612 
   29900    221.75694   -1000.1458    135671.78   -41017.191    2755.1119   -43772.303    28.668975   0.91923317 
   30000    223.00453   -1078.0682    135877.81   -41005.905     2770.612   -43776.517    28.947936   0.91783937 
   30100    221.53044   -1055.9113    135809.92   -41008.037    2752.2978   -43760.335    28.859026   0.91829816 
   30200    222.55405   -881.13618    135731.72   -41029.072    2765.0151   -43794.087    28.784008   0.91882728 
   30300     221.2066   -926.12754    135671.23   -40987.867    2748.2744   -43736.142    28.858393   0.91923693 
   30400    223.43143   -941.20274    135764.14   -40961.476    2775.9157   -43737.392    29.009168   0.91860783 
   30500    223.52099   -974.91871    135722.04   -40975.159    2777.0284   -43752.188     29.13109   0.91889281 
   30600    223.92299   -1033.1722    135642.48   -40955.348    2782.0229   -43737.371    29.155308   0.91943172 
   30700    224.94949    -997.0786    135366.18   -40975.476    2794.7762   -43770.252    29.023652    0.9213084 
   30800    224.40361   -1110.8282    135326.06   -40917.105    2787.9941   -43705.099    29.133995   0.92158157 
   30900    222.72832   -920.13652    135288.13   -41039.341    2767.1802   -43806.521    29.137428   0.92183995 
   31000    217.83984   -954.76598    135347.98   -41095.626    2706.4458   -43802.072    29.123297   0.92143232 
   31100    220.10955   -891.10683    135231.81   -41105.431    2734.6446   -43840.075    29.258102   0.92222385 
   31200    223.96234   -1092.2874     135295.3   -41110.805    2782.5118   -43893.316    29.291303    0.9217911 
   31300    220.56352    -948.6849    135319.55    -41062.93    2740.2847   -43803.215    29.234432   0.92162588 
   31400    224.51482   -1115.1045    135210.89   -41029.761    2789.3758   -43819.137    29.279485   0.92236654 
   31500    223.88915   -1040.0424    135274.89     -41076.7    2781.6025   -43858.302    29.351391   0.92193019 
   31600    225.09234   -904.69428     135493.8   -41020.117    2796.5509   -43816.668    29.477629   0.92044064 
   31700    225.19837   -865.52276    135344.76   -41066.929    2797.8682   -43864.797    29.459905   0.92145424 
   31800    225.45671   -1041.5227    135324.68    -41008.86    2801.0779   -43809.938    29.539895     0.921591 
   31900    225.99634   -1063.8694    135244.93    -40992.26    2807.7822   -43800.042    29.617192   0.92213443 
   32000    228.30553    -967.0887    135270.39   -40997.969    2836.4716    -43834.44    29.638996   0.92196086 
   32100    223.89778   -1077.0341    135440.14   -41011.826    2781.7097   -43793.536    29.665807   0.92080533 
   32200    225.39804    -940.4118    135432.51   -41008.346    2800.3489   -43808.695    29.786397   0.92085718 
   32300     223.8451   -956.37042    135534.25   -40969.153    2781.0551   -43750.208    29.757418   0.92016594 
   32400    221.83459   -894.34801     135406.6   -41034.738    2756.0766   -43790.814    29.872327   0.92103344 
   32500    222.93153   -1024.8168    135475.42   -41018.576     2769.705   -43788.281    29.988804   0.92056557 
   32600    221.73434   -1036.9876    135559.79   -40983.685     2754.831   -43738.516    29.972034   0.91999258 
   32700    218.09672   -958.22695    135530.74   -41047.014    2709.6372   -43756.651    30.116923   0.92018982 
   32800    222.81077   -982.85466    135496.69   -41078.316    2768.2047   -43846.521     30.03327   0.92042101 
   32900    219.78666   -962.95033    135478.53    -41081.35     2730.633   -43811.983    30.107531   0.92054439 
   33000    218.47326   -878.76727    135459.67   -41127.751    2714.3154   -43842.066    29.936435   0.92067257 
   33100    223.64176   -969.98046    135450.41   -41063.603    2778.5289   -43842.131    30.002204   0.92073554 
   33200    221.45145   -969.39834    135382.98   -41102.567    2751.3164   -43853.883    30.161714   0.92119409 
   33300    223.72526   -1060.5669    135340.32    -41038.13    2779.5663   -43817.696     30.32852   0.92148447 
   33400    224.72478   -1003.1487    135470.67   -41098.246    2791.9843   -43890.231    30.205698    0.9205978 
   33500    220.30348   -968.69722    135647.32   -41076.125     2737.054   -43813.179    30.104472   0.91939896 
   33600    219.27877    -990.3185    135648.99   -41036.399     2724.323   -43760.721    30.345822   0.91938765 
   33700    224.97301   -1011.2421    135727.75   -41008.336    2795.0684   -43803.405    30.366162   0.91885413 
   33800    224.42597   -962.19133    135858.89   -41021.643    2788.2719   -43809.915    30.333967   0.91796722 
   33900    223.78019   -979.27254    135827.91   -41028.722    2780.2487   -43808.971    30.185078   0.91817659 
   34000    221.89696   -1010.4846     135629.3   -40994.051    2756.8514   -43750.903    30.425447   0.91952108 
   34100      226.948   -876.68305    135576.28   -41035.447    2819.6056   -43855.053    30.645468   0.91988067 
   34200     218.8669    -938.9877    135598.37   -41023.386    2719.2059   -43742.592    30.631919   0.91973083 
   34300    221.43928   -854.01959    135428.13   -41082.755    2751.1652    -43833.92    30.735133   0.92088702 
   34400    220.86155   -930.35815    135445.02   -41004.109    2743.9875   -43748.097    30.743214   0.92077214 
   34500    223.33057   -971.74984    135356.72   -41028.401    2774.6626   -43803.064     30.64354   0.92137283 
   34600     222.2621   -964.70889    135276.85   -41027.011     2761.388   -43788.399    30.635323   0.92191681 
   34700    217.93948   -931.43169    135269.25    -41110.49    2707.6837   -43818.174    30.529015    0.9219686 
   34800    221.20366   -843.83352    135287.59   -41094.203    2748.2379   -43842.441    30.409768   0.92184364 
   34900    219.81344   -968.35921    135408.52   -41096.186    2730.9657   -43827.152    30.377988   0.92102037 
   35000    215.25278   -983.48576    135266.41   -41173.495     2674.304   -43847.799    30.473627   0.92198801 
   35100    220.41573   -1031.3448    135156.33   -41114.146    2738.4486   -43852.595    30.655112   0.92273891 
   35200    220.24156   -1071.7476    135156.92   -41100.339    2736.2847   -43836.624    30.987378   0.92273491 
   35300    219.10654   -1019.9939    135256.45   -41087.232    2722.1832   -43809.415    30.915336    0.9220559 
   35400    221.23692   -920.82413    135358.53   -41090.331    2748.6511   -43838.982    30.678724   0.92136047 
   35500    222.93344   -992.87763    135430.42   -40999.838    2769.7287   -43769.567     30.45823   0.92087139 
   35600    221.79938   -1018.9872    135289.53   -41031.823    2755.6391   -43787.463    30.247142   0.92183043 
   35700    224.98418   -1092.6728    135263.28   -40988.993    2795.2071     -43784.2    30.581222   0.92200931 
   35800    223.83311   -1031.7168    135266.36   -41022.662    2780.9062   -43803.568    30.767453   0.92198828 
   35900    222.87637   -871.31993     135346.7   -40963.142    2769.0196   -43732.161    30.844113   0.92144105 
   36000    225.05362   -968.62404    135457.74   -40919.076    2796.0699   -43715.146    30.708118   0.92068569 
   36100    225.14946   -962.85611    135522.71   -40958.065    2797.2606   -43755.326    30.799463   0.92024429 
   36200    221.08672    -1013.212    135503.17   -40983.324     2746.785   -43730.109    30.902149   0.92037698 
   36300    219.69818   -1139.1906    135544.33   -41042.784    2729.5338   -43772.318    30.925127   0.92009755 
   36400    224.70404   -985.25688    135455.25   -40981.886    2791.7267   -43773.612    31.053659   0.92070261 
   36500    222.49077   -925.67509    135589.25   -40956.744    2764.2289   -43720.973    31.064055    0.9197927 
   36600    222.38448   -1005.0259    135254.21   -41091.341    2762.9085    -43854.25    31.016934   0.92207112 
   36700    221.79194   -972.92933    135328.72   -41020.756    2755.5466   -43776.303    30.906003   0.92156344 
   36800    219.91263   -1079.4357    135420.62   -41010.296    2732.1981   -43742.494    31.049281   0.92093808 
   36900    221.95872   -1009.8552    135281.43   -41034.825    2757.6187   -43792.444    31.070808   0.92188563 
   37000    224.32515   -923.55175    135378.56   -40956.251    2787.0193    -43743.27    31.307612   0.92122415 
   37100    223.51005   -1026.6671    135442.42   -40953.907    2776.8925   -43730.799    31.408376   0.92078983 
   37200    225.20412   -1091.2413    135332.86   -40997.546    2797.9396   -43795.485    31.374183   0.92153524 
   37300    224.10151   -1005.5607    135113.27   -41010.048    2784.2408   -43794.289    31.349097   0.92303296 
   37400    219.64941   -841.62761    135095.44   -41040.772    2728.9278     -43769.7    31.236378   0.92315478 
   37500    220.96183   -740.60624    135275.21   -41044.511    2745.2333   -43789.745    31.298277   0.92192801 
   37600    226.45088   -827.54779    135359.76   -41002.183    2813.4294   -43815.612     31.38327   0.92135212 
   37700     221.7555   -944.29175    135583.53   -41008.747    2755.0939   -43763.841    31.540872   0.91983152 
   37800    218.53174   -1091.9331    135565.27   -41104.863    2715.0419   -43819.904    31.594801   0.91995539 
   37900     219.4686   -1008.1469     135432.1   -41056.794    2726.6815   -43783.475     31.76796   0.92085998 
   38000     225.3545   -937.94095    135489.17     -41047.5     2799.808   -43847.308     31.81231    0.9204721 
   38100    220.10103   -934.15036    135611.32   -40991.548    2734.5387   -43726.087    31.694537   0.91964302 
   38200    220.55948   -1050.7717    135391.74   -41011.286    2740.2346   -43751.521    31.808176    0.9211345 
   38300    223.49602   -911.00968    135389.67   -40968.115    2776.7182   -43744.833    31.768926   0.92114857 
   38400     221.6684   -959.01606    135236.06   -41036.749    2754.0119   -43790.761    31.826968   0.92219486 
   38500    222.59561   -1026.6422    135417.33   -41041.762    2765.5314   -43807.293    31.882816   0.92096042 
   38600    221.53105   -1117.0587    135459.09   -41003.761    2752.3054   -43756.066    31.763653   0.92067651 
   38700    222.24989   -1037.3317    135582.13   -41003.318    2761.2363   -43764.554    31.743439   0.91984098 
   38800    223.00511   -963.80488    135505.61   -41045.631    2770.6191    -43816.25    31.818405   0.92036042 
   38900    220.07182   -898.38653    135641.09   -40989.734    2734.1759    -43723.91    31.850454   0.91944117 
   39000    223.30081   -1045.0267    135779.04   -41031.123    2774.2929   -43805.416    32.041952   0.91850703 
   39100    222.95967   -1081.4537    135744.31    -41000.17    2770.0545   -43770.225    32.160048   0.91874202 
   39200    227.66871   -1093.7678    135638.91   -41037.815    2828.5598   -43866.375     32.13634   0.91945595 
   39300    220.09212   -1064.5004    135764.89   -41028.603    2734.4281   -43763.031    32.339675   0.91860278 
   39400    225.05827   -885.36737    135793.03   -40998.922    2796.1277    -43795.05    32.382935   0.91841242 
   39500    223.89963   -992.92793    135713.63   -40981.207    2781.7326   -43762.939    32.393138   0.91894972 
   39600    218.94621   -1086.2982    135778.06    -41018.25    2720.1913   -43738.441     32.34934   0.91851365 
   39700    226.36774   -1168.8318    135601.99   -40969.742    2812.3965   -43782.139    32.324013   0.91970632 
   39800    220.13476   -945.66764    135540.28   -41032.897    2734.9579   -43767.854    32.440835   0.92012505 
   39900    222.09234   -1114.7309    135529.96   -41064.036    2759.2789   -43823.315     32.32893    0.9201951 
   40000    216.63259   -1175.5648    135554.51   -41075.995    2691.4468   -43767.442    32.460732   0.92002847 
   40100    224.00033   -983.17253     135533.8   -40984.505    2782.9837   -43767.489    32.511314   0.92016901 
   40200    223.31961   -931.26999    135458.38   -40992.119    2774.5265   -43766.645    32.414487   0.92068135 
   40300    223.44343   -910.51683    135279.96   -40985.814    2776.0648   -43761.879    32.421739   0.92189559 
   40400    228.50618   -1087.1376    135389.02   -40892.693    2838.9644   -43731.657     32.60893   0.92115302 
   40500    227.97283   -933.89506    135508.85   -40909.189    2832.3382   -43741.527    32.663363   0.92033845 
   40600    225.64816   -865.93633    135660.15   -40974.296    2803.4564   -43777.752    32.638365   0.91931202 
   40700    222.11758   -1027.3988    135636.13   -41031.556    2759.5924   -43791.149    32.749601   0.91947478 
   40800    221.34537   -996.88474    135611.75   -41070.632    2749.9985   -43820.631    32.826634   0.91964012 
   40900    221.52386   -1097.5226    135651.21   -41095.757     2752.216   -43847.973    32.948036   0.91937258 
   41000    223.29568   -915.69674    135629.22   -41017.902    2774.2292   -43792.131    33.173264   0.91952163 
   41100    228.02141    -982.9217    135538.04   -41002.483    2832.9418   -43835.425    33.055016   0.92014025 
   41200    224.86086   -1041.6079    135685.84   -41013.892     2793.675   -43807.567     33.18918   0.91913793 
   41300    216.03774    -956.3874    135740.84   -41172.958    2684.0563   -43857.015    33.117187   0.91876554 
   41400    222.41948    -1057.201    135627.53   -41135.939    2763.3433   -43899.283    32.919568   0.91953307 
   41500    223.63109   -930.59482    135532.51   -41121.013    2778.3963   -43899.409    32.875013   0.92017778 
   41600    225.16323   -994.47779     135583.7    -41067.87    2797.4317   -43865.302    32.938472   0.91983039 
   41700    224.85478   -1019.6858    135597.39   -41034.409    2793.5994   -43828.008     33.11868   0.91973747 
   41800    226.73183    -1066.047     135555.9   -41053.966    2816.9199   -43870.886    33.108465   0.92001899 
   41900    221.41367    -1015.931    135669.32   -41046.952     2750.847   -43797.799    33.184435   0.91924986 
   42000    218.46905   -1016.5584    135772.39   -41049.966    2714.2631   -43764.229     33.13375   0.91855201 
   42100    226.53318   -1025.0086    135792.31   -41041.134    2814.4519   -43855.586    33.260446   0.91841727 
   42200    227.34185   -1065.9934    135760.07   -40990.332    2824.4988   -43814.831    33.417119   0.91863539 
   42300    225.49242   -961.12362    135867.07   -40977.413    2801.5215   -43778.935    33.507326    0.9179119 
   42400    223.49379   -999.72465    135944.04   -41014.619    2776.6905    -43791.31     33.30335   0.91739224 
   42500    225.92119   -991.64183    135974.24   -41013.246    2806.8485   -43820.094    33.400548   0.91718849 
   42600    223.52982   -1072.5852    135732.25   -41011.172    2777.1381    -43788.31    33.568304   0.91882368 
   42700    225.49667   -1036.8052     135560.7   -41008.809    2801.5743   -43810.383    33.420741    0.9199864 
   42800    222.45437   -931.75277    135680.27   -40969.738    2763.7767   -43733.515    33.514695   0.91917564 
   42900    220.08125   -934.73694    135592.87    -41023.69     2734.293   -43757.983    33.663255   0.91976813 
   43000    219.70459   -914.48627     135632.2   -41054.632    2729.6134   -43784.246     33.89108   0.91950147 
   43100    225.81117   -990.27331    135611.53   -41017.531    2805.4816   -43823.013     33.73411   0.91964158 
   43200    222.61987   -949.47332    135495.52     -40988.5    2765.8329   -43754.332    33.797424   0.92042898 
   43300    227.56573   -770.34973    135444.98   -40995.244    2827.2804   -43822.525    33.895753   0.92077244 
   43400    222.68257   -1054.3731    135458.07   -40955.136    2766.6118   -43721.748     33.86645   0.92068348 
   43500    226.23922   -984.04306    135545.53    -40936.09    2810.7998    -43746.89     34.10387    0.9200894 
   43600     226.8465   -957.61313    135425.28   -40842.267    2818.3446   -43660.611    34.065666   0.92090636 
   43700    230.92725   -941.43536    135628.97   -40883.593     2869.044   -43752.637    34.034393   0.91952337 
   43800    225.56386   -1004.1818    135567.81   -40885.843     2802.409   -43688.253    34.213201   0.91993818 
   43900    224.28102   -1088.7821       135621   -40929.116     2786.471   -43715.587    34.289472   0.91957737 
   44000    226.09159    -992.5028    135493.92   -40952.323    2808.9656   -43761.288    34.352094   0.92043986 
   44100    224.40003   -903.05979    135592.57   -40984.085    2787.9496   -43772.035    34.269361   0.91977021 
   44200    218.90064   -1066.9913    135619.73    -41022.18    2719.6251   -43741.805    34.224412   0.91958596 
   44300    219.91294   -965.73654     135679.8    -41017.51     2732.202   -43749.712    34.306417   0.91917886 
   44400    222.31891   -944.12662    135779.89   -40989.946    2762.0938    -43752.04    34.451454   0.91850128 
   44500    222.58409   -887.90055    135725.19   -41016.876    2765.3883   -43782.264    34.373448   0.91887149 
   44600    220.50879   -1211.5283    135826.36   -41080.293    2739.6049   -43819.898    34.545875   0.91818702 
   44700     222.3826   -966.61729     135800.7   -41062.428    2762.8851   -43825.313    34.409708   0.91836052 
   44800    222.92002   -1119.3182    135815.68   -41027.776    2769.5619   -43797.338    34.390382   0.91825925 
   44900    227.36038   -1028.3267     135769.3   -40991.168     2824.729   -43815.897    34.331665   0.91857293 
   45000    223.91011   -991.63437    135731.13   -40996.269    2781.8629   -43778.132    34.636099   0.91883126 
   45100    224.93268   -1092.1079    135509.53   -40944.635    2794.5673   -43739.202    34.506869   0.92033385 
   45200    222.25357   -995.63004     135604.8   -41016.089     2761.282   -43777.371    34.454549   0.91968725 
   45300    223.78427   -990.59055    135612.19   -41015.936    2780.2994   -43796.236    34.701132    0.9196371 
   45400    223.17536   -876.75349    135610.84   -41021.699    2772.7344   -43794.433     34.67529   0.91964631 
   45500    221.38967   -1004.7129    135699.29   -41028.598    2750.5488   -43779.147     34.70647   0.91904685 
   45600     222.7155   -996.65656    135687.62   -41023.765     2767.021   -43790.786    34.698618   0.91912588 
   45700    223.76283   -1016.5441    135695.82   -41014.507    2780.0331    -43794.54    34.749728   0.91907033 
   45800    229.98277    -972.9949    135830.83   -40986.548    2857.3096   -43843.858    34.661457   0.91815681 
   45900    228.88757   -1118.0096    135835.71   -40919.396    2843.7029   -43763.099     34.98866   0.91812386 
   46000    225.48888    -1093.439    135721.05    -40898.77    2801.4775   -43700.247    34.859036   0.91889948 
   46100    229.78307    -984.5623    135713.81   -40852.347    2854.8285   -43707.176    34.888956   0.91894849 
   46200    230.53011   -735.83769    135673.58   -40844.064    2864.1098   -43708.174     34.84303   0.91922099 
   46300    226.16447   -967.58029    135744.01   -40876.558    2809.8711   -43686.429    34.881225   0.91874408 
   46400     221.9008   -912.13221    135717.23   -40933.431    2756.8992   -43690.331    34.969049   0.91892537 
   46500    225.22107   -1008.5304    135719.48   -40937.678    2798.1502   -43735.829    35.007863   0.91891015 
   46600     227.3294   -992.56625    135825.51   -40928.847    2824.3442   -43753.191    35.062105    0.9181928 
   46700    223.76579   -872.46714    135867.16   -40999.395    2780.0699   -43779.465    35.235362   0.91791132 
   46800    217.88102   -916.31144    135939.14    -41048.59    2706.9574   -43755.547    35.263412   0.91742531 
   46900    225.86953     -1009.23    135901.02   -41003.715    2806.2068   -43809.922    35.326581    0.9176826 
   47000    223.39753   -1139.0482    135837.85   -40958.498    2775.4945   -43733.992    35.368734   0.91810935 
   47100    225.28804   -1000.4857    135857.78   -40944.527    2798.9823   -43743.509    35.331748   0.91797467 
   47200     226.1573   -877.70031    135933.46   -41005.415     2809.782   -43815.197    35.221269   0.91746363 
   47300    225.89799     -1040.86    135979.82   -41021.701    2806.5603   -43828.262    35.516782   0.91715081 
   47400    223.79598   -1002.5916    135967.56   -40988.769    2780.4449   -43769.214    35.574356   0.91723351 
   47500    224.59441   -977.53845    136263.67   -40924.402    2790.3646   -43714.766    35.756575    0.9152403 
   47600    228.29569   -1012.7625     135938.1   -40902.313    2836.3494   -43738.662     35.58899   0.91743233 
   47700    224.77587   -854.44882    135878.35   -40931.769     2792.619   -43724.388    35.623794   0.91783571 
   47800    227.30354   -946.72018    135882.94   -40958.195    2824.0229   -43782.218    35.545021    0.9178047 
   47900    222.26504   -983.01176    135869.31   -41047.963    2761.4244   -43809.387    35.534955   0.91789676 
   48000    220.19048   -954.07672    135967.21   -41063.104    2735.6501   -43798.754    35.522742   0.91723586 
   48100    228.48861   -938.84061    135851.62   -41021.208    2838.7462   -43859.954    35.512676   0.91801629 
   48200     221.2912   -1058.1142    135874.15   -41061.508    2749.3255   -43810.833    35.542498   0.91786412 
   48300    221.16863   -973.28211    135882.65   -41047.702    2747.8026   -43795.504     35.68451   0.91780669 
   48400    229.75759   -1002.4744    136072.78   -40971.604     2854.512   -43826.116    35.688565   0.91652425 
   48500    224.97249    -1172.381    136079.19   -41060.589    2795.0619   -43855.651    35.670986    0.9164811 
   48600    224.74396   -911.56444     135881.9   -41059.069    2792.2226   -43851.291    35.787566   0.91781177 
   48700    224.42773   -1085.1021    135910.01   -41042.808    2788.2938   -43831.102    35.732914    0.9176219 
   48800    228.98472   -985.69805    135712.59   -41080.884    2844.9098   -43925.794    35.664701   0.91895677 
   48900    226.13318   -971.23796    135808.77   -41073.388    2809.4823    -43882.87    35.755439   0.91830596 
   49000    226.24867   -868.67049    135903.91   -41105.559    2810.9172   -43916.476    35.680804   0.91766313 
   49100    222.83676   -952.60879     136036.2   -41097.806    2768.5276   -43866.334    35.847369   0.91677074 
   49200    222.66328   -981.79607    135950.53   -41117.281    2766.3722   -43883.653    35.918489   0.91734843 
   49300    222.55127   -852.32039     136156.8   -41067.116    2764.9806   -43832.097    35.893749   0.91595869 
   49400    227.27256   -1103.5484    136046.71   -41043.908     2823.638   -43867.546    35.910118    0.9166999 
   49500     226.8103   -1067.5984    136000.55   -41083.386    2817.8949   -43901.281    35.893993   0.91701101 
   49600    227.10561   -928.49857     136093.5   -41069.719    2821.5638   -43891.282    36.071879   0.91638473 
   49700    225.21568   -1056.4241    136161.74   -41087.373    2798.0832   -43885.456    35.948829   0.91592543 
   49800    223.72623   -1147.2441     136060.6   -41142.955    2779.5783   -43922.533    35.772338    0.9166063 
   49900    227.87437   -953.17296    135911.39    -41036.95    2831.1149   -43868.065     35.79985    0.9176126 
   50000    226.72973   -944.26798    136063.84   -41074.562    2816.8939   -43891.456    35.804486   0.91658446 
   50100    220.13864   -890.16259    135887.12   -41089.469     2735.006   -43824.475    35.964684   0.91777645 
   50200     223.0713   -917.44341    135882.08    -41129.64    2771.4415   -43901.081    35.857661   0.91781053 
   50300     217.6387    -1083.833    135818.05    -41096.37    2703.9467   -43800.317    36.100949   0.91824324 
   50400    220.74029   -947.75734    135951.27   -41120.299     2742.481    -43862.78    36.300418    0.9173434 
   50500     221.9012   -1030.4716     135922.9   -41159.992    2756.9041   -43916.896    36.168831   0.91753487 
   50600    220.47173   -1090.9549    135770.28   -41175.646    2739.1444   -43914.791    36.096083   0.91856631 
   50700    219.57708   -1022.7951    135933.29   -41171.032    2728.0293   -43899.061    36.025792   0.91746479 
   50800    219.15771   -940.95426    135766.16    -41161.44     2722.819   -43884.259    36.163329   0.91859416 
   50900    223.91139   -878.57081    135968.09   -41077.429    2781.8787   -43859.308    36.246126   0.91722997 
   51000    224.32865   -977.21121    135936.46   -41091.786    2787.0629   -43878.848    36.227716   0.91744337 
   51100    218.15635   -880.97543    135895.39   -41123.356    2710.3781   -43833.734    36.315866   0.91772064 
   51200    223.10881   -1110.2335    135870.81   -41083.228    2771.9075   -43855.135    36.434346   0.91788664 
   51300    218.07024   -1009.2366    135840.98   -41154.608    2709.3082   -43863.916    36.376504   0.91808823 
   51400    219.38736   -1047.8701    135876.08   -41156.688    2725.6721    -43882.36    36.247921   0.91785103 
   51500    218.75679   -959.56047    136058.06    -41156.65    2717.8379   -43874.488    36.326293   0.91662341 
   51600    220.46796   -1043.8492    135967.57   -41085.028    2739.0975   -43824.125    36.367579   0.91723344 
   51700    222.90746   -1102.4873    135944.81   -41079.449    2769.4059   -43848.855    36.613808   0.91738699 
   51800     224.9426   -963.79427    135836.26   -41127.614    2794.6906   -43922.304    36.681882   0.91812015 
   51900    217.93519    -885.9255     135793.9   -41183.213    2707.6303   -43890.844    36.617299   0.91840651 
   52000    218.33346   -969.62333    135906.19   -41192.856    2712.5785   -43905.434    36.665788   0.91764771 
   52100    224.71928   -1062.6915     136006.2   -41111.915     2791.916   -43903.831    36.597677   0.91697292 
   52200    218.04679   -905.20539    135777.08   -41145.131    2709.0168   -43854.148    36.446917   0.91852029 
   52300    223.28216   -928.10557    135826.47   -41137.912    2774.0612   -43911.974    36.434939   0.91818631 
   52400    224.33014   -915.47082    136074.72   -41087.238    2787.0813   -43874.319     36.73024   0.91651121 
   52500    227.12517   -1024.5588    136106.38   -41085.017    2821.8068   -43906.824    36.939461   0.91629802 
   52600    223.55175   -940.95905    136047.67    -41112.94    2777.4106   -43890.351    37.046223    0.9166934 
   52700    223.62811   -967.83304    135994.79   -41136.959    2778.3593   -43915.318    36.922522   0.91704987 
   52800    221.68454   -1029.3088    135974.94   -41095.003    2754.2124   -43849.216    36.821881   0.91718373 
   52900    219.20238   -1019.5327    135978.64   -41089.232     2723.374   -43812.606    36.752355   0.91715878 
   53000    227.51393   -1015.4735    135904.82   -41071.056    2826.6368   -43897.693    36.877755   0.91765694 
   53100    215.82372   -948.22656    135884.86   -41116.801    2681.3974   -43798.199    37.010023   0.91779174 
   53200    222.32074   -1114.1963    135903.04   -41114.053    2762.1165    -43876.17    37.203136   0.91766899 
   53300    222.34008   -1014.3096    135959.75   -41100.521    2762.3568   -43862.878    37.268943   0.91728621 
   53400    221.11062   -1056.4209    135878.01   -41176.768    2747.0819    -43923.85    37.096348   0.91783802 
   53500    218.08403   -1047.6761    135934.97    -41191.21    2709.4796   -43900.689    36.995243   0.91745344 
   53600    220.63678   -918.95433    135926.12   -41194.758    2741.1949   -43935.953    36.797693   0.91751312 
   53700    217.17958   -1062.1625     135807.3     -41214.9    2698.2426   -43913.142    36.880559   0.91831593 
   53800    222.28855     -831.606    135693.95   -41101.742    2761.7166   -43863.458    36.727421   0.91908303 
   53900    226.10706    -1067.071    135834.79   -41161.941    2809.1578   -43971.099    36.835125   0.91813003 
   54000    223.36704   -887.16712    135910.21   -41132.905    2775.1157    -43908.02    36.902755   0.91762056 
   54100    222.61925    -1053.745    135862.08   -41150.373    2765.8252   -43916.198    37.194418   0.91794562 
   54200    224.00178   -924.29365    136012.22    -41130.05    2783.0018   -43913.052     37.43167   0.91693236 
   54300    223.12206    -1006.242    135839.56   -41108.348    2772.0721    -43880.42    37.273717   0.91809784 
   54400    221.85791   -943.69407    135946.51   -41136.387    2756.3663   -43892.754    37.226471   0.91737551 
   54500    222.81826   -890.25405     136027.3   -41124.727    2768.2977   -43893.025    37.291225   0.91683066 
   54600    227.98505   -1033.1634    136097.81   -41027.704      2832.49   -43860.194    37.528877   0.91635569 
   54700    221.41383   -1016.5001    136196.28    -41030.37    2750.8491   -43781.219    37.358832    0.9156932 
   54800    223.86787   -853.26551    136231.96   -41092.472    2781.3381   -43873.811    37.371423   0.91545332 
   54900    220.46759   -1092.9434    136223.29   -41146.815    2739.0929   -43885.908    37.619668   0.91551164 
   55000     221.4422    -1090.489    136321.01   -41197.886    2751.2015   -43949.087    37.470868   0.91485531 
   55100    218.06961   -1012.6327    136384.46   -41163.107    2709.3003   -43872.408    37.591919   0.91442971 
   55200    223.26225   -1036.8332    136258.93   -41184.174    2773.8138   -43957.988    37.609139   0.91527217 
   55300    222.79523   -991.86704     136277.8   -41128.568    2768.0116    -43896.58    37.641687   0.91514541 
   55400    223.26481   -994.43908    136433.58   -41106.676    2773.8457   -43880.522    37.443005    0.9141005 
   55500    229.62455   -994.12972    136323.87   -41049.082    2852.8592   -43901.941    37.315447   0.91483615 
   55600    221.92798   -1096.7442    136401.94    -41108.63    2757.2368   -43865.867    37.615594   0.91431251 
   55700    219.04798   -999.13038     136106.3   -41118.297    2721.4557   -43839.752    37.621474   0.91629853 
   55800    223.99471   -960.14585    135943.88   -41130.886    2782.9139     -43913.8    37.628577   0.91739331 
   55900    224.21309    -899.6279    135919.25   -41112.309     2785.627   -43897.936    37.637389   0.91755952 
   56000    225.32714    -986.4039    135988.15   -41104.489    2799.4681   -43903.957     37.68417   0.91709466 
   56100    223.60593   -1037.7903    136151.01   -41062.617    2778.0837     -43840.7    37.659916   0.91599766 
   56200    220.98973   -1106.6007    136126.61   -41068.698      2745.58   -43814.278    37.748748   0.91616181 
   56300    227.50872   -1030.1166    135981.91   -41091.847     2826.572   -43918.419    37.811522   0.91713674 
   56400    222.65862   -1015.3822    136117.37   -41061.343    2766.3143   -43827.657    37.792315     0.916224 
   56500    222.12513   -936.53142    136004.22    -41145.71    2759.6862   -43905.396    37.916355   0.91698626 
   56600    218.45686   -964.98488    136045.99   -41168.861    2714.1116   -43882.972    37.925124   0.91670473 
   56700    219.25012   -1044.8021    135881.36   -41203.398    2723.9671   -43927.365    37.812339   0.91781537 
   56800    226.50819    -925.0845    135818.26   -41122.042    2814.1415   -43936.184    37.697743   0.91824181 
   56900    223.72306   -1044.8144    135808.84    -41099.12     2779.539   -43878.658    37.696681   0.91830551 
   57000    226.71812   -813.82233    135953.34   -41043.496    2816.7496   -43860.245    37.959933   0.91732947 
   57100    223.58892   -1045.2802    135861.05   -41099.906    2777.8723   -43877.778     38.00366   0.91795257 
   57200    223.54757   -964.47637    135991.04    -41145.15    2777.3586   -43922.509    38.234371   0.91707516 
   57300    218.42014   -938.34475    135957.67   -41187.627    2713.6554   -43901.283    38.094481   0.91730022 
   57400    220.77653   -1057.2024     136000.2   -41196.841    2742.9312   -43939.773    38.029929   0.91701341 
   57500    218.15631   -969.14431    136013.68     -41234.4    2710.3775   -43944.777    38.093393   0.91692248 
   57600    217.28347   -935.07822    136035.32   -41207.273    2699.5333   -43906.806    37.966872   0.91677663 
   57700    219.63489    -1026.141    135928.47   -41262.839    2728.7475   -43991.587    38.046026   0.91749728 
   57800    219.86829   -956.58974    135814.67    -41281.43    2731.6472   -44013.077     38.14985   0.91826608 
   57900    216.48871   -1008.4448     135718.1   -41278.708    2689.6592   -43968.367    38.263641   0.91891945 
   58000    216.74525   -1117.8462    135755.75   -41254.517    2692.8465   -43947.363    38.119387   0.91866462 
   58100    224.63324   -982.98445    135890.96     -41194.7    2790.8471   -43985.547    38.225442   0.91775057 
   58200    223.51051   -994.69317    135725.75     -41141.3    2776.8982   -43918.198     38.06794   0.91886766 
   58300    223.97496   -1074.0662     135655.9   -41071.461    2782.6686    -43854.13    38.133285   0.91934077 
   58400    224.70721   -882.22272    135705.44   -41078.973    2791.7661   -43870.739    38.189821   0.91900517 
   58500    226.52196   -1026.5955    135596.14   -41095.641    2814.3125   -43909.953    38.200706   0.91974597 
   58600     225.2062    -991.7203    135629.65    -41039.42    2797.9655   -43837.385    38.378531   0.91951873 
   58700    227.08299   -1006.4756    135556.07   -41056.727    2821.2828    -43878.01    38.328283   0.92001782 
   58800    223.73364   -927.60352    135515.47   -41112.868    2779.6704   -43892.539    38.330966    0.9202935 
   58900    222.17307   -1072.1546    135632.62   -41153.491    2760.2819   -43913.773    38.196829   0.91949859 
   59000    224.59466   -951.10276    135614.31   -41137.189    2790.3678   -43927.557    38.237871   0.91962273 
   59100    220.33281   -821.03519    135694.01   -41143.651    2737.4184   -43881.069    38.237181    0.9190826 
   59200    225.76859   -1088.7443    135701.78   -41157.888    2804.9526    -43962.84    38.394734   0.91902995 
   59300    221.74268   -1024.6369    135842.19   -41160.561    2754.9346   -43915.496    38.442585   0.91808004 
   59400    220.96592   -871.18308    135978.35   -41211.183    2745.2842   -43956.467    38.486083   0.91716076 
   59500    218.98819   -1018.6102    135959.21   -41167.759    2720.7128   -43888.472    38.423878   0.91728983 
   59600    223.95406   -926.66027    135988.06   -41171.374    2782.4089   -43953.783    38.664545   0.91709526 
   59700    217.46601   -1013.6685    135759.27   -41183.264    2701.8012   -43885.065      38.4761   0.91864083 
   59800    222.76154   -912.44819    135904.26   -41180.479     2767.593   -43948.072    38.649651    0.9176607 
   59900    220.94671   -954.19436    135972.18    -41141.97    2745.0455   -43887.015    38.625451   0.91720234 
   60000    220.93062   -1022.9327    136045.74   -41191.295    2744.8457   -43936.141    38.631308   0.91670643 
   60100    221.75156   -1091.1892    136044.01   -41154.226     2755.045   -43909.271    38.669557   0.91671808 
   60200    222.22619   -972.23468    136141.87   -41120.356    2760.9418   -43881.297    38.837424   0.91605915 
   60300    219.21547   -992.88567    136225.82   -41085.934    2723.5366   -43809.471    38.958959   0.91549464 
   60400    229.17811    -1180.678    136197.69   -41032.847    2847.3126    -43880.16    39.037181   0.91568367 
   60500    220.38385   -911.89177    136046.26   -41082.223    2738.0525   -43820.276    38.932662    0.9167029 
   60600    224.02417   -992.37696    136193.38    -41134.35    2783.2799    -43917.63    39.069992    0.9157127 
   60700    216.63338   -983.59917    136049.57   -41161.089    2691.4566   -43852.546    38.993069    0.9166806 
   60800    224.36105   -999.11484    136190.17   -41107.625    2787.4654    -43895.09    38.960878   0.91573426 
   60900    226.14267   -1069.6753    136093.23   -41093.019    2809.6003   -43902.619    38.925902   0.91638656 
   61000    222.31563   -971.99879    136242.15   -41148.102     2762.053   -43910.155    39.061678   0.91538489 
   61100    220.35107   -1020.7885     136240.9   -41177.782    2737.6453   -43915.428    39.157894   0.91539326 
   61200    224.14557    -1043.004    136178.83   -41197.555    2784.7882   -43982.343     39.22718   0.91581052 
   61300    221.05672   -924.05946    136062.63   -41183.664    2746.4123   -43930.077    39.020135   0.91659262 
   61400    224.66349   -1017.2204    136002.84   -41214.678    2791.2229   -44005.901    39.057469   0.91699559 
   61500    220.34861    -889.4867    136110.22   -41210.543    2737.6147   -43948.157     39.13322   0.91627215 
   61600    221.23295   -1043.9594    136210.28   -41165.225    2748.6017   -43913.827    39.133897   0.91559906 
   61700    224.95818   -894.40111    136405.17   -41252.621    2794.8841   -44047.505    39.206244   0.91429088 
   61800    217.29096   -891.97609    136437.86   -41320.663    2699.6265   -44020.289    39.377443   0.91407183 
   61900    222.25931   -963.18007    136427.65   -41258.467    2761.3533   -44019.821    39.321004   0.91414022 
   62000    222.69138   -967.68085     136473.4   -41223.317    2766.7214   -43990.038    39.303474   0.91383379 
   62100    217.67534   -1083.5788    136408.91   -41226.114     2704.402   -43930.516    39.188226   0.91426584 
   62200    223.62084    -942.4405    136354.03   -41176.776    2778.2689   -43955.045     39.46643   0.91463379 
   62300    219.65094     -1020.03    136232.89   -41208.973    2728.9469    -43937.92    39.596862   0.91544712 
   62400    221.38742   -1052.9678     136028.8   -41143.067    2750.5209   -43893.588    39.638205   0.91682056 
   62500    223.31883   -864.94814    136220.99   -41140.217    2774.5168   -43914.734    39.540519   0.91552706 
   62600     222.1972   -989.29787    136249.03   -41147.097    2760.5816   -43907.678    39.488206   0.91533865 
   62700    224.58486   -1105.9172    136169.99   -41147.656     2790.246   -43937.902    39.341264   0.91586996 
   62800    221.90768   -1011.8407    136062.23   -41148.876    2756.9846    -43905.86    39.515554   0.91659536 
   62900    226.55626   -857.99018    136090.13   -41075.325    2814.7386   -43890.064    39.571384   0.91640739 
   63000    225.47098    -1199.093    136186.15   -41041.761    2801.2551   -43843.016    39.544248   0.91576125 
   63100    224.99889   -1104.8753    136098.42   -41029.031    2795.3899   -43824.421    39.707492   0.91635159 
   63200    222.70164   -852.25816     136126.2   -41059.131    2766.8488    -43825.98    39.775294    0.9161646 
   63300    221.05733   -945.24703    136127.11   -41104.749    2746.4199   -43851.169    39.839169   0.91615848 
   63400    226.19107   -1049.5708    136205.86   -41005.812    2810.2015   -43816.014    39.991502   0.91562878 
   63500    221.18776    -1064.827     135918.9   -41092.583    2748.0403   -43840.623    39.839257   0.91756188 
   63600    223.14137   -970.73864    135870.57    -41098.99    2772.3121   -43871.302    39.822984   0.91788829 
   63700     222.9325    -1025.587    135989.18   -41109.966     2769.717   -43879.683    39.898912   0.91708767 
   63800    217.68099    -1079.298    135901.35   -41210.535    2704.4721   -43915.007    39.842355   0.91768036 
   63900    220.51312   -1131.1176    135833.94    -41183.47    2739.6586   -43923.129    39.766175   0.91813578 
   64000    220.30878   -1022.2532    135834.71   -41171.214    2737.1198   -43908.333    39.931187   0.91813062 
   64100    224.08772   -945.53995    135771.89   -41093.432    2784.0694   -43877.502    40.036244   0.91855541 
   64200    225.06143   -1067.4184    135866.48   -41090.765    2796.1669   -43886.932    40.122112   0.91791592 
   64300    226.30603    -920.2157    136021.34   -41011.299    2811.6298   -43822.929    40.205739   0.91687087 
   64400    224.72124   -929.31417    136007.92   -41030.153    2791.9403   -43822.094    40.073495   0.91696136 
   64500    224.34212    -944.8153    135951.14   -41021.048    2787.2301   -43808.278    40.122431   0.91734431 
   64600    224.09774   -995.89401     136173.9   -41062.102     2784.194   -43846.296    40.027877   0.91584368 
   64700    222.61485   -934.38146    136052.47   -41092.416    2765.7705   -43858.186    40.126501   0.91666105 
   64800    222.95174   -1074.7152    136084.28   -41102.069    2769.9561   -43872.025    40.417409   0.91644683 
   64900     218.7305   -1088.9139    136036.72   -41068.526    2717.5113   -43786.037    40.470077   0.91676719 
   65000    222.99375   -1010.2746    136053.17     -41036.4     2770.478   -43806.878    40.400171   0.91665635 
   65100    220.49741   -854.64672    136049.72   -41050.932    2739.4635   -43790.396    40.360704   0.91667962 
   65200    223.71192   -1218.5196    136051.98   -41047.898    2779.4005   -43827.299    40.592692   0.91666437 
   65300    225.97052    -996.1674    136022.61   -41044.727    2807.4614   -43852.188    40.582539   0.91686232 
   65400    228.70708   -1045.9418    136051.76   -40993.148    2841.4604   -43834.609    40.539466   0.91666588 
   65500    220.79181   -1075.2847    136033.38   -41062.579    2743.1211     -43805.7    40.579632   0.91678975 
   65600    224.37013   -1043.2258    136080.04   -41098.451    2787.5781   -43886.029    40.715528   0.91647535 
   65700    218.77264    -901.8312    135981.02   -41152.112    2718.0349   -43870.147    40.658892   0.91714273 
   65800    218.99333   -966.79115    135974.02   -41152.718    2720.7767   -43873.495    40.820779   0.91718993 
   65900    222.18188   -907.76504    136001.16   -41111.788    2760.3913   -43872.179    41.032506    0.9170069 
   66000    224.60911   -1019.7593    135929.01   -41017.044    2790.5472   -43807.592    40.863201   0.91749366 
   66100     220.6225   -1049.2983    136007.92   -40960.893    2741.0175    -43701.91    41.116291   0.91696133 
   66200    230.18657   -1062.8039    136005.79   -40936.963    2859.8417   -43796.805    41.142664   0.91697568 
   66300    229.53699   -951.82068    136010.92   -40990.537    2851.7713   -43842.308    41.188128   0.91694111 
   66400    225.03022   -1117.1521    135972.33   -41054.991    2795.7792    -43850.77    41.219255   0.91720132 
   66500    219.03719   -1055.3939    135807.34   -41085.337    2721.3216   -43806.658    41.075034   0.91831566 
   66600    222.40741   -970.84596    135791.94   -41126.123    2763.1933   -43889.316    41.042087   0.91841979 
   66700    225.27874   -884.74708    135759.64   -41131.906    2798.8668   -43930.773    41.219691   0.91863826 
   66800    224.15559   -985.25946    135902.59   -41051.651    2784.9127   -43836.563    41.336781   0.91767199 
[...]
   84700    222.28902   -1157.5246    136464.87   -41383.338    2761.7224    -44145.06    46.183824   0.91389093 
   84800    220.58488   -910.65331    136306.77   -41356.101    2740.5501   -44096.652    46.235461   0.91495093 
   84900     222.2828   -959.87428     136291.7   -41332.821    2761.6452   -44094.466    46.348867   0.91505206 
   85000    224.98212   -1106.9788     136317.1   -41274.643    2795.1815   -44069.824    46.500764   0.91488156 
   85100    224.61573   -889.70108    136485.74   -41272.103    2790.6294   -44062.732     46.49738   0.91375116 
   85200    224.57495    -942.6803    136461.15   -41295.548    2790.1229   -44085.671    46.500287   0.91391583 
   85300    217.97108   -1106.5071    136425.35   -41328.454    2708.0762    -44036.53    46.353404   0.91415568 
   85400    220.05616   -897.30939    136488.87   -41325.086    2733.9813   -44059.067    46.150287   0.91373019 
   85500    222.07988   -981.63303    136747.98   -41293.798     2759.124   -44052.922    46.419395    0.9119989 
   85600    228.30358   -971.79461    136955.14   -41277.309    2836.4474   -44113.756    46.549095   0.91061938 
   85700     222.0593   -865.74973    136875.24   -41334.531    2758.8683     -44093.4    46.635858   0.91115094 
   85800       223.61   -910.08645    136922.93   -41340.746    2778.1343   -44118.881    46.780566   0.91083361 
   85900    224.74022   -1075.5057    136676.65   -41255.275    2792.1762   -44047.451    46.364709   0.91247483 
   86000      221.575   -1003.8775       136615    -41304.77    2752.8514   -44057.622     46.41833   0.91288658 
   86100    222.20634   -1023.4023    136536.15   -41314.758    2760.6952   -44075.453    46.386274   0.91341379 
   86200    224.41109   -909.71898    136716.07   -41264.754     2788.087   -44052.841    46.414594   0.91221171 
   86300    225.40392   -1076.2012    136536.26   -41305.067     2800.422   -44105.489    46.366731   0.91341309 
   86400    220.77651   -954.58873     136577.3   -41312.575     2742.931   -44055.506    46.837097    0.9131386 
   86500    225.00952   -1068.7752    136603.63   -41299.376    2795.5219   -44094.898    46.816932   0.91296259 
   86600    223.14263   -1021.4616    136669.08   -41244.087    2772.3277   -44016.415    46.525467   0.91252541 
   86700    224.68828   -1079.4803    136565.91   -41238.964    2791.5309   -44030.495    46.472793   0.91321474 
   86800    223.99296   -980.48664    136450.98   -41312.353    2782.8922   -44095.245    46.402324   0.91398394 
   86900    229.26331   -1052.7531    136490.28   -41290.351    2848.3711   -44138.722    46.656275   0.91372078 
   87000    222.74768   -934.50523    136481.51   -41277.994    2767.4208   -44045.415    46.892472   0.91377947 
   87100    222.78297   -956.41588    136578.77   -41293.946    2767.8593   -44061.805    47.000892   0.91312875 
   87200    220.85721   -991.97474    136540.01   -41305.653    2743.9336   -44049.587    46.972265   0.91338795 
   87300    222.89006   -940.68816     136531.5   -41308.164    2769.1897   -44077.354    46.810209   0.91344488 
   87400    220.89662   -1064.4719    136646.29    -41315.71    2744.4232   -44060.133     46.79086   0.91267755 
   87500    223.50559     -920.925    136755.48   -41327.334    2776.8371   -44104.171    46.526016   0.91194888 
   87600    224.18295   -1016.8283    136620.21   -41331.741    2785.2526   -44116.994    46.680119   0.91285181 
   87700    222.02801    -1038.806    136643.45   -41358.433    2758.4796   -44116.913    46.831485   0.91269652 
   87800     220.6183   -932.65218    136646.93   -41315.144    2740.9654   -44056.109    47.057834   0.91267331 
   87900    220.88236   -902.74193    136769.21   -41342.349     2744.246   -44086.595    47.108331    0.9118573 
   88000    221.54243   -1006.5127    136921.66   -41342.935    2752.4467   -44095.382    47.271197   0.91084201 
   88100    223.73718   -1153.7592    136678.61   -41285.288    2779.7144   -44065.002    46.967885   0.91246172 
   88200    223.07213   -1000.7723    136625.31   -41266.196    2771.4518   -44037.648    46.885851   0.91281774 
   88300    223.68285   -1113.8477    136652.64   -41303.133    2779.0394   -44082.172    47.156124   0.91263518 
   88400     217.6266   -959.46596     136679.7   -41391.383    2703.7964    -44095.18    47.211473    0.9124545 
   88500    219.92931   -1018.9611    136593.95   -41311.292    2732.4053   -44043.697     47.28319    0.9130273 
   88600    228.12011   -1072.9612    136553.36   -41255.084     2834.168   -44089.252    47.221073   0.91329865 
   88700    224.21321   -984.51431    136461.08   -41233.466    2785.6285   -44019.095    47.103034   0.91391628 
   88800    222.96725   -1148.4227    136513.15   -41193.889    2770.1488   -43964.038    46.914825    0.9135677 
   88900    223.82856   -975.75073    136472.42   -41233.782    2780.8497   -44014.632    47.177255   0.91384036 
   89000    225.56334   -892.21044    136431.99   -41218.314    2802.4026   -44020.716    47.045274   0.91411116 
   89100     222.0768   -1061.5689    136423.25   -41326.875    2759.0858   -44085.961    47.200213    0.9141697 
   89200    216.02905   -936.28806    136322.17    -41362.29    2683.9484   -44046.239    47.262574   0.91484753 
   89300    222.87748    -1095.105    136364.31   -41386.014    2769.0334   -44155.047      47.2413   0.91456482 
   89400    216.99288   -1100.1077    136267.41   -41421.079    2695.9231   -44117.002    47.071343   0.91521519 
   89500    213.12812   -928.43609    136232.51   -41436.272    2647.9073   -44084.179    47.037451   0.91544962 
   89600    215.37892   -855.29872    136216.93   -41473.141    2675.8712   -44149.012    47.054985   0.91555434 
   89700    218.68319   -943.40539    136336.94   -41430.583    2716.9235   -44147.507    47.067855   0.91474842 
   89800    219.62439   -1035.4853    136352.81   -41385.232     2728.617   -44113.849    47.369972   0.91464199 
   89900    219.44833   -1021.7556    136439.43   -41456.433    2726.4297   -44182.862    47.497429   0.91406132 
   90000    219.12273   -1032.5752    136367.07   -41353.673    2722.3843   -44076.058    47.581002   0.91454634 
   90100    223.71863   -995.78015    136417.27   -41349.635    2779.4839   -44129.119    47.566209   0.91420976 
   90200    220.13808   -998.20052    136477.88   -41399.281    2734.9991    -44134.28    47.534103    0.9138038 
   90300    220.91602   -951.77309    136408.56   -41409.194    2744.6642   -44153.859    47.476965   0.91426813 
   90400    218.47088   -968.76293    136350.78   -41402.919    2714.2858   -44117.205     47.41056   0.91465563 
   90500    224.29283   -1000.1802    136357.83   -41355.979    2786.6177   -44142.597    47.350542   0.91460832 
   90600     224.2216   -1154.2184    136269.47   -41274.329    2785.7328   -44060.062    47.506716   0.91520135 
   90700     222.4633   -996.00775     136154.5   -41285.271    2763.8877   -44049.158    47.596512   0.91597414 
   90800    223.18029   -986.23296     136083.4   -41314.695    2772.7956   -44087.491    47.695948   0.91645276 
   90900    216.82253   -1038.9312    136035.99   -41385.824    2693.8067   -44079.631    47.638799   0.91677211 
   91000    218.52925   -1067.8791    136016.25    -41405.31     2715.011   -44120.321    47.409765   0.91690518 
   91100    223.48993   -954.32531    136142.07   -41384.019    2776.6425   -44160.661    47.646223    0.9160578 
   91200    224.23321   -1056.9267    136040.68   -41358.148     2785.877   -44144.025    47.628854    0.9167405 
   91300    226.77374   -987.51163    136208.78   -41250.795    2817.4406   -44068.236     47.84218   0.91560914 
   91400    225.07537    -1043.383    136089.61   -41231.482      2796.34   -44027.822    47.822022   0.91641093 
   91500    225.73807   -886.37186     136002.8   -41230.733    2804.5734   -44035.307    47.744179   0.91699585 
   91600    223.77803   -970.18283    136179.95   -41272.905    2780.2219   -44053.127    47.828179   0.91580294 
   91700    220.49359   -1050.3576     136192.8   -41338.363    2739.4159   -44077.779    47.902351   0.91571658 
   91800    226.94815   -985.66082    136260.12   -41311.564    2819.6075   -44131.172    47.776812   0.91526413 
   91900    226.45713   -1093.6953    136291.18   -41328.031     2813.507   -44141.538    47.991998   0.91505556 
   92000    225.06191   -906.67546    136079.74   -41341.701    2796.1729   -44137.874     48.07415   0.91647737 
   92100    220.91859    -1055.194    136205.65   -41396.645    2744.6962   -44141.341    48.198786   0.91563021 
   92200    224.02427   -938.88338    136171.43   -41333.349    2783.2812    -44116.63    47.961026   0.91586026 
   92300     226.2835    -1019.496    136231.59   -41237.659    2811.3499   -44049.009    48.071846   0.91545584 
   92400    224.11905   -990.72351    136268.72    -41239.24    2784.4587   -44023.699    48.008731   0.91520641 
   92500    227.15218   -990.33789    136302.01   -41273.449    2822.1423   -44095.591    48.281827   0.91498284 
   92600    224.14217   -859.30852    136244.87   -41270.512    2784.7459   -44055.258    48.311281   0.91536661 
   92700    224.00241   -977.94135    136171.69    -41248.77    2783.0096   -44031.779    48.138922   0.91585853 
   92800    226.99271   -919.98349    136124.33   -41278.542    2820.1611   -44098.703    48.173402   0.91617719 
   92900    226.26086   -990.04996    136230.23   -41236.089    2811.0686   -44047.158    48.120619   0.91546498 
   93000    220.97906   -1038.9078    136043.82   -41281.552    2745.4474   -44026.999    47.927846   0.91671937 
   93100    224.58215   -1014.3552    136074.39   -41224.944    2790.2123   -44015.156    47.946762   0.91651338 
   93200    225.58868   -925.47407    136008.28   -41260.657    2802.7174   -44063.374    47.858923   0.91695889 
   93300    220.83311   -991.13628    136010.55   -41268.755    2743.6341   -44012.389    48.119303    0.9169436 
   93400    225.01994   -957.08742    135991.58   -41296.118    2795.6514   -44091.769    48.276693   0.91707152 
   93500    222.15686   -888.31867    135987.11   -41330.372    2760.0804   -44090.453    48.246055   0.91710166 
   93600    222.43793   -1053.0872     136054.7   -41401.035    2763.5724   -44164.608    48.255417   0.91664606 
   93700    222.43868   -1072.4666    136056.84   -41378.446    2763.5818   -44142.027    48.094361   0.91663162 
   93800    219.16395   -1000.8792    136207.11   -41323.929    2722.8965   -44046.826    48.232323   0.91562035 
   93900    222.38558   -928.07439    136212.58   -41325.953     2762.922   -44088.875     48.28761   0.91558357 
   94000    225.28704   -969.12112    136146.54   -41344.181    2798.9699   -44143.151    48.254457   0.91602768 
   94100    225.97289   -930.35152    136200.02    -41352.87    2807.4908    -44160.36    48.252839   0.91566802 
   94200    224.51936   -989.29624    136201.97   -41324.553    2789.4322   -44113.985    48.195377   0.91565493 
   94300    221.50574    -984.2042    136251.89   -41268.957    2751.9909   -44020.948    48.371533   0.91531946 
   94400    221.58791   -856.85456    136204.62   -41260.039    2753.0119   -44013.051    48.336608   0.91563712 
   94500    225.16319   -1095.2376    136408.53   -41213.577    2797.4311   -44011.008    48.336532   0.91426838 
   94600    224.23322   -905.09353    136325.79   -41251.698    2785.8771   -44037.575    48.377834   0.91482327 
   94700    223.18702   -1084.6403    136376.09   -41300.093    2772.8792   -44072.972    48.379855   0.91448581 
   94800    223.94505   -902.75944    136267.29   -41279.215    2782.2969   -44061.512    48.247494   0.91521598 
   94900    222.48327   -1071.3002    136295.52   -41263.384    2764.1357    -44027.52    48.418642   0.91502645 
   95000    222.38889   -1111.9071    136274.83   -41260.315    2762.9632   -44023.279    48.515968   0.91516533 
   95100     225.8139   -1037.0192    136261.44   -41258.858    2805.5156   -44064.373    48.532394   0.91525531 
   95200     224.4522   -1052.3383    136362.77   -41264.045    2788.5978   -44052.643    48.631208   0.91457515 
   95300    229.89388   -955.00915    136474.05   -41171.047    2856.2053   -44027.252    48.550605   0.91382944 
   95400    224.21662   -1083.1674    136405.37   -41253.645     2785.671   -44039.316    48.604851   0.91428954 
   95500    223.13682   -981.97318    136351.58   -41244.784    2772.2554   -44017.039    48.569282   0.91465024 
   95600    222.80493    -924.2923     136313.7   -41246.428    2768.1321    -44014.56    48.664331   0.91490438 
   95700    225.77601    -943.9832    136373.72   -41305.629    2805.0448   -44110.674    48.594465   0.91450171 
   95800    222.02215   -1046.4208    136435.67   -41349.927    2758.4068   -44108.333    48.759104   0.91408651 
   95900    224.50869   -967.65738    136470.53   -41296.361    2789.2996   -44085.661      48.7635   0.91385303 
   96000    222.79855   -1006.9639    136350.24   -41362.564    2768.0528   -44130.617    48.611589    0.9146592 
   96100    221.40737   -973.52959    136397.22    -41307.71    2750.7687   -44058.478    48.704777   0.91434419 
   96200    224.03771   -1027.1777    136382.57   -41339.418    2783.4482   -44122.866    48.493122   0.91444241 
   96300    224.89383   -1059.0428     136338.8   -41302.946    2794.0846   -44097.031    48.677205   0.91473594 
   96400    222.63348   -1010.4937    136215.64    -41299.12    2766.0019   -44065.122    48.699463   0.91556304 
   96500    219.83142   -949.33774    136316.98   -41345.601    2731.1891    -44076.79    48.948581   0.91488235 
   96600    224.39016   -969.91439    136421.01    -41344.95     2787.827   -44132.777    48.832295   0.91418472 
   96700    219.07444   -1067.6227    136360.55   -41435.828    2721.7844   -44157.613    48.789183   0.91459007 
   96800     217.6764   -996.43226    136296.95   -41467.065    2704.4152    -44171.48    48.745212   0.91501682 
   96900    220.56863   -971.96622    136380.93   -41392.004    2740.3482   -44132.352    48.629782    0.9144534 
   97000    217.88057   -961.22351    136412.57   -41408.997    2706.9518   -44115.948    48.761753   0.91424129 
   97100    221.64178   -1114.9278    136368.87   -41388.091    2753.6811   -44141.772    48.929429   0.91453423 
   97200    215.68542   -972.13441    136318.64   -41409.701    2679.6791    -44089.38    48.903983   0.91487122 
   97300    220.46153   -980.01724    136274.88   -41402.591    2739.0176   -44141.608    48.912064   0.91516504 
   97400    220.39149   -1006.8494    136364.75   -41391.088    2738.1475   -44129.235    48.791523   0.91456189 
   97500    225.77019   -954.92494     136336.5   -41299.084    2804.9725   -44104.056    48.779664   0.91475142 
   97600     219.9868   -1004.8318    136311.52    -41361.73    2733.1196    -44094.85    48.982625   0.91491901 
   97700     225.6866   -1003.4678    136502.51   -41294.131     2803.934   -44098.065    49.039777    0.9136389 
   97800    219.46536   -1042.2254    136430.39   -41264.203    2726.6412   -43990.844    48.834808   0.91412187 
   97900    224.04208   -1020.6586    136409.83   -41222.372    2783.5025   -44005.874    48.981535   0.91425963 
   98000    223.92601   -1093.4709    136502.88   -41254.126    2782.0604   -44036.186    49.067213   0.91363645 
   98100    224.13494   -988.35631    136457.06   -41338.655    2784.6562   -44123.311    49.007486   0.91394322 
   98200    227.21187   -997.66802    136453.18   -41301.135     2822.884   -44124.019    48.949918   0.91396923 
   98300    221.97031   -1054.0884     136549.2   -41335.876    2757.7627   -44093.639    49.288768   0.91332652 
   98400    221.05449   -987.43325    136562.26   -41344.336    2746.3846   -44090.721    49.415267   0.91323915 
   98500    222.47894   -965.10572    136455.06   -41359.959    2764.0819   -44124.041    49.141637   0.91395658 
   98600    219.68516   -905.48466    136410.81   -41402.284     2729.372   -44131.656    49.033878    0.9142531 
   98700    221.43397   -1026.8961    136347.44   -41441.411    2751.0992    -44192.51    48.997716     0.914678 
   98800     220.1966   -1042.0216    136352.72    -41408.67    2735.7262   -44144.396    49.007401   0.91464259 
   98900    220.94425   -876.62993    136366.16   -41404.697     2745.015   -44149.712    49.094996   0.91455247 
   99000    221.29956   -1152.3824    136263.53   -41434.712    2749.4293   -44184.141    49.085627   0.91524124 
   99100    219.03919   -1112.8926    136141.24   -41371.238    2721.3465   -44092.585    48.987804   0.91606337 
   99200    215.95789   -1082.3195    136045.84    -41357.68    2683.0643   -44040.745    49.201018   0.91670574 
   99300    225.32506   -1014.3182    135994.98    -41319.98    2799.4423   -44119.422    49.006458   0.91704858 
   99400    225.21579   -827.97907    136007.62   -41283.837    2798.0846   -44081.921     49.01871   0.91696333 
   99500    229.43848   -946.82681    136042.69   -41155.782    2850.5474   -44006.329    49.035875   0.91672694 
   99600    226.69514   -915.40705    136070.17   -41187.285    2816.4642   -44003.749    49.270996   0.91654187 
   99700    229.44388   -937.01427    136145.38   -41190.477    2850.6144   -44041.091    49.215876   0.91603549 
   99800    225.74011   -1086.3654    136211.88   -41200.009    2804.5988   -44004.608    49.306874   0.91558827 
   99900    220.75795   -1017.6779    136241.74   -41270.642    2742.7003   -44013.342    49.338093   0.91538765 
  100000     220.7832   -1005.5603    136274.55   -41262.502     2743.014   -44005.516    49.302022   0.91516723 
  100100    224.61662    -984.4731    136160.33   -41216.084    2790.6406   -44006.724    49.268558   0.91593491 
  100200     225.9379   -990.27789    136332.48   -41203.173    2807.0562   -44010.229    49.365854   0.91477834 
  100300    221.93786   -1059.8732    136319.69   -41192.013    2757.3596   -43949.372    49.388706   0.91486417 
  100400    222.94781   -1004.3069    136291.61   -41227.406    2769.9073   -43997.313    49.455604   0.91505269 
  100500    223.59386   -1036.7417     136351.8   -41157.555    2777.9337   -43935.488    49.429946   0.91464875 
  100600    225.90396   -887.33413    136242.68   -41236.904    2806.6345   -44043.539    49.398884   0.91538134 
  100630     227.0688   -1024.8105     136298.6   -41215.629    2821.1064   -44036.735    49.399762   0.91500576 
Loop time of 77.485 on 6 procs for 100000 steps with 4169 atoms

Performance: 557.528 ns/day, 0.043 hours/ns, 1290.573 timesteps/s
98.4% CPU use with 6 MPI tasks x no OpenMP threads

MPI task timing breakdown:
Section |  min time  |  avg time  |  max time  |%varavg| %total
---------------------------------------------------------------
Pair    | 56.315     | 58.431     | 60.364     |  17.5 | 75.41
Neigh   | 5.0246     | 5.0675     | 5.1078     |   1.1 |  6.54
Comm    | 9.1032     | 11.051     | 13.208     |  40.9 | 14.26
Output  | 0.21701    | 0.21843    | 0.22509    |   0.6 |  0.28
Modify  | 1.9683     | 1.9918     | 2.012      |   1.0 |  2.57
Other   |            | 0.7252     |            |       |  0.94

Nlocal:        694.833 ave         702 max         688 min
Histogram: 1 0 1 1 0 0 1 1 0 1
Nghost:        1428.33 ave        1445 max        1404 min
Histogram: 1 0 0 0 1 0 2 0 1 1
Neighs:        0.00000 ave           0 max           0 min
Histogram: 6 0 0 0 0 0 0 0 0 0
FullNghs:      18586.7 ave       18815 max       18059 min
Histogram: 1 0 0 0 0 1 1 0 0 3

Total # of neighbors = 111520
Ave neighs/atom = 26.749820
Neighbor list builds = 5485
Dangerous builds = 0

undump              1
unfix               2
unfix               3
unfix               4


################################################
#######         Run Simulation         #########
################################################

reset_timestep      0
log                 log.run_${NAME}
log                 log.run_liquid_223K_1000atm_ML
