
# Create simulation box of size 50 x 50 x 50 Angstrom
#
lattice	            sc 1
Lattice spacing in x,y,z = 1.0000000 1.0000000 1.0000000
region 	            all block 0 50 0 50 0 50 units box
create_box          1 all
Created orthogonal box = (0.0000000 0.0000000 0.0000000) to (50.000000 50.000000 50.000000)
  1 by 2 by 3 MPI processor grid

# fill box with 4169 randomly distributed atoms
#
create_atoms        1 random 4169 63782 all
Created 4169 atoms
  create_atoms CPU = 0.000 seconds
mass                1 18.15

# Define potential
#
pair_style          sw
pair_coeff          * * ML_mW.sw mW
Reading sw potential file ML_mW.sw with DATE: 2019-02-27

# Run minimization
#
minimize            1.0e-8 1.0e-8 10000 1000
WARNING: Using 'neigh_modify every 1 delay 0 check yes' setting during minimization (../min.cpp:187)
Neighbor list info ...
  update every 1 steps, delay 0 steps, check yes
  max neighbors/atom: 2000, page size: 100000
  master list distance cutoff = 6.0032907
  ghost atom cutoff = 6.0032907
  binsize = 3.0016454, bins = 17 17 17
  1 neighbor lists, perpetual/occasional/extra = 1 0 0
  (1) pair sw, perpetual
      attributes: full, newton on
      pair build: full/bin/atomonly
      stencil: full/bin/3d
      bin: standard
Per MPI rank memory allocation (min/avg/max) = 4.255 | 4.258 | 4.261 Mbytes
Step Temp E_pair E_mol TotEng Press 
       0            0    7783778.6            0    7783778.6    5891538.7 
     630            0   -45100.671            0   -45100.671   -33.645425 
Loop time of 1.1643 on 6 procs for 630 steps with 4169 atoms

99.0% CPU use with 6 MPI tasks x no OpenMP threads

Minimization stats:
  Stopping criterion = max force evaluations
  Energy initial, next-to-last, final = 
       7783778.6045464  -45100.6138394717  -45100.6714481628
  Force two-norm initial, final = 2.0191929e+08 1.9154294
  Force max component initial, final = 1.0948746e+08 0.55224559
  Final line search alpha, max atom move = 0.074060414 0.040899537
  Iterations, force evaluations = 630 1001

MPI task timing breakdown:
Section |  min time  |  avg time  |  max time  |%varavg| %total
---------------------------------------------------------------
Pair    | 0.86942    | 0.98219    | 1.0579     |   7.2 | 84.36
Neigh   | 0.023835   | 0.024994   | 0.026823   |   0.7 |  2.15
Comm    | 0.058904   | 0.13524    | 0.24881    |  19.5 | 11.62
Output  | 0          | 0          | 0          |   0.0 |  0.00
Modify  | 0          | 0          | 0          |   0.0 |  0.00
Other   |            | 0.02189    |            |       |  1.88

Nlocal:        694.833 ave         711 max         678 min
Histogram: 1 2 0 0 0 0 0 1 0 2
Nghost:        1484.33 ave        1523 max        1464 min
Histogram: 2 1 0 1 0 1 0 0 0 1
Neighs:        0.00000 ave           0 max           0 min
Histogram: 6 0 0 0 0 0 0 0 0 0
FullNghs:      19864.7 ave       20554 max       18883 min
Histogram: 1 0 0 2 0 0 0 0 1 2

Total # of neighbors = 119188
Ave neighs/atom = 28.589110
Neighbor list builds = 26
Dangerous builds = 0

# Add velocity/set timestep
#
velocity            all create ${TEMP} 120598 rot yes dist gaussian
velocity            all create 292 120598 rot yes dist gaussian
timestep            5.0

# Define output
#
compute	            1 all msd
thermo	            100
thermo_style        custom step temp press vol etotal ke pe c_1[4] density

# Neighbor lists
#
neigh_modify        delay 0 every 1 check yes

# Set fixes
#
fix                 1 all momentum 10 linear 1 1 1 rescale
fix                 2 all nve
fix                 3 all temp/csvr ${TEMP} ${TEMP} 500.0 928347
fix                 3 all temp/csvr 292 ${TEMP} 500.0 928347
fix                 3 all temp/csvr 292 292 500.0 928347
fix                 4 all press/berendsen iso ${PRES} ${PRES} 1000.0 modulus 20000
fix                 4 all press/berendsen iso 1 ${PRES} 1000.0 modulus 20000
fix                 4 all press/berendsen iso 1 1 1000.0 modulus 20000

# Run 0.5 ns equilibration
#
dump                1 all custom 1000 eq.${NAME}.dump id type x y z vx vy vz
dump                1 all custom 1000 eq.liquid_292K_1atm_ML.dump id type x y z vx vy vz
run                 100000
Per MPI rank memory allocation (min/avg/max) = 3.506 | 3.508 | 3.511 Mbytes
Step Temp Press Volume TotEng KinEng PotEng c_1[4] Density 
     630          292    1293.0392       125000   -41472.859    3627.8128   -45100.671 2.1849767e-33    1.0051886 
     700     182.9367    257.40813    125774.92   -40338.216    2272.8085   -42611.025   0.36234804   0.99899547 
     800    226.51367   -31.635737    125737.33   -39268.187    2814.2095   -42082.397   0.90760614   0.99929416 
     900    243.23594     90.53144    125615.16    -38610.61    3021.9673   -41632.577    1.5431979    1.0002661 
    1000    265.69091    41.936685    125686.42   -38160.797    3300.9482   -41461.746     2.345615   0.99969894 
    1100    276.70433   -27.264921    125659.98   -37853.654     3437.779   -41291.433    3.3029375   0.99990924 
    1200    275.80038    68.199671    125653.09   -37815.095    3426.5485   -41241.644    4.1675374   0.99996411 
    1300    277.99566    -252.3889    125712.63   -37704.076    3453.8226   -41157.898    4.9165732   0.99949047 
    1400    276.42718    243.57129    125579.03   -37673.794    3434.3358    -41108.13    5.8592572    1.0005538 
    1500    278.01619    273.07204    125839.75     -37536.2    3454.0777   -40990.278    6.7875292   0.99848086 
    1600    287.29015    122.19093    125522.85   -37380.966    3569.2975   -40950.263    7.8005584    1.0010016 
    1700    287.72057   -228.62548    125413.33   -37380.591     3574.645   -40955.236    8.9550854    1.0018758 
    1800    287.39363    65.193995    125644.71   -37425.771    3570.5832   -40996.354    10.126901    1.0000308 
    1900    291.30248    62.750396    125831.83   -37370.711    3619.1468   -40989.857    11.089014   0.99854366 
    2000    290.50386    38.802781    125697.75   -37280.717    3609.2246   -40889.941    12.189978   0.99960884 
    2100    285.90399    31.906482    125999.19   -37179.462    3552.0758   -40731.538    13.729554    0.9972174 
    2200    291.75367    12.389455    125590.78   -37201.523    3624.7524   -40826.275    14.986499    1.0004602 
    2300    290.49776   -66.467384    125632.14   -37165.495    3609.1489   -40774.644     16.31072    1.0001309 
    2400    292.90733   -420.76854    125491.72   -37162.508    3639.0854   -40801.593    17.545771      1.00125 
    2500    288.94625    81.601662    125027.23   -37093.404    3589.8729   -40683.277    18.703836    1.0049697 
    2600    295.39238    23.414532    125009.85   -37015.694    3669.9597   -40685.654    19.807541    1.0051095 
    2700    299.50445   -7.0273396    125187.58   -37030.304    3721.0482   -40751.352    21.052321    1.0036825 
    2800    294.77139    72.278342    124810.02   -36989.601    3662.2446   -40651.846    22.279529    1.0067187 
    2900    293.13356   -279.96464     125079.4   -37068.897    3641.8961   -40710.793    23.696087    1.0045506 
    3000    294.51846     302.4559    125189.29   -37093.156    3659.1022   -40752.258    24.786018    1.0036687 
    3100    291.02096   -104.47946     125074.2   -37060.078    3615.6492   -40675.727    26.272126    1.0045923 
    3200    291.27199    142.08082     125093.3   -37119.612    3618.7679    -40738.38    27.389196    1.0044389 
    3300    295.31932   -49.547329    124991.35   -37105.559     3669.052   -40774.611    28.588327    1.0052582 
    3400    289.98702    75.104613    125054.11   -37172.637    3602.8035   -40775.441    30.026644    1.0047537 
    3500    288.31349    200.40512    124982.86   -37197.503    3582.0115   -40779.515    31.276424    1.0053265 
    3600    286.61267    152.34804    125047.66   -37245.318    3560.8804   -40806.198    32.330482    1.0048055 
    3700    290.94756   -50.314801    125167.69   -37312.829    3614.7372   -40927.567    33.051914    1.0038419 
    3800    288.72885    87.867783    124938.05   -37249.072    3587.1719   -40836.244    33.909596     1.005687 
    3900     290.5692   -81.729749    125102.36    -37276.83    3610.0364   -40886.867    34.892249    1.0043662 
    4000     291.1764   -16.968454    125092.83   -37283.081    3617.5803   -40900.661    35.689654    1.0044427 
    4100    284.87486    114.19101    125141.11   -37249.317    3539.2898   -40788.606    36.645219    1.0040552 
    4200    288.87372    283.41765    125135.18   -37254.445    3588.9718   -40843.417    37.772692    1.0041027 
    4300    291.28403   -173.24755    124941.12   -37255.246    3618.9175   -40874.164     39.17931    1.0056623 
    4400    285.84542   -52.083322    124886.25   -37220.325    3551.3481   -40771.673      40.0936    1.0061042 
    4500    286.99102    104.55046    124904.74   -37201.411    3565.5811   -40766.992    40.983641    1.0059552 
    4600    290.10531    -266.9621    124471.88   -37256.152     3604.273   -40860.425    41.806818    1.0094535 
    4700    297.06904    205.55283    124452.32   -37155.024    3690.7906   -40845.815     42.64494    1.0096122 
    4800    286.54929    48.811396    124419.19    -37231.84     3560.093   -40791.933    43.413587    1.0098811 
    4900    296.15411   -1.3902191    124687.94    -37062.45    3679.4235   -40741.873    44.885048    1.0077043 
    5000    299.86065   -77.528501    124881.54   -36996.081    3725.4736   -40721.555    46.481072    1.0061421 
    5100    291.97016   -212.43993    124701.46   -37074.186     3627.442   -40701.628    47.557907    1.0075951 
    5200    286.60686    71.806554    124586.15   -37149.016    3560.8083   -40709.824    49.088179    1.0085276 
    5300    294.22453    9.9334006     124799.9   -37092.653    3655.4504   -40748.103    50.370525    1.0068003 
    5400    293.67249    141.25285    124900.91   -37146.941    3648.5919   -40795.533    51.631571    1.0059861 
    5500    296.51557   -84.019258    125086.11   -37154.446    3683.9143   -40838.361    53.152105    1.0044966 
    5600    295.24027    15.994422    124777.82    -37170.53    3668.0699     -40838.6    54.663214    1.0069785 
    5700    292.35998      -3.3109    124648.77   -37167.869    3632.2852   -40800.154    55.841762     1.008021 
    5800    292.31679   -57.409631    124467.31   -37205.121    3631.7485   -40836.869    57.183502    1.0094906 
    5900     286.1806   -85.532219    124644.08   -37251.893    3555.5124   -40807.406    58.474552    1.0080589 
    6000    287.44344   -26.526126    125023.13   -37239.526     3571.202   -40810.728    59.745015    1.0050027 
    6100    290.66501    70.741798    125088.46    -37156.53    3611.2268   -40767.756    61.052873    1.0044778 
    6200    287.39119   -323.69369    125156.76   -37250.182    3570.5528   -40820.735    62.141956    1.0039296 
    6300    290.14572    -13.16157    124909.83   -37181.658    3604.7752   -40786.433    63.241391    1.0059143 
    6400    294.43848   -88.713003    124961.75   -37148.339    3658.1085   -40806.447    64.504947    1.0054963 
    6500    291.79355    164.32174    125178.93   -37076.001    3625.2478   -40701.248    65.676007    1.0037518 
    6600    284.10389   -173.07352    125242.49   -37149.187    3529.7113   -40678.899    67.071055    1.0032424 
    6700    287.62834   -19.984817    125415.06   -37212.313    3573.4992   -40785.813    68.489394     1.001862 
    6800    297.42714   -114.70024    125059.06   -37121.329    3695.2396   -40816.569    69.895489    1.0047139 
    6900    297.22627     54.17864    125073.92    -37056.81     3692.744   -40749.554    70.893981    1.0045946 
    7000    294.96042    123.24753    124972.83   -37046.963    3664.5931   -40711.556     72.05014    1.0054072 
    7100    298.44226    194.31672    125231.77   -37068.693    3707.8515   -40776.545    73.726208    1.0033283 
    7200    293.93697   -57.670552    124910.02   -37165.606    3651.8777   -40817.483    74.846361    1.0059127 
    7300    293.19111   -37.740367    124719.32   -37277.158    3642.6111   -40919.769    76.188267    1.0074508 
    7400    284.67055   -18.481554    124757.53   -37305.506    3536.7515   -40842.257    77.102552    1.0071423 
    7500    285.15609   -135.12446    124573.78   -37247.582     3542.784   -40790.366    78.253278    1.0086278 
    7600    288.26757   -84.210387    124595.58   -37344.564     3581.441   -40926.005    79.439299    1.0084513 
    7700    293.85919    116.02683    124594.08   -37200.556    3650.9114   -40851.467    80.588646    1.0084635 
    7800    292.38999     108.3192    124719.85   -37170.688     3632.658   -40803.346    81.948978    1.0074465 
    7900    290.80791    146.51495    124806.84   -37233.842    3613.0022   -40846.844    83.333496    1.0067443 
    8000    290.07208    35.129039    125065.48   -37183.798    3603.8603   -40787.659    84.523291    1.0046623 
    8100    286.70148   -113.97366    124848.98   -37300.213    3561.9839   -40862.197    86.065353    1.0064045 
    8200    280.00269    127.65831    124977.78   -37308.053     3478.758   -40786.811     87.65975    1.0053673 
    8300    288.97317   -122.34622    125079.92   -37291.392    3590.2074   -40881.599     88.88204    1.0045463 
    8400    292.02655    93.828089    125197.85    -37243.68    3628.1426   -40871.823       90.349    1.0036002 
    8500    291.80353    58.028745    125190.13   -37138.109    3625.3718    -40763.48    91.561071     1.003662 
    8600    290.18226     209.0592    125198.95    -37158.19    3605.2291   -40763.419    93.349454    1.0035913 
    8700    290.26813     251.5148    124927.41   -37132.998     3606.296   -40739.294    94.581125    1.0057727 
    8800    292.86086   -129.45816    125050.14   -37197.839    3638.5081   -40836.347    95.446955    1.0047856 
    8900    286.82583   -18.509296    125107.03   -37298.357    3563.5288   -40861.885    96.126586    1.0043287 
    9000    293.57948    105.84907    125143.39   -37225.995    3647.4363   -40873.431     96.88384    1.0040369 
    9100    286.79695   -195.88223    125238.63     -37316.4      3563.17    -40879.57    98.238438    1.0032733 
    9200    292.50575   -120.61466    125116.48    -37202.58    3634.0962   -40836.676     99.56093    1.0042528 
    9300    290.59057    35.143547    125204.71   -37243.246     3610.302   -40853.548     100.9028    1.0035452 
    9400    295.79332    238.30936    125389.87   -37190.879     3674.941    -40865.82     102.2346    1.0020633 
    9500    290.45093   -12.917389    125687.87   -37214.837     3608.567   -40823.404    103.58897   0.99968737 
    9600    296.31763   -78.697041    125687.88    -37183.24     3681.455   -40864.695    104.51817   0.99968732 
    9700    294.56169    198.04202    125571.62   -37118.039    3659.6392   -40777.678    105.43647    1.0006129 
    9800    287.88417   -288.12224    125511.69   -37213.515    3576.6776   -40790.193    106.30661    1.0010907 
    9900    281.29854    119.94437    125570.75   -37279.258    3494.8577   -40774.116    107.45793    1.0006198 
   10000    291.73233   -19.854507    125335.28   -37279.398    3624.4872   -40903.885    108.43064    1.0024997 
   10100    290.58241    -266.5076    125134.68   -37238.748    3610.2006   -40848.948    109.41613    1.0041068 
   10200    288.80897    159.24498    125363.52     -37303.7    3588.1674   -40891.867    110.87672    1.0022739 
   10300    284.04578   -39.820962    125347.44   -37274.176    3528.9894   -40803.166    111.95994    1.0024025 
   10400    293.98858   -59.690791    124954.01   -37203.029     3652.519   -40855.548     112.9046    1.0055586 
   10500    293.19838   -100.69174    124994.79    -37173.95    3642.7014   -40816.652    113.70865    1.0052305 
   10600    296.30701    165.63995    125037.78   -37090.218    3681.3232   -40771.541    114.48844    1.0048849 
   10700    295.07792    279.56953    125245.02   -37086.832    3666.0529   -40752.885    115.96413    1.0032221 
   10800    294.97079    169.82765    125346.02   -37069.738    3664.7218    -40734.46    117.51161    1.0024138 
   10900    290.84515   -17.631799     125179.4   -37093.143    3613.4649   -40706.608    118.96984    1.0037481 
   11000    295.05434    217.28515    125553.49   -37092.101      3665.76   -40757.861    120.77441    1.0007574 
   11100    291.63936   -356.15576    125296.42   -37146.936    3623.3322   -40770.268    122.07937    1.0028106 
   11200    291.23153    130.34091    125193.32   -37139.061    3618.2653   -40757.326    123.13907    1.0036364 
   11300     290.0805     67.94204    125181.84   -37140.169    3603.9649   -40744.134    124.16626    1.0037285 
   11400    295.02523   -178.14655    125340.29   -37152.465    3665.3983   -40817.863    125.10924    1.0024596 
   11500    290.11473    126.85211    125302.51   -37178.706    3604.3901   -40783.096    126.50214    1.0027619 
   11600    289.58303    247.52745    125204.72   -37169.169    3597.7843   -40766.953    127.46192     1.003545 
   11700    295.54938    269.93312    125286.78   -37029.063    3671.9103   -40700.974    128.68054    1.0028878 
   11800      294.894    74.211014    125189.25   -37117.334    3663.7679   -40781.102    130.03398    1.0036691 
   11900    290.89064    222.96746    125138.34   -37137.786      3614.03   -40751.816    130.89387    1.0040774 
   12000    293.30864    139.37302    125295.76   -37135.578    3644.0713   -40779.649    131.87727    1.0028159 
   12100    291.63871    -41.24251    125261.73   -37092.733     3623.324   -40716.057    132.79809    1.0030883 
   12200    291.16702   -72.854017     125043.1   -37088.882    3617.4638   -40706.345    133.53768    1.0048421 
   12300    292.00042   -36.801751     124843.7   -37104.455     3627.818   -40732.273    133.79909    1.0064471 
   12400    298.13474    14.243278    124708.62   -37092.783    3704.0309   -40796.814     134.0372    1.0075373 
   12500    286.73708    -169.3094    124789.98   -37224.271    3562.4262   -40786.697    135.01162    1.0068804 
   12600    293.99535    97.156773    124771.48   -37117.494     3652.603   -40770.097    136.53357    1.0070297 
   12700    294.19739   -213.77786     125141.5   -37106.691    3655.1132   -40761.804    137.64684    1.0040521 
   12800    298.61599    13.903046    124734.18   -37090.201    3710.0099   -40800.211    138.83056    1.0073308 
   12900    294.10096   -367.64346    124679.07   -37170.394    3653.9152   -40824.309    140.48308     1.007776 
   13000    295.82291     468.5032    124865.77   -37111.228    3675.3086   -40786.537    141.94681    1.0062692 
   13100    294.35135   -135.87895    125207.82   -37107.742     3657.026   -40764.768    143.31852    1.0035202 
   13200     300.1718   -35.633209    125204.56   -36990.579    3729.3393   -40719.918    144.07827    1.0035463 
   13300    299.77271   -129.88883    125263.86    -37046.69    3724.3811   -40771.071    145.14714    1.0030713 
   13400    293.16692   -33.447081    125459.04   -37148.916    3642.3106   -40791.227    146.48685    1.0015108 
   13500    292.34804   -228.47954    125291.46   -37175.034    3632.1368   -40807.171    147.31064    1.0028503 
   13600    286.86175    142.65478    125182.93   -37218.404    3563.9751   -40782.379    149.01301    1.0037197 
   13700    288.76815    -93.58842    125211.66   -37215.926    3587.6602   -40803.586    150.28123    1.0034895 
   13800    301.92677   -55.600439    125169.57   -37108.616    3751.1431   -40859.759    151.34178    1.0038269 
   13900    291.36814   -184.76381    125122.47   -37164.906    3619.9625   -40784.868    151.97487    1.0042047 
   14000    292.51838    129.78709    125127.59   -37151.177    3634.2531    -40785.43    153.66747    1.0041637 
   14100    286.73004    27.988393     125420.5   -37170.032    3562.3386   -40732.371    155.96639    1.0018186 
   14200    291.89036     72.85714    125083.28   -37222.346    3626.4506   -40848.797    157.28579    1.0045194 
   14300    289.71945    2.4597108    124880.79   -37304.251    3599.4792   -40903.731     158.3674    1.0061482 
   14400    287.16337    38.198125    124905.93   -37263.404    3567.7224   -40831.126    160.01461    1.0059457 
   14500    293.99844     271.4247    125089.92   -37178.841    3652.6414   -40831.482    161.95361     1.004466 
   14600    288.03043   -162.48762    125146.01   -37172.393    3578.4947   -40750.888    163.78802    1.0040159 
   14700    290.74303   -290.31435    124730.14   -37214.489    3612.1961   -40826.685     164.6969    1.0073634 
   14800    292.98321    60.289893    124572.81   -37293.923    3640.0282   -40933.951    165.66706    1.0086357 
   14900    286.23319    293.45316    124906.64   -37383.535    3556.1658   -40939.701    167.10604      1.00594 
   15000    285.73682     -218.469    124926.96   -37390.349    3549.9989   -40940.347    168.65947    1.0057763 
   15100    284.85243   -151.34929     124866.6   -37403.951    3539.0112   -40942.962    170.22484    1.0062625 
   15200    293.20185    167.93117    124752.87   -37306.591    3642.7446   -40949.336      171.502    1.0071799 
   15300    285.90469   -96.768967    124787.42   -37325.377    3552.0845   -40877.461    173.18241     1.006901 
   15400    284.73476   -188.77724     124717.9   -37306.827    3537.5493   -40844.376    174.60039    1.0074623 
   15500    290.05569    91.654623    124939.83   -37262.876    3603.6566   -40866.533     175.9533    1.0056728 
   15600    291.53029   -49.421712    124995.24   -37177.604    3621.9771   -40799.581    177.72503    1.0052269 
   15700    293.84149    196.73622    125002.38   -37306.733    3650.6915   -40957.425    179.60872    1.0051695 
   15800    286.18951    85.233033    125216.52   -37280.298    3555.6232   -40835.921     181.0278    1.0034505 
   15900    285.56243    14.720358    125127.49   -37306.785    3547.8323   -40854.618    182.62523    1.0041645 
   16000    288.88743    171.46053    125332.28   -37227.468    3589.1421    -40816.61    183.51676    1.0025237 
   16100    289.25157    118.22287    125358.26   -37151.119    3593.6662   -40744.785    184.34874    1.0023159 
   16200    289.03416    274.99162    125367.62   -37214.592    3590.9651   -40805.557    184.81068    1.0022411 
   16300    292.50342    45.500421    125244.77   -37235.351    3634.0672   -40869.418    185.90304    1.0032242 
   16400    292.18647    28.191463     125303.7    -37104.41    3630.1295   -40734.539     187.1817    1.0027523 
   16500     293.3534   -93.925375    125373.35   -37089.906    3644.6275   -40734.533    188.92293    1.0021953 
   16600    291.45386   -203.65744    125139.51   -37079.677    3621.0275   -40700.704    190.23968     1.004068 
   16700    291.28445   -88.063557    125376.62   -37120.403    3618.9228   -40739.326    192.29528    1.0021692 
   16800    294.63362    62.587835    125427.01   -37109.483    3660.5329   -40770.016    193.80095    1.0017665 
   16900    291.94678    146.74452     125408.4   -37073.792    3627.1516   -40700.944    195.20198    1.0019152 
   17000    292.85176   -192.90978    125453.16   -37084.573    3638.3951   -40722.968    196.17303    1.0015577 
   17100    295.55471   -8.2869169    125332.11   -36986.368    3671.9765   -40658.344    197.11304    1.0025251 
   17200    300.28157   -432.37805    125021.33    -37022.66    3730.7031   -40753.363    198.00083    1.0050172 
   17300    292.07794   -114.46093    125016.37   -37101.942    3628.7811   -40730.723    199.72097     1.005057 
   17400    291.89221    10.374232    124886.77    -37143.94    3626.4736   -40770.414    199.65016       1.0061 
   17500    290.36391    126.89555    124956.68   -37120.253     3607.486   -40727.739    201.05749    1.0055371 
   17600    294.60061    200.45156     125124.8   -37103.177    3660.1228   -40763.299    202.35459    1.0041861 
   17700    294.65124    29.660748    124906.29   -37136.527    3660.7518   -40797.278    203.47449    1.0059428 
   17800    292.06062   -53.892256    124670.73   -37126.243    3628.5659   -40754.808     203.7286    1.0078435 
   17900    297.23143   -176.06447    124785.25   -37068.999    3692.8081   -40761.807    204.59835    1.0069185 
   18000    297.19581     -58.1545    124659.43   -37004.541    3692.3656   -40696.907    205.53546    1.0079349 
   18100    289.09994    97.983648    124511.31   -37139.333    3591.7823   -40731.115    206.30092    1.0091339 
   18200    295.24762    225.86333    124469.75    -37143.23    3668.1613   -40811.392    208.41241    1.0094708 
   18300     295.0154    267.74485    124618.07   -37034.657    3665.2762   -40699.934    210.18595    1.0082694 
   18400    290.74124    332.72523     124795.9   -37109.973    3612.1739   -40722.147    211.08207    1.0068326 
   18500    295.96111   -314.09675    124856.59   -37057.318    3677.0257   -40734.344     212.2975    1.0063432 
   18600    290.99405   -81.503896    124663.47   -37140.186    3615.3148   -40755.501    213.11244    1.0079021 
   18700    292.44368   -87.595318    124745.44   -37094.418    3633.3251   -40727.743    214.64952    1.0072399 
   18800    294.25669    41.797088    124801.49    -37049.38      3655.85    -40705.23    215.77446    1.0067875 
   18900    295.14208    71.026082    124856.09   -37108.386      3666.85   -40775.236    217.47124    1.0063472 
   19000    295.49246    163.75415    124747.13   -37064.025    3671.2031   -40735.229    218.82854    1.0072262 
   19100    291.78136    153.27389    124785.73   -37134.342    3625.0964   -40759.438     220.6472    1.0069146 
   19200    291.34519   -2.1321279    124842.08   -37094.468    3619.6774   -40714.146    221.56369    1.0064602 
   19300    294.54653    116.00846    125096.08   -37015.252    3659.4508   -40674.703    223.96787    1.0044166 
   19400    289.98794   -11.896136    125180.92   -37023.878    3602.8149   -40626.693    225.27749    1.0037359 
   19500     298.2878   -161.60427    125276.97   -37019.067    3705.9324       -40725    226.86622    1.0029663 
   19600    297.38288   -23.655736    125203.98   -37074.426    3694.6898   -40769.115    228.03923     1.003551 
   19700    299.85848   -273.74321    125099.21    -37041.27    3725.4467   -40766.717    229.61122    1.0043914 
   19800    289.67126   -294.84943     124794.3   -37111.063    3598.8805   -40709.943    230.94946    1.0068455 
   19900    287.12759   -162.61263    124591.57   -37098.019    3567.2778   -40665.296    232.04384    1.0084838 
   20000    289.97367    139.01085    124577.56   -37172.564    3602.6376   -40775.201    234.17751    1.0085972 
   20100      293.918    76.413097    124795.93   -37132.927     3651.642   -40784.569    236.21499    1.0068323 
   20200    287.50585    183.54403    124830.31   -37191.397    3571.9773   -40763.375    237.94855     1.006555 
   20300    286.48334    48.643787    124810.85   -37212.847    3559.2737   -40772.121     239.5224     1.006712 
   20400    293.21222    64.279335    124879.45   -37219.968    3642.8734   -40862.841    240.89046     1.006159 
   20500    292.08068    366.97145    125188.73   -37173.619    3628.8151   -40802.435    243.60849    1.0036733 
   20600    288.81523   -29.474116    125064.65   -37225.829    3588.2452   -40814.074    244.68398     1.004669 
   20700     291.3612     314.9793    125019.87   -37130.849    3619.8763   -40750.725    246.79163    1.0050289 
   20800    293.97205    39.432931    124866.21    -37145.73    3652.3135   -40798.043    248.19837    1.0062657 
   20900    291.62017   -65.887959    125140.98    -37205.12    3623.0938   -40828.214    250.36428    1.0040562 
   21000     289.1027   -435.71144    124929.65   -37322.316    3591.8166   -40914.132    251.22929    1.0057547 
   21100    282.98951    35.668897    125031.45   -37342.744    3515.8663    -40858.61    252.87621    1.0049358 
   21200    289.87777   -66.969335    125149.05   -37302.249    3601.4461   -40903.695     254.3406    1.0039914 
   21300    287.95099   -372.11504    125037.77   -37303.541    3577.5078   -40881.049    255.54622     1.004885 
   21400    290.01648   -61.203572    125037.86   -37262.626    3603.1695   -40865.795    256.41592    1.0048843 
   21500     288.5065   -104.03376    124995.29   -37261.086    3584.4094   -40845.495    257.94675    1.0052265 
   21600    290.57007   -75.588571    124928.02   -37196.847    3610.0472   -40806.895    258.53573    1.0057678 
   21700    295.22371    42.210587    125014.21   -37136.685    3667.8642   -40804.549    259.91497    1.0050744 
   21800    291.30241    294.87579     125057.7   -37116.109    3619.1459   -40735.255    261.36302    1.0047249 
   21900    292.04066    8.7780096    125114.84   -37132.763    3628.3179   -40761.081    262.86265     1.004266 
   22000    290.14294    216.71808    125304.79   -37191.062    3604.7406   -40795.803    264.10024    1.0027436 
   22100    293.96038    235.30102    125421.58   -37099.661    3652.1685   -40751.829    265.54087    1.0018099 
   22200    291.35429    275.85992    125430.96   -37146.889    3619.7904   -40766.679    266.59818     1.001735 
   22300    294.68494    105.94618    125388.79    -37123.89    3661.1705    -40785.06    267.00325    1.0020718 
   22400    291.19577    175.70638    125574.32   -37073.644     3617.821   -40691.465    268.89366    1.0005914 
   22500    296.98575   -103.28347    125213.98   -37079.682    3689.7557   -40769.438    270.12331    1.0034708 
   22600    293.45063    59.551188    125183.92    -37050.15    3645.8354   -40695.985    271.68959    1.0037118 
   22700    292.65631    136.43705    125174.61   -37075.847    3635.9668   -40711.813    273.97837    1.0037865 
   22800    294.87333    96.452619    125107.53   -37062.679     3663.511    -40726.19    275.83075    1.0043247 
   22900    296.78919   -57.905843    125260.22   -37115.534    3687.3137   -40802.848    277.65697    1.0031004 
   23000    293.47706   -65.526453    125201.48   -37082.459    3646.1637   -40728.623    278.76981     1.003571 
   23100    285.41945   -83.900687    124990.39   -37205.209    3546.0559   -40751.265    279.68736    1.0052659 
   23200    293.94821   -162.52606    125145.23   -37109.299    3652.0173   -40761.316    280.75619    1.0040222 
   23300     293.8043   -13.997393     125225.9   -37196.605    3650.2294   -40846.835    281.74845    1.0033754 
   23400    295.99864    182.22568    125322.81   -37104.034    3677.4919   -40781.526    282.80037    1.0025994 
   23500    290.46132   -180.17964    125597.32   -37160.271    3608.6961   -40768.967    284.22667    1.0004082 
   23600    292.69638   -27.690192    125682.27   -37135.094    3636.4646   -40771.558    284.93116    0.9997319 
   23700    289.49665    54.085382     125655.1   -37192.062    3596.7111   -40788.773    286.09775   0.99994812 
   23800    286.35725   -25.038637    125414.95   -37251.583    3557.7072   -40809.291    287.12265    1.0018629 
   23900    284.91583    145.60123    125604.93   -37257.027    3539.7989   -40796.826    289.28534    1.0003475 
   24000    292.31165   -17.407595    125252.85   -37161.927    3631.6847   -40793.612    289.75658    1.0031595 
   24100    292.99386    161.98231    125346.14   -37159.969    3640.1604   -40800.129    290.52798    1.0024128 
   24200    291.78079   -47.093328    125156.95   -37249.711    3625.0893   -40874.801     290.7403    1.0039281 
   24300    295.98652   -110.89889    124894.95   -37211.215    3677.3414   -40888.557    290.84034    1.0060341 
   24400    283.85186  -0.52528598    124608.83   -37271.756    3526.5801   -40798.336    290.71754    1.0083441 
   24500    294.55631    233.19129    124688.03   -37202.069    3659.5724   -40861.641    291.38936    1.0077036 
   24600    290.04196    304.19008    125071.42   -37189.287     3603.486   -40792.773    292.57104    1.0046146 
   24700    292.29409   -241.65218    124925.26   -37219.659    3631.4665   -40851.126    294.13928      1.00579 
   24800    292.49031     74.98119    124618.39   -37203.098    3633.9044   -40837.002     294.4012    1.0082667 
   24900    291.92401    171.82818    125144.05   -37141.327    3626.8686   -40768.196    296.45853    1.0040316 
   25000    295.56274   -59.904333       125267   -37115.536    3672.0763   -40787.612    298.20905    1.0030462 
   25100    293.96021   -110.97485    125339.89   -37135.963    3652.1664    -40788.13    299.48834    1.0024628 
   25200    291.13526   -231.99492    124988.95   -37206.772    3617.0693   -40823.841    300.90254    1.0052775 
   25300    290.75445    238.22682    124624.85   -37226.511     3612.338   -40838.849    301.39288    1.0082145 
   25400    292.47658    71.865574     125101.8   -37204.803    3633.7337   -40838.537    303.49451    1.0043707 
   25500    286.40329    277.77512    125221.44   -37133.499    3558.2791   -40691.778    305.40553    1.0034111 
   25600    288.21677    65.307045    125371.91   -37228.121    3580.8098   -40808.931    307.07667    1.0022068 
   25700     286.6914   -195.70378    125368.65    -37230.95    3561.8586   -40792.809    308.74048    1.0022329 
   25800    289.79544   -23.152751    125228.61   -37188.988    3600.4232   -40789.411    309.30942    1.0033536 
   25900    294.42907    127.12426    125258.16   -37132.686    3657.9916   -40790.678    310.29922    1.0031169 
   26000    293.54274     249.7427     125387.2   -37007.695    3646.9798   -40654.674    311.08166    1.0020846 
   26100    287.97151    113.22971     125237.6   -37122.966    3577.7628   -40700.729    311.10835    1.0032816 
   26200    289.51932   -11.098018    125071.97   -37108.947    3596.9928    -40705.94    311.07158    1.0046102 
   26300    290.06138    256.61647    124962.64   -37065.504    3603.7273   -40669.231    311.96041    1.0054891 
   26400    292.43405    153.68503    125111.19   -37045.243    3633.2054   -40678.449    313.12965    1.0042953 
   26500    294.49705    187.80314    125353.75    -37125.55    3658.8362   -40784.386    314.21001     1.002352 
   26600    287.60012   -164.89423    125311.43   -37222.892    3573.1486   -40796.041    315.14144    1.0026905 
   26700    288.96291    -31.83585    125078.04   -37250.125    3590.0798   -40840.205    315.79609    1.0045614 
   26800    292.55758   -15.028733    124821.99    -37153.62    3634.7402    -40788.36    316.19756    1.0066222 
   26900    292.66651    76.825258    124759.51   -37152.013    3636.0935   -40788.106    317.24966    1.0071263 
   27000     291.0739   -215.04297    124720.33   -37195.851    3616.3068   -40812.158    318.34574    1.0074426 
   27100      294.261    385.52696    125213.18   -37202.902    3655.9035   -40858.805    320.41164    1.0034772 
   27200    289.92808    39.249578     125627.9   -37219.183    3602.0711   -40821.254    322.54399    1.0001646 
   27300    291.71713    9.0699566    125686.02   -37264.779    3624.2984   -40889.078     323.2397   0.99970209 
   27400    289.02175   -30.792163    125703.87   -37188.824    3590.8109   -40779.635    324.10293   0.99956016 
   27500    291.40277   -119.08781    125404.95    -37096.22    3620.3928   -40716.613    324.40237    1.0019427 
   27600    288.18383   -35.420465    125345.56   -37137.891    3580.4006   -40718.292    325.72051    1.0024175 
   27700    297.03365    145.53418    125351.57   -37160.827    3690.3509   -40851.178    326.17558    1.0023694 
   27800    291.46538     13.54294    125582.71   -37077.444    3621.1706   -40698.615    328.01314    1.0005245 
   27900    293.91022   -227.19833    125534.63   -37090.174    3651.5453   -40741.719    329.02251    1.0009077 
   28000    295.72798   -120.57986    125173.34   -37136.471    3674.1293   -40810.601    328.91713    1.0037966 
   28100     291.2019    -51.90816    125093.77   -37111.185    3617.8971   -40729.082    330.25466    1.0044352 
   28200    288.36022    15.691502    125371.72   -37182.757    3582.5921   -40765.349    332.06125    1.0022083 
   28300    291.22623   -76.555922    125063.58   -37189.637    3618.1994   -40807.836    332.47616    1.0046776 
   28400    288.39462   -278.17374    125021.26   -37233.957    3583.0194   -40816.976    333.49578    1.0050177 
   28500    287.25347    153.43298    124947.78   -37250.746    3568.8418   -40819.587    334.78151    1.0056087 
   28600    291.13212    181.86992    125058.64   -37170.896    3617.0302   -40787.926    335.90936    1.0047173 
   28700    289.18252   -38.522598     125200.2   -37159.812    3592.8084    -40752.62     337.7052    1.0035813 
   28800    291.00463    103.23263    125172.14   -37123.356    3615.4462   -40738.802    337.85732    1.0038063 
   28900    301.16233   -145.77769    124997.73   -37083.234    3741.6457    -40824.88    338.62218    1.0052069 
   29000    289.70657    106.09643    124904.05   -37190.947    3599.3192   -40790.266    339.40855    1.0059608 
   29100     287.6021    51.984198     124617.4   -37124.553    3573.1732   -40697.726    340.54303    1.0082748 
   29200    293.21687   -155.47713    124697.66   -37058.787    3642.9312   -40701.718    341.63689    1.0076258 
   29300    290.12067   -392.32644    124725.35   -37132.113     3604.464   -40736.577    342.78678    1.0074021 
   29400    293.86381    101.50626    124464.39   -37187.158    3650.9688   -40838.126    343.66167    1.0095143 
   29500    290.01261   -3.9111802    124406.13   -37234.387    3603.1213   -40837.508    344.89254    1.0099871 
   29600    298.81148   -6.0366781    124647.16    -37129.68    3712.4387   -40842.119    346.36929     1.008034 
   29700    284.08423    67.653505    124810.36   -37163.269    3529.4671   -40692.736    347.77658     1.006716 
   29800    289.27467    -24.30534    124616.36   -37134.824    3593.9532   -40728.777    348.46757    1.0082832 
   29900    287.90082   -68.298076    124945.52   -37167.982    3576.8844   -40744.867    349.71155     1.005627 
   30000    294.79186     296.8777    124897.28   -37134.937    3662.4988   -40797.436    349.96445    1.0060153 
   30100    295.20328   -138.79365    125169.55   -37155.687    3667.6103   -40823.297    351.56813     1.003827 
   30200     289.1933    195.16383     125101.8   -37206.575    3592.9423   -40799.517    352.03873    1.0043707 
   30300     289.4734   -220.32516    125323.45   -37141.314    3596.4222   -40737.736    353.33041    1.0025944 
   30400    293.73381   -198.23703    124968.37   -37133.645    3649.3537   -40782.999     353.2702     1.005443 
   30500    297.45758    209.57792    124892.83   -37162.511    3695.6178   -40858.129    354.59728    1.0060512 
   30600    291.36909     225.1159     125050.7   -37133.823    3619.9744   -40753.798    356.88628    1.0047811 
   30700    293.07219    84.635974    125161.99   -37134.721    3641.1337   -40775.854    358.63562    1.0038877 
   30800    294.53709   -123.89402    125218.76   -37042.069    3659.3336   -40701.403    360.81071    1.0034325 
   30900    287.16658    93.698746    125198.89    -37178.02    3567.7623   -40745.782    362.35012    1.0035918 
   31000    284.99554   -266.36004     125181.1   -37228.221    3540.7892    -40769.01    364.52056    1.0037344 
   31100    287.22157   -210.85785    124995.63   -37237.718    3568.4455   -40806.164    365.01614    1.0052237 
   31200    288.36338   -163.27298    124979.29   -37257.709    3582.6313   -40840.341    366.42364    1.0053552 
   31300    290.58533    191.04487    125224.31   -37182.056    3610.2369   -40792.293    368.61196    1.0033881 
   31400    289.35752    9.3725932    125149.74   -37118.721    3594.9825   -40713.703    368.44051    1.0039859 
   31500    292.10116    27.666454    124992.29   -37186.188    3629.0696   -40815.258     368.9689    1.0052506 
   31600    294.00659    55.300906    125106.06   -37098.855    3652.7427   -40751.597    370.04335    1.0043365 
   31700    289.12014    33.390369    125185.49   -37150.946    3592.0333    -40742.98    372.22898    1.0036992 
   31800    295.34819    18.978939    125134.96   -37069.829    3669.4107    -40739.24    373.75821    1.0041045 
   31900    294.28886   -68.291718    125117.35   -37021.738    3656.2496   -40677.987    375.78472    1.0042458 
   32000      293.373     247.5344    125075.37   -37025.358     3644.871   -40670.229    376.22674    1.0045829 
   32100    297.07676    16.475196    125504.11   -37034.185    3690.8865   -40725.072    378.52809    1.0011511 
   32200    293.44106   -132.10488    125313.14   -37065.341    3645.7165   -40711.058    379.56662    1.0026768 
   32300    294.26655   -128.21841    124975.45   -37041.565    3655.9724   -40697.538    380.34564    1.0053861 
   32400    291.39359   -126.49574    124900.61   -37127.007    3620.2787   -40747.285    381.20886    1.0059885 
   32500    292.92707    105.52643    124837.34   -37106.612    3639.3307   -40745.943    382.47775    1.0064984 
   32600    291.51297     129.8887    124889.46   -37074.932    3621.7619   -40696.694    383.79445    1.0060783 
   32700    291.86087   -254.98739    125049.12   -37177.482    3626.0842   -40803.566    384.95229    1.0047938 
   32800    289.67531    43.348777    124789.49   -37226.807    3598.9308   -40825.738    385.43208    1.0068843 
   32900    289.77571   -65.460061    125184.92   -37231.013    3600.1781   -40831.191    388.54637    1.0037038 
   33000    291.62601   -8.7425332    124972.64    -37337.28    3623.1663   -40960.447    388.15315    1.0054087 
   33100    292.86135   -45.255152    125057.29   -37251.084    3638.5142   -40889.598    389.09136    1.0047282 
   33200    287.91946    75.700637    125083.21   -37297.183    3577.1161   -40874.299    389.93386    1.0045199 
   33300    294.77074       191.32    125153.37   -37194.509    3662.2364   -40856.746    390.86526    1.0039568 
   33400     287.6207   -101.76539    124962.83   -37286.581    3573.4042   -40859.985    391.46153    1.0054876 
   33500    288.27367   -56.903741    124976.72   -37249.917    3581.5168   -40831.434    392.92292    1.0053758 
   33600    288.73711   -153.81649    124935.47   -37191.894    3587.2746   -40779.168    394.28055    1.0057078 
   33700    289.52636    163.61743    124780.06   -37148.924    3597.0802   -40746.004    394.97316    1.0069604 
   33800    291.84172   -215.18432     124758.5   -37160.109    3625.8463   -40785.955    396.19221    1.0071344 
   33900    288.87406    193.09093    124746.78   -37178.705     3588.976   -40767.681    397.23796     1.007229 
   34000    292.66038   -50.109018    124670.42   -37110.911    3636.0173   -40746.929    398.81895     1.007846 
   34100    296.08009   -125.20847     124586.1   -37150.239    3678.5039   -40828.743    400.22728    1.0085281 
   34200    292.40577    23.652265    124703.08   -37141.178    3632.8541   -40774.032    401.68139     1.007582 
   34300    287.95026     73.41607    124936.71   -37216.655    3577.4987   -40794.154    402.36567    1.0056978 
   34400    289.56542   -149.38904    125190.26    -37111.94    3597.5655   -40709.506    404.20719     1.003661 
   34500    297.47749   -25.984026    125216.42   -37152.417    3695.8652   -40848.282     405.6105    1.0034513 
   34600    292.28699      10.5211    125028.38    -37153.11    3631.3784   -40784.488    406.53469    1.0049605 
   34700    288.72995    51.722116    125113.84   -37252.028    3587.1856   -40839.214    407.48946     1.004274 
   34800     282.6688   0.73013336    125057.64   -37253.699    3511.8818   -40765.581    408.92821    1.0047253 
   34900    287.48212    16.826054    125275.02   -37223.278    3571.6825   -40794.961    409.79496    1.0029819 
   35000     281.3433   -77.857777    125347.16   -37310.896    3495.4138   -40806.309    410.56924    1.0024047 
   35100    292.09896   -30.151444    125227.56   -37262.818    3629.0422    -40891.86    411.79472     1.003362 
   35200    285.96081   -14.034403    124967.16   -37267.404    3552.7817   -40820.186    412.17831    1.0054528 
   35300    290.33145    123.01922    124692.59   -37269.251    3607.0826   -40876.334    412.61045    1.0076668 
   35400    287.44157     64.78279    124507.72   -37260.092    3571.1787   -40831.271    413.76765     1.009163 
   35500    290.93916    133.36139    124596.98   -37125.424    3614.6329   -40740.057    415.09318      1.00844 
   35600    293.58561    62.248203    124405.84   -37160.355    3647.5124   -40807.868    415.94376    1.0099894 
   35700    295.97968   -224.16682    124759.95   -37117.787    3677.2564   -40795.043     417.5909    1.0071227 
   35800    292.42156   -30.359526    124865.78   -37155.108    3633.0503   -40788.159    418.84461    1.0062692 
   35900    295.32049   -5.2105195    124797.45   -37092.858    3669.0666   -40761.924    419.04937    1.0068201 
   36000    293.77146    244.00068       124887   -37048.242    3649.8215   -40698.064    420.68883    1.0060982 
   36100     289.8681   -207.88909    124841.33   -37090.051     3601.326   -40691.377    422.07149    1.0064662 
   36200    291.40005    71.715584    124707.29   -37119.183    3620.3589   -40739.542    423.71288     1.007548 
   36300    289.10512    200.42642    124618.71   -37201.759    3591.8467   -40793.606    424.81868    1.0082642 
   36400    299.61469    73.100503    124866.73   -37123.202    3722.4178    -40845.62    427.11613    1.0062614 
   36500     289.8615   -18.789549    124597.96   -37085.549     3601.244   -40686.793    428.52419    1.0084321 
   36600    287.23202   -154.07954    124581.38   -37266.469    3568.5753   -40835.044    430.08973    1.0085663 
   36700    289.58052    199.07805    124854.67   -37180.182    3597.7531   -40777.935    432.49569    1.0063587 
   36800     290.3834   -53.615534    124839.13   -37191.198    3607.7281   -40798.926    433.26657    1.0064839 
   36900    290.51004   -80.339862     124948.4   -37211.508    3609.3014    -40820.81     434.5931    1.0056037 
   37000    293.53734    -333.9942    124782.35   -37126.331    3646.9127   -40773.243    434.89982    1.0069419 
   37100    295.54951    92.160924    124721.98   -37115.199    3671.9119   -40787.111    435.38041    1.0074293 
   37200    293.99997   -60.213706    124908.43   -37169.238    3652.6604   -40821.898     437.6485    1.0059255 
   37300    292.45747   -20.968865    124870.04   -37201.281    3633.4963   -40834.777    438.23786    1.0062348 
   37400    290.39468   -105.73093    125007.46   -37262.719    3607.8682   -40870.587    439.60987    1.0051287 
   37500     285.5366   -87.605977    125046.96   -37274.394    3547.5114   -40821.905    441.31038    1.0048111 
   37600    292.65389   -96.851401    124967.06   -37212.739    3635.9367   -40848.676    443.45467    1.0054536 
   37700    287.09932   -168.62966    125129.84   -37216.465    3566.9266   -40783.392    445.30393    1.0041456 
   37800    282.44136   -50.408853    125108.35   -37331.716    3509.0561   -40840.772    446.55224    1.0043181 
   37900    282.65204    102.77781    125255.06   -37264.781    3511.6736   -40776.455    447.52584    1.0031418 
   38000    293.20755   -31.947204    125124.02   -37254.053    3642.8154   -40896.868    447.75673    1.0041923 
   38100     289.8362   -3.6668476    125337.08   -37175.993    3600.9297   -40776.922    448.42411    1.0024853 
   38200    294.10854   -39.002799    125304.52   -37179.487    3654.0093   -40833.496    448.61144    1.0027458 
   38300    296.71703   -78.766614    125203.81   -37123.894    3686.4173   -40810.311    450.08183    1.0035524 
   38400    293.28547    126.22627    125312.87   -37195.979    3643.7835   -40839.763    451.70263     1.002679 
   38500    290.71055   -120.02147    125233.28   -37215.432    3611.7926   -40827.224    452.98619    1.0033162 
   38600    293.34312   -146.04571     125095.2   -37161.894    3644.4997   -40806.394    454.14509    1.0044237 
   38700    292.42157   -268.69514    125151.16   -37149.123    3633.0503   -40782.174    455.19939    1.0039745 
   38800    286.49708    142.17875    125194.87   -37171.843    3559.4444   -40731.288    455.84443     1.003624 
   38900    295.47492   -343.45103     125108.1   -37107.382    3670.9852   -40778.367    457.18354    1.0043201 
   39000    292.26973   -89.322177    124695.44   -37146.017    3631.1638   -40777.181    457.07254    1.0076437 
   39100    295.51753   -52.707252    124903.36    -37098.89    3671.5146   -40770.405    458.72995    1.0059664 
   39200    292.41061    30.503306    125168.84   -37114.497    3632.9142   -40747.411    460.36588    1.0038328 
   39300    291.95969   -44.238769    125044.21     -37124.8     3627.312   -40752.112    460.73344    1.0048333 
   39400    292.69612    26.642957    125077.51   -37106.896    3636.4614   -40743.357    462.15632    1.0045657 
   39500    296.71874    182.70174    125426.46   -37088.898    3686.4384   -40775.337    464.00107    1.0017709 
   39600    290.66224     88.30123       125395   -37120.695    3611.1924   -40731.888    464.90372    1.0020222 
   39700    290.88341   -88.730268    125062.59   -37086.518    3613.9402   -40700.458    465.10337    1.0046856 
   39800    293.35859    97.304171    125037.28   -37203.575     3644.692   -40848.267    465.80404    1.0048889 
   39900    288.35035   -74.846685    125025.67   -37253.003    3582.4695   -40835.473     466.4203    1.0049822 
   40000    292.27495   -91.947322    125281.65   -37291.147    3631.2287   -40922.375    468.48125    1.0029288 
   40100    291.55661    -272.2088     125191.4   -37196.396    3622.3041     -40818.7    468.10307    1.0036519 
   40200    293.97961   -273.73088    125109.79   -37210.845    3652.4075   -40863.252    469.42193    1.0043066 
   40300    289.81298   -30.769394    125006.08   -37188.859    3600.6412     -40789.5    470.42423    1.0051398 
   40400    296.08554   -236.35435    125271.69   -37049.794    3678.5716   -40728.366    471.89496    1.0030086 
   40500    297.91102   -85.291991    125144.77    -37046.37    3701.2513   -40747.622    473.10897    1.0040258 
   40600    292.85272    191.03209    125182.19   -37120.223     3638.407    -40758.63    474.82043    1.0037257 
   40700    288.44191    326.82458    125159.42   -37161.755     3583.607   -40745.362    476.27961    1.0039083 
   40800    292.12805   -35.082635    125089.77   -37209.797    3629.4037     -40839.2     477.7964    1.0044673 
   40900    290.29697   -154.12596    125083.15   -37249.023    3606.6543   -40855.677    479.00101    1.0045204 
   41000    296.55851    5.1123249    125003.89   -37161.585    3684.4478   -40846.032    480.01935    1.0051573 
   41100    292.07692    40.703105    124916.51   -37146.397    3628.7684   -40775.165    480.64207    1.0058605 
   41200    292.53861    286.88644    124708.43   -37144.999    3634.5044   -40779.503    481.74525    1.0075387 
   41300    284.07991   -46.468502    124659.98   -37334.832    3529.4134   -40864.245    483.20085    1.0079304 
   41400    282.39184   -119.80838    124723.34   -37269.787    3508.4408   -40778.228    484.76913    1.0074183 
   41500    286.83386    125.87851    124645.44   -37245.781    3563.6286    -40809.41    485.22638    1.0080479 
   41600    287.81429   -65.272462    124669.18   -37190.762    3575.8094   -40766.571     486.8051     1.007856 
   41700    288.70136   -3.2697085    124576.33   -37167.811    3586.8304   -40754.641    488.11614    1.0086071 
   41800    293.18942    179.61892    124862.78   -37144.972    3642.5901   -40787.562    490.29616    1.0062933 
   41900    292.12903   -4.3713957    124756.13   -37144.109    3629.4159   -40773.525    491.53733    1.0071536 
   42000    292.77011    95.301411    124665.46   -37138.619    3637.3806       -40776    492.65632     1.007886 
   42100    292.01477    75.247628    124708.06   -37130.846    3627.9962   -40758.842    494.19119    1.0075418 
   42200    299.22089   -86.643671    124670.85   -37089.356    3717.5252   -40806.882    494.77076    1.0078425 
   42300    293.48429    126.92072    124618.58   -37080.614    3646.2536   -40726.868    495.54664    1.0082652 
   42400    295.04192    86.960092    124977.21   -37109.578    3665.6056   -40775.184    497.93202     1.005372 
   42500    293.18331   -6.3299871    124973.52   -37108.529    3642.5142   -40751.043    498.95825    1.0054017 
   42600     298.5574   -125.87967    125153.53   -37085.142     3709.282   -40794.424    500.03927    1.0039556 
   42700    290.05015    256.00879    125137.51   -37103.652    3603.5878    -40707.24    501.28351     1.004084 
   42800    293.28914   -28.275684    125153.78   -37081.536    3643.8291   -40725.365    502.63077    1.0039535 
   42900    287.25014   -264.40339    124867.92   -37173.709    3568.8004   -40742.509    503.52089    1.0062519 
   43000      289.137    42.992861    124525.73   -37208.682    3592.2428   -40800.925    505.02581     1.009017 
   43100    294.75059     30.68581    124764.25   -37184.665    3661.9861   -40846.651    507.38647     1.007088 
   43200    293.31475    71.448745    125191.69   -37141.899    3644.1473   -40786.046    508.83454    1.0036495 
   43300    292.49016   -0.1671564    125119.96   -37156.844    3633.9025   -40790.747     509.9689    1.0042249 
   43400    291.54404     82.94467    125242.92   -37112.575     3622.148   -40734.722    510.80133     1.003239 
   43500     291.7228   -83.058808    125431.51   -37114.057    3624.3689   -40738.425     513.1119    1.0017306 
   43600    293.51313    45.756955    125432.28    -36969.74     3646.612   -40616.352    514.45189    1.0017245 
   43700    296.33435   -214.17866    125419.98   -36991.339    3681.6627   -40673.002    516.15115    1.0018226 
   43800    294.10509   -210.70509    125563.17   -36979.022    3653.9664   -40632.988    517.63802    1.0006802 
   43900    292.24783   -101.80345    125498.32   -37034.397    3630.8918   -40665.289    518.89411    1.0011973 
   44000    293.45993    -114.6872    125139.74   -37105.371     3645.951   -40751.322    519.34346    1.0040662 
   44100    293.28221    14.484619    125110.39   -37160.077     3643.743    -40803.82    519.44385    1.0043017 
   44200    294.06027    63.883669    125050.05   -37205.771    3653.4095   -40859.181    520.63249    1.0047863 
   44300    287.98396    -241.2022    124956.79   -37214.498    3577.9174   -40792.415    521.77058    1.0055363 
   44400    292.16294    245.02175     124965.6   -37179.517    3629.8371   -40809.354    522.67239    1.0054654 
   44500     293.3189    -296.7332    124999.95   -37200.383    3644.1988   -40844.582    525.25652     1.005189 
   44600    292.30789    78.280913    125091.45   -37274.568    3631.6379   -40906.205     526.6015    1.0044538 
   44700    284.63773   -34.782122    125158.26    -37251.84    3536.3438   -40788.184    528.04696    1.0039176 
   44800    284.27408    47.156565    124714.46   -37211.091    3531.8258   -40742.917    528.28944    1.0074901 
   44900    295.30121    68.598661     125011.3   -37124.242    3668.8271   -40793.069    529.99739    1.0050978 
   45000    289.76301     127.5499    125100.33   -37106.749    3600.0204   -40706.769    531.38593    1.0043825 
   45100    296.28191     108.9012    125131.11   -37047.745    3681.0113   -40728.756     531.9327    1.0041355 
   45200    289.31344    265.39936    125408.21   -37141.099    3594.4349   -40735.534    534.82356    1.0019167 
   45300    290.64531    221.08893    125791.85   -37157.598     3610.982    -40768.58    538.20311   0.99886102 
   45400    292.80378     108.8165    125754.52   -37163.068    3637.7989   -40800.866    538.86062   0.99915757 
   45500    288.47319     46.90747    125274.45   -37152.112    3583.9957   -40736.108     538.8857    1.0029865 
   45600    293.38018   -43.189903    125492.38   -37164.203    3644.9601   -40809.163    540.99336    1.0012447 
   45700    293.15143   -207.86449    125254.99   -37133.889    3642.1181   -40776.007    541.50991    1.0031423 
   45800    295.52125    180.09243    125067.47   -37085.529    3671.5609    -40757.09    542.59176    1.0046463 
   45900    297.40641   -123.10629    125044.27   -36969.028    3694.9821    -40664.01    543.35314    1.0048328 
   46000    300.92283   -57.143342    125111.27   -36947.002    3738.6702   -40685.672     545.4078    1.0042947 
   46100    298.99878   -116.56962    124861.61   -36897.049    3714.7658   -40611.814      545.886    1.0063028 
   46200    298.26848   -35.261077    124647.22   -36883.719    3705.6924   -40589.411    547.14398    1.0080336 
   46300    299.37169   -197.88173    124848.47   -36904.189    3719.3987   -40623.587    548.55687    1.0064086 
   46400     291.8194   -201.66584    124553.83   -36987.772     3625.569   -40613.341    548.43324    1.0087893 
   46500    292.25208    -64.79505     124813.3   -36997.857    3630.9445   -40628.801    550.22628    1.0066922 
   46600    297.65449    44.002055     124774.3   -36987.341    3698.0642   -40685.405    551.17004    1.0070069 
   46700    295.28548   -49.071536    124872.38   -37056.671    3668.6316   -40725.303    552.37135    1.0062159 
   46800    292.67688    160.85104    124897.68   -37134.962    3636.2223   -40771.184    554.65485    1.0060121 
   46900    292.79899   -65.001755    124692.01   -37083.916    3637.7395   -40721.656    555.72018    1.0076715 
   47000    293.35537    121.98876    124633.24   -37029.359    3644.6519   -40674.011    556.60965    1.0081466 
   47100    294.58213    153.74079    124859.62   -37014.866    3659.8932   -40674.759     558.3122    1.0063188 
   47200    293.01403   -29.955905    124938.36   -37089.883     3640.411   -40730.294    559.91628    1.0056846 
   47300    295.51187    13.001567    124895.94   -37127.907    3671.4443   -40799.352    560.67326    1.0060262 
   47400    291.58011   -2.6175216    124855.43   -37091.018     3622.596   -40713.614    562.77456    1.0063526 
   47500    296.54113    79.333201    124786.93   -37001.568    3684.2318   -40685.799    563.95726     1.006905 
   47600    295.44429   -266.05609    124836.15   -36939.223    3670.6047   -40609.828    565.51325     1.006508 
   47700    303.69063    2.5185331    124719.27   -37007.603    3773.0574    -40780.66    567.61674    1.0074512 
   47800    294.83544   -22.822935    124927.37   -37031.063    3663.0402   -40694.103    569.54763     1.005773 
   47900    293.05432   -326.29555    124774.51   -37135.657    3640.9116   -40776.568    570.57956    1.0070052 
   48000    291.96098    119.47868    124868.39    -37182.13    3627.3279   -40809.458     572.1301    1.0062481 
   48100    295.06068   -111.89924    124846.58   -37131.029    3665.8386   -40796.868    573.61739    1.0064239 
   48200    296.25365    196.66589    124570.16   -37182.324    3680.6601   -40862.984    574.69859    1.0086572 
   48300    292.49397    10.530199    124666.64   -37156.245    3633.9499   -40790.195    575.99062    1.0078765 
   48400    294.18789     29.89205    124783.22   -37036.194    3654.9951   -40691.189    577.41555    1.0069349 
   48500    294.09835   -139.97554    124639.27   -37135.566    3653.8827   -40789.449    578.41438    1.0080979 
   48600    292.94024   -34.579692    124806.96   -37100.141    3639.4943   -40739.635    579.42725    1.0067434 
   48700     295.1217    11.036958    124638.79   -37089.491    3666.5968   -40756.088    580.56234    1.0081017 
   48800    293.61107   -122.55878    124670.35   -37142.095    3647.8288   -40789.924    582.03943    1.0078465 
   48900    297.03752    -226.5116    124274.82   -37106.674     3690.399   -40797.073    581.76174    1.0110542 
   49000    296.60704    119.87755    124445.18   -37164.378    3685.0507   -40849.429     583.0442    1.0096701 
   49100    286.48394    262.64751    124936.87   -37153.303    3559.2811   -40712.584    585.67955    1.0056965 
   49200    289.80755   -116.97834    124619.41   -37173.641    3600.5737   -40774.215    586.86577    1.0082585 
   49300    292.25349   -209.72029    124482.39    -37093.96    3630.9622   -40724.922    588.68408    1.0093683 
   49400     297.2146    91.884209    124459.09   -37052.752     3692.599   -40745.351    588.90858    1.0095572 
   49500    295.97582   -42.440983    124783.34   -37094.561    3677.2084   -40771.769    592.33038    1.0069339 
   49600    291.14395    178.74843    125089.39   -37064.688    3617.1772   -40681.866    594.73494    1.0044703 
   49700    295.39442   -102.25185    124984.47   -37097.679    3669.9851   -40767.664    595.00667    1.0053135 
   49800    287.75446   -193.70949    124861.39   -37184.388    3575.0661   -40759.454    595.56958    1.0063045 
   49900    292.74113    308.23363    125296.06    -37045.27    3637.0206   -40682.291    597.73797    1.0028135 
   50000    297.09577   -61.606049    125174.23   -37082.078    3691.1226   -40773.201    599.35924    1.0037895 
   50100    291.22808    64.041972    124966.43   -37116.138    3618.2223   -40734.361      600.673    1.0054586 
   50200    290.67524    149.62902    125102.07   -37160.562    3611.3539   -40771.916     602.5878    1.0043685 
   50300    294.94923     71.79371    125265.16   -37148.611     3664.454   -40813.065    604.54769    1.0030609 
   50400    288.81634   -28.441788    125250.38   -37162.707    3588.2589   -40750.966    606.71767    1.0031792 
   50500    291.23102    16.122254    125042.89   -37217.995    3618.2589   -40836.254    607.29915    1.0048439 
   50600    290.41962   -34.211343    124964.94   -37234.432    3608.1781    -40842.61    608.11727    1.0054707 
   50700     293.3434     58.11863    124621.39   -37245.133    3644.5032   -40889.636    609.10784    1.0082425 
   50800    287.22963   -112.51154    124724.03   -37236.396    3568.5457   -40804.942     609.8655    1.0074127 
   50900     291.3901    88.640138    124789.35   -37150.054    3620.2353    -40770.29    611.71704    1.0068854 
   51000    290.06946   -27.730404    124851.29   -37169.412    3603.8278    -40773.24    613.17818    1.0063859 
   51100    291.79808   -21.113754    124682.25   -37226.175    3625.3041   -40851.479    613.31673    1.0077504 
   51200    287.08111    264.49031    124690.59   -37183.502    3566.7004   -40750.203    614.89359    1.0076829 
   51300    287.37615    225.83297    124971.69   -37272.135     3570.366   -40842.501    616.76131    1.0054163 
   51400    290.97119   -62.679653    125099.26   -37279.433    3615.0308   -40894.463    618.80102    1.0043911 
   51500    289.76151    206.33356    125098.03   -37300.753    3600.0017   -40900.755    619.46567     1.004401 
   51600    290.04945     15.79037    124790.06   -37224.723    3603.5791   -40828.302    619.82277    1.0068797 
   51700    288.51251    317.89574    124519.27   -37224.916    3584.4841     -40809.4    619.95378    1.0090693 
   51800    287.75023   -141.11729     124509.6   -37263.534    3575.0135   -40838.547    620.85436    1.0091477 
   51900    286.15788   -80.941686    124497.12   -37314.925    3555.2301   -40870.155    622.50432    1.0092489 
   52000    285.49043   -110.45674    124641.24   -37317.526    3546.9378   -40864.464    625.36272    1.0080819 
   52100    286.42417   -55.411143    124648.27   -37214.247    3558.5385   -40772.785    625.59659     1.008025 
   52200    287.22833    69.797786    124522.28   -37245.304    3568.5294   -40813.833    626.50384    1.0090449 
   52300    285.23627   -121.21086    124486.91   -37219.075    3543.7801   -40762.855    628.48185    1.0093317 
   52400    293.13752    109.66232    124785.03   -37151.023    3641.9454   -40792.968    630.18708    1.0069203 
   52500    287.31761    167.77373    124976.37   -37125.691    3569.6387    -40695.33    632.50967    1.0053787 
   52600    296.12649   -35.040832    125084.93   -37174.727    3679.0803   -40853.808    633.46032    1.0045061 
   52700    287.31607   -259.66661    125121.63   -37205.105    3569.6195   -40774.725    634.77502    1.0042115 
   52800     291.8883    332.45072    125230.21   -37142.603     3626.425   -40769.028    636.67446    1.0033408 
   52900    290.59315   -182.47727    125128.58   -37123.415     3610.334   -40733.749    637.85923    1.0041557 
   53000    296.75611   -104.43509    125109.01   -37092.143    3686.9027   -40779.046    639.65602    1.0043128 
   53100     289.0466    76.940549    124967.31   -37162.413    3591.1197   -40753.533    640.89004    1.0054516 
   53200     285.2774    92.769322    124941.36   -37153.169    3544.2911    -40697.46    642.54239    1.0056604 
   53300    291.52399    177.05627    125050.46   -37128.988    3621.8988   -40750.887    644.64645     1.004783 
   53400    284.48553    62.300738       124897   -37228.273    3534.4529   -40762.726    646.21088    1.0060176 
   53500    288.60229    189.06975    125025.25   -37249.854    3585.5995   -40835.453    648.51411    1.0049856 
   53600    295.31212    1.0193937     124993.3   -37272.159    3668.9626   -40941.122    649.69836    1.0052425 
   53700    285.60093   -183.06767    124767.58   -37305.037    3548.3106   -40853.348    650.64154    1.0070611 
   53800    289.88945   -58.973573    125054.74   -37150.022    3601.5913   -40751.613     652.8065    1.0047486 
   53900    287.94444   -157.55496     124981.7    -37217.44    3577.4265   -40794.867    653.22291    1.0053358 
   54000    289.90707   -86.317938     124878.6    -37186.33    3601.8102    -40788.14    653.94748    1.0061658 
   54100    291.96915    64.587753    124997.38   -37196.344    3627.4295   -40823.773    655.08405    1.0052097 
   54200    293.23251   -174.14288    124827.49   -37186.193    3643.1255   -40829.318    655.67966    1.0065778 
   54300    294.26867   -2.8596216     125271.2   -37131.179    3655.9987   -40787.178    658.79553    1.0030125 
   54400    288.33094   -48.658692    125147.31   -37178.021    3582.2282   -40760.249    659.29239    1.0040054 
   54500    291.92963   -167.60438    124957.83   -37174.816    3626.9385   -40801.755    658.99726    1.0055279 
   54600    294.34014   -65.777296    125310.85   -37048.885    3656.8867   -40705.772     661.7553    1.0026951 
   54700     291.0729    44.699025    125361.26   -37051.779    3616.2945   -40668.074    663.07392     1.002292 
   54800    291.94784    18.550345    125253.68   -37148.516    3627.1647   -40775.681    664.10845    1.0031528 
   54900    287.79039     106.8989    125247.65   -37208.245    3575.5125   -40783.758    665.69738    1.0032011 
   55000    290.56902    149.67267    125341.49   -37267.459    3610.0343   -40877.494    667.48324    1.0024501 
   55100     291.4993    308.15064    125317.15   -37206.058    3621.5921    -40827.65    669.67973    1.0026447 
   55200    289.35581    64.172611    125217.45   -37218.176    3594.9613   -40813.137    669.98675    1.0034431 
   55300    291.75386   -26.479607    125175.57   -37149.472    3624.7548   -40774.227    671.29568    1.0037787 
   55400     293.5682   -123.33767    124969.58   -37134.364    3647.2961    -40781.66    671.73107    1.0054333 
   55500    296.03103    173.63382    125040.06   -37040.249    3677.8944   -40718.143    673.22263    1.0048666 
   55600    293.28392   -172.73824    125164.16   -37121.075    3643.7642    -40764.84    675.64581    1.0038703 
   55700     288.2451    105.35991    124975.06   -37124.967    3581.1618   -40706.128    676.67595    1.0053892 
   55800     294.7492   -78.713401    124921.77   -37158.133    3661.9688   -40820.102    678.38972    1.0058181 
   55900    297.17625    60.337228     124894.2   -37115.862    3692.1225   -40807.985    680.59618    1.0060401 
   56000    293.25985    315.16929    125000.98   -37103.264    3643.4651   -40746.729    681.84673    1.0051807 
   56100    292.47039    49.922934    125036.35   -37054.751    3633.6569   -40688.408    683.16099    1.0048964 
   56200    296.51752    157.09502    124972.05   -37077.842    3683.9385    -40761.78    685.38815    1.0054135 
   56300    290.14352    8.2178393    125097.22   -37121.176    3604.7478   -40725.924    686.47849    1.0044074 
   56400    293.98321   -127.68156    124958.43    -37095.54    3652.4521   -40747.992    686.36048     1.005523 
   56500    289.32168   -152.69584    125087.89   -37202.886    3594.5373   -40797.424    687.16288    1.0044823 
   56600    285.02451    210.66589    125199.67   -37238.666    3541.1492   -40779.815    688.75265    1.0035855 
   56700    291.16327   -149.15009    125347.96   -37266.531    3617.4172   -40883.948    689.48536    1.0023983 
   56800    294.59192   -68.186663    125286.53   -37166.238    3660.0149   -40826.253     690.0001    1.0028898 
   56900    293.90548   -58.562878    125402.83   -37131.278    3651.4865   -40782.765    691.12064    1.0019597 
   57000    293.34687   -25.953523    125521.85   -37059.793    3644.5462   -40704.339    693.21803    1.0010096 
   57100    297.97739    -148.8581    125521.09   -37123.678    3702.0759   -40825.754    693.82776    1.0010157 
   57200    292.70323   -242.26856    125438.77   -37192.838    3636.5497   -40829.388    694.07735    1.0016726 
   57300     286.1958    128.10538    125341.44   -37255.176    3555.7012   -40810.878    696.08354    1.0024505 
   57400    284.27973    61.928793    125379.07   -37280.072     3531.896   -40811.968    697.85211    1.0021496 
   57500    288.09026    101.38544    125276.12   -37314.805    3579.2381   -40894.043    698.00117    1.0029731 
   57600    288.02322    26.845251    125185.63   -37272.524    3578.4052   -40850.929    698.79038    1.0036981 
   57700    285.75239   -171.74258    125135.42   -37323.506    3550.1924   -40873.699    698.88213    1.0041008 
   57800    287.49083   -1.5096517    125149.41   -37351.128    3571.7907   -40922.919    700.94989    1.0039886 
   57900    283.58462    176.94642    125109.08   -37349.228    3523.2599   -40872.488    701.46451    1.0043122 
   58000    288.83956    4.6469903    125047.16   -37333.517    3588.5474   -40922.064    703.17542    1.0048095 
   58100    288.72277   -175.00322     124984.1   -37241.168    3587.0964   -40828.265    704.23262    1.0053165 
   58200     292.8821    17.671712    125144.99   -37174.327    3638.7719   -40813.099    706.23822    1.0040241 
   58300     294.5058    150.93435    125276.05   -37076.408    3658.9449   -40735.353    708.16178    1.0029737 
   58400    292.18141   -58.541077    125333.97   -37057.899    3630.0667   -40687.966    710.26105    1.0025101 
   58500    292.43435   -228.35012    125051.29   -37048.591    3633.2092     -40681.8    710.77577    1.0047763 
   58600    295.78908   -15.110293    125001.81   -36996.099    3674.8883   -40670.987     711.1776    1.0051741 
   58700    297.57861   -135.53013    124943.16   -37028.657    3697.1216   -40725.778    712.75146    1.0056459 
   58800    289.98704   -25.925007    124719.86   -37092.803    3602.8037   -40695.607     713.6234    1.0074464 
   58900    291.67921    20.347101     125124.1   -37146.207    3623.8273   -40770.034    716.61616    1.0041917 
   59000     293.7704   -35.154288    124769.99   -37164.062    3649.8082    -40813.87    717.18005    1.0070417 
   59100    289.00117    326.27615    124665.92   -37171.191    3590.5553   -40761.747     717.3195    1.0078824 
   59200    290.93782     163.9575    124685.38   -37169.627    3614.6162   -40784.243    719.45901    1.0077251 
   59300    290.19306   -62.985691    124753.98   -37156.703    3605.3633   -40762.067    720.45581    1.0071709 
   59400    291.86971   -8.0460776    124783.72   -37239.843    3626.1941   -40866.037    720.72793    1.0069308 
   59500    286.77789    211.54505    124880.54   -37183.653    3562.9332   -40746.586    721.86391    1.0061502 
   59600    293.36501    22.501564    125256.09    -37174.26    3644.7717   -40819.031    724.77424    1.0031335 
   59700    291.38627   -50.907296    125412.12    -37198.61    3620.1878   -40818.798    727.55117    1.0018855 
   59800    286.39942   -105.10313     125270.4   -37216.724    3558.2311   -40774.955    728.44843    1.0030189 
   59900    294.72664    2.6062114    125113.56   -37190.576    3661.6885   -40852.264    729.97505    1.0042763 
   60000     290.2826   -115.84355    125100.48   -37245.796    3606.4758   -40852.272    729.70676    1.0043813 
   60100    292.78274    30.101926    125021.82   -37197.201    3637.5375   -40834.739    731.11353    1.0050132 
   60200    295.19904    16.430739    125025.53   -37155.738    3667.5576   -40823.296    733.07168    1.0049834 
   60300    295.27219     10.18006    125299.94   -37111.694    3668.4665    -40780.16     735.1667    1.0027824 
   60400    296.01468    61.768664    125134.51   -37036.006    3677.6912   -40713.697    735.70917    1.0041081 
   60500    293.11569   -298.47451    124979.03   -37092.799    3641.6741   -40734.473    737.36119    1.0053573 
   60600    294.33576    169.59969    124998.98   -37139.324    3656.8323   -40796.156     739.5182    1.0051968 
   60700    291.00029   -52.533508    124987.11    -37173.41    3615.3924   -40788.802    741.43114    1.0052923 
   60800    291.97203    93.672886    124838.97   -37146.428    3627.4653   -40773.893    743.50509    1.0064852 
   60900    292.81462   -146.04337     125088.6   -37120.485    3637.9335   -40758.419    745.02613    1.0044766 
   61000    296.56717   -295.60798    124977.95   -37188.024    3684.5554    -40872.58    744.99405     1.005366 
   61100    294.08812   -157.22618    124970.96   -37231.946    3653.7556   -40885.702    747.06254    1.0054222 
   61200    286.06164   -81.430245    125024.93    -37217.69    3554.0345   -40771.724    749.03268    1.0049882 
   61300    292.23169   -44.451052    124859.18   -37205.542    3630.6913   -40836.233    749.24168    1.0063223 
   61400    293.67092   -98.791932    124941.01   -37252.592    3648.5723   -40901.164    750.57171    1.0056632 
   61500    289.16772    33.831632    125091.96   -37226.487    3592.6244   -40819.112    751.41804    1.0044497 
   61600    292.16361   -66.832186    125007.51   -37172.176    3629.8455   -40802.021    752.64493    1.0051283 
   61700    291.39293    253.07468    124759.84   -37313.406    3620.2705   -40933.676    752.72388    1.0071236 
   61800    279.49986   -5.2294358    124715.74   -37396.773    3472.5108   -40869.284    754.20433    1.0074797 
   61900    291.56347   -131.43364    124757.12   -37304.552    3622.3893   -40926.941    754.63729    1.0071456 
   62000    287.03512   -164.70982    125103.55   -37267.596    3566.1291   -40833.725     757.1257    1.0043566 
   62100    290.36883   -55.341732    125001.92   -37286.694     3607.547   -40894.241    757.85746    1.0051732 
   62200     291.5954   -26.487696    125053.96   -37222.788     3622.786   -40845.574    759.85762    1.0047549 
   62300    284.49775   -114.71242    125175.08   -37247.691    3534.6047   -40782.296    760.49448    1.0037827 
   62400    289.32798    104.65361    125167.59   -37144.513    3594.6155   -40739.128    761.07096    1.0038428 
   62500      298.676   -30.826791     125248.4   -37158.551    3710.7554   -40869.306    761.24407    1.0031951 
   62600    294.79871    31.967758    125055.94   -37187.714     3662.584   -40850.298    762.13137     1.004739 
   62700    283.89481    268.52662    125132.93   -37182.286    3527.1138     -40709.4    764.07242    1.0041208 
   62800    284.39118   -340.36349     125179.7   -37191.822    3533.2807   -40725.103    766.24341    1.0037456 
   62900    295.69187    88.773868    125145.03   -37115.353    3673.6805   -40789.033    767.64328    1.0040238 
   63000     285.0744   -9.3799769    125255.21    -37072.26     3541.769   -40614.029    769.38397    1.0031406 
   63100    295.68093    185.06594    125252.95   -37071.851    3673.5447   -40745.396    770.10016    1.0031587 
   63200    293.10459    66.444523     125649.1   -37099.971    3641.5362   -40741.507    771.99352   0.99999582 
   63300    289.35718    84.880051    125477.26   -37173.404    3594.9783   -40768.383    772.63252    1.0013653 
   63400    293.53307    14.753177    125615.37   -37053.731    3646.8596   -40700.591    774.45273    1.0002644 
   63500    289.86895    26.736778    125390.27   -37136.736    3601.3366   -40738.073    774.18178    1.0020601 
   63600    296.21363   -220.32255    125253.64   -37137.137    3680.1629     -40817.3    775.18455    1.0031532 
   63700    286.75506    22.104864    125335.61   -37152.611    3562.6496   -40715.261     776.0061     1.002497 
   63800    287.22588   -13.259418    124985.76   -37291.216     3568.499   -40859.715    775.37227    1.0053032 
   63900    285.69026    295.65604    124941.69   -37261.096    3549.4205   -40810.517    777.46927    1.0056577 
   64000    284.18791   -129.75434    124993.22   -37232.907    3530.7552   -40763.662    778.33957    1.0052432 
   64100    294.36794   -45.029532    124957.15    -37152.68    3657.2321   -40809.912    779.98743    1.0055333 
   64200    292.33239    5.6557652    124912.88   -37134.909    3631.9424   -40766.852    781.00018    1.0058897 
   64300    297.74924    63.589581    124756.78   -37039.478    3699.2414   -40738.719    781.08309    1.0071483 
   64400    298.05085    1.2528962    124721.34   -37089.551    3702.9886   -40792.539    782.05419    1.0074345 
   64500    304.10822     189.2352    124655.08   -37098.499    3778.2455   -40876.745    781.66788      1.00797 
   64600    293.15224    -31.63647    124848.78   -37153.719    3642.1283   -40795.847    783.71164    1.0064062 
   64700    289.01547   -313.60681    124815.85   -37168.752    3590.7329   -40759.485    784.59251    1.0066717 
   64800     292.6053   -176.94329    124770.29   -37200.401     3635.333   -40835.734    786.17607    1.0070392 
   64900    290.14541   -252.85225    124377.29   -37145.823    3604.7713   -40750.594    785.87021    1.0102212 
   65000    295.30663    224.52027    124388.04   -37110.738    3668.8944   -40779.632    787.54976    1.0101339 
   65100    290.05093    119.46578    124565.16   -37129.987    3603.5975   -40733.585    789.52998    1.0086976 
   65200    289.27959   -39.710853    124688.84       -37120    3594.0144   -40714.014    792.34419    1.0076971 
   65300    291.99033   -80.245604    124594.27   -37114.446    3627.6927   -40742.139    792.99947    1.0084619 
   65400    297.72446  -0.48687907    124809.86   -37045.083    3698.9336   -40744.017    794.56616      1.00672 
   65500    293.99336   -113.08415    124963.35    -37104.21    3652.5783   -40756.788    797.05055    1.0054834 
   65600    286.35437    1.0645293    124912.46    -37159.41    3557.6714   -40717.081    799.18016    1.0058931 
   65700    291.60345   -107.04858    124801.01   -37239.725     3622.886   -40862.611    799.52691    1.0067914 
   65800    289.87511  -0.36702927    124834.28   -37244.805     3601.413   -40846.218    801.30124     1.006523 
   65900    286.22311   -82.041293    125053.59    -37203.22    3556.0406    -40759.26    802.63556    1.0047579 
   66000    296.96134   -49.489878    125192.13   -37083.597    3689.4525    -40773.05    803.64574     1.003646 
   66100    301.01673    7.1299183    125498.34   -37010.416    3739.8367   -40750.253    806.06978    1.0011972 
   66200    301.38453   -44.234692    125517.83   -36950.547    3744.4064   -40694.953    807.60586    1.0010417 
   66300    289.16339    345.58975    125440.93   -37018.541    3592.5707   -40611.112    808.65556    1.0016553 
   66400    297.53637   -310.67677    125209.97   -37084.279    3696.5967   -40780.876    809.01519     1.003503 
   66500     292.5945    118.01549    124960.71   -37131.952    3635.1989   -40767.151    809.21719    1.0055047 
   66600    295.00468   -101.57867    124868.98   -37203.816    3665.1429   -40868.959    809.93432    1.0062433 
   66700    293.05759   -39.939943    124961.39   -37208.047    3640.9523       -40849    811.65347    1.0054992 
   66800    297.06745    6.7866496       124890   -37141.312    3690.7708   -40832.083    813.11662     1.006074 
[...]
   84600    289.27363   -38.646625    124274.22   -37284.303    3593.9403   -40878.243    1021.7937    1.0110591 
   84700    287.84402   -16.391365    124875.21   -37289.022    3576.1788     -40865.2    1025.9629    1.0061932 
   84800    294.68322   -209.20962    124687.71    -37243.94    3661.1492    -40905.09     1026.007    1.0077062 
   84900    291.67275    363.84704    125006.67   -37226.373     3623.747    -40850.12    1028.1737     1.005135 
   85000    293.28813   -44.817324     125288.1   -37151.423    3643.8164    -40795.24    1029.7357    1.0028772 
   85100    294.68708   -150.91125    124915.59   -37142.256     3661.197   -40803.453    1029.5456    1.0058679 
   85200     295.2859    173.53034    124720.97   -37193.488    3668.6369   -40862.125    1029.2111    1.0074375 
   85300    292.45207   -381.48844    124881.45   -37240.628    3633.4293   -40874.058    1031.3796    1.0061428 
   85400    283.32558    168.87104    124838.96   -37220.426    3520.0416   -40740.468    1031.8629    1.0064853 
   85500    288.31768    171.34809     124934.3   -37163.621    3582.0635   -40745.684    1033.4459    1.0057173 
   85600    293.29312    125.55237    125027.56   -37134.892    3643.8785   -40778.771    1035.6457    1.0049671 
   85700     294.3854   -94.241735    125080.06   -37186.775     3657.449   -40844.224    1036.7877    1.0045452 
   85800    288.41001    105.52216    124933.58   -37202.129    3583.2107    -40785.34    1036.6079     1.005723 
   85900    292.66236     92.37623    124825.04   -37064.652    3636.0419   -40700.694    1037.9548    1.0065975 
   86000    295.64692    67.050255    124485.49   -37138.457    3673.1221   -40811.579     1037.619    1.0093432 
   86100    292.12824    164.72862    124694.07   -37117.667     3629.406   -40747.073    1038.6846    1.0076548 
   86200    295.66175   -20.643686    124701.45   -37065.363    3673.3064    -40738.67    1039.7973    1.0075952 
   86300    291.69774   -165.37573    124834.08   -37078.087    3624.0575   -40702.144    1041.4782    1.0065247 
   86400    293.56948    17.754039    124880.69   -37091.722     3647.312   -40739.034    1042.6157     1.006149 
   86500    293.53163    76.446708    124689.67   -37065.977    3646.8417   -40712.819     1043.453    1.0076904 
   86600    300.10099    85.916575    124758.29   -37008.063    3728.4595   -40736.522    1044.1969    1.0071361 
   86700    298.97474   -118.30562    124713.07   -36999.939     3714.467   -40714.406    1044.6031    1.0075013 
   86800    292.54139    320.22415    124564.09   -37092.538     3634.539   -40727.077    1044.9595    1.0087062 
   86900    293.17168    187.52904    124891.62   -37065.567    3642.3697   -40707.937     1047.283    1.0060609 
   87000    294.60842   -387.08949    124801.32   -37068.852    3660.2198   -40729.072    1047.5237    1.0067889 
   87100    291.92938   -136.22617    124802.01   -37112.231    3626.9354   -40739.166    1048.7843    1.0067833 
   87200    294.04093   -144.26424    124861.08   -37157.556    3653.1692   -40810.726    1050.7823     1.006307 
   87300    288.73258    59.009932    124924.43   -37153.718    3587.2183   -40740.936    1051.9781    1.0057967 
   87400    294.74102    37.792446    124932.26   -37180.373    3661.8672    -40842.24    1053.8172    1.0057337 
   87500    290.95086    -74.23678    125141.72   -37179.001    3614.7782   -40793.779    1057.0444    1.0040503 
   87600    294.03083    154.70342     124895.9   -37184.357    3653.0438   -40837.401    1057.6503    1.0060264 
   87700    290.68231    64.278259     125183.5   -37198.337    3611.4418   -40809.779    1059.9706    1.0037152 
   87800    295.57532    4.2605546    124986.25   -37171.532    3672.2326   -40843.764    1059.7761    1.0052992 
   87900    291.97107    86.046979    124943.09   -37209.797    3627.4534    -40837.25    1060.1933    1.0056465 
   88000     288.6118    95.213304    124368.34   -37215.379    3585.7177   -40801.096    1057.8669    1.0102939 
   88100    290.37684   -125.78648    124553.22   -37124.553    3607.6467     -40732.2    1060.2813    1.0087943 
   88200    298.06667    347.78783    124681.74   -37090.127    3703.1851   -40793.312    1061.8734    1.0077545 
   88300    288.04785   -82.519056    124851.27   -37137.564    3578.7112   -40716.275    1063.8074    1.0063861 
   88400    287.57265    96.177597    124895.91    -37256.93    3572.8073   -40829.738    1065.0267    1.0060263 
   88500    289.92697     156.1294    125296.24   -37154.071    3602.0574   -40756.128     1069.276    1.0028121 
   88600    290.26455   -43.701988    125387.33   -37067.761    3606.2515   -40674.012    1071.3142    1.0020835 
   88700     295.2536     95.05638    125391.02   -37022.382    3668.2355   -40690.617    1073.1193    1.0020541 
   88800    297.00052     76.05815    125456.07   -36960.843    3689.9393   -40650.782    1075.9049    1.0015345 
   88900    300.21163   -279.84045    125256.69   -37018.822    3729.8342   -40748.656    1075.3609    1.0031287 
   89000    293.00921    -139.3295    124808.96   -37017.058    3640.3512   -40657.409    1074.0803    1.0067272 
   89100    289.66704    145.88574     124859.5   -37132.623     3598.828   -40731.451    1075.7637    1.0063197 
   89200     291.2954    126.28458    124915.89    -37175.68    3619.0588   -40794.739    1077.2715    1.0058655 
   89300    288.22779    160.10683    124634.91   -37222.441    3580.9468   -40803.387    1075.9903    1.0081331 
   89400    285.33976   -18.924258    124989.97   -37269.858    3545.0659   -40814.924    1079.7621    1.0052693 
   89500    288.37904   -179.76118    125313.01   -37337.899    3582.8258   -40920.725    1082.7827    1.0026779 
   89600    280.74284   -174.75402    125215.61   -37392.221    3487.9536   -40880.175     1084.257    1.0034578 
   89700    287.03818    100.55884    125175.04   -37323.211     3566.167   -40889.378    1085.7844     1.003783 
   89800    288.02528    183.95026    124807.82   -37254.534    3578.4308   -40832.965    1084.9767    1.0067364 
   89900    283.70738   -71.307211    124768.68   -37347.878    3524.7851   -40872.663    1086.3694    1.0070522 
   90000     288.1798    293.30723     125177.4   -37211.379    3580.3505    -40791.73    1088.7867    1.0037641 
   90100    286.13734   -75.002906    125162.55   -37208.222     3554.975   -40763.197    1090.1444    1.0038832 
   90200     288.0659   -162.41643    124855.17   -37272.616    3578.9355   -40851.551    1090.7756    1.0063546 
   90300    288.14578    244.16741    124806.91   -37260.384    3579.9279   -40840.312     1091.995    1.0067438 
   90400    288.55959   -59.041095    124718.94    -37255.39     3585.069   -40840.459    1093.6471    1.0074539 
   90500     290.4101    146.42895     124876.3   -37212.734    3608.0598   -40820.794    1096.7166    1.0061844 
   90600     300.8627   -123.13207    124988.27   -37106.951    3737.9231   -40844.874    1098.0941    1.0052829 
   90700    291.05984    77.419665    125175.94   -37088.518    3616.1322    -40704.65     1100.985    1.0037758 
   90800    295.60083   -4.3733177    125158.01   -37127.531    3672.5496   -40800.081    1101.0674    1.0039196 
   90900    287.30401    60.124887    124989.95   -37244.433    3569.4697   -40813.903    1101.0934    1.0052694 
   91000    286.87556    12.104475     125112.9   -37288.483    3564.1467    -40852.63    1103.2046    1.0042815 
   91100    288.69242   -110.58818     125095.2    -37252.94    3586.7193   -40839.659    1105.5864    1.0044236 
   91200    288.42512    104.62998    125169.18   -37213.375    3583.3984   -40796.773    1106.1033    1.0038301 
   91300    295.77335   -88.976033    125035.27   -37111.028    3674.6929    -40785.72    1106.1879    1.0049051 
   91400    293.81796   -28.938794    125098.58   -37087.681    3650.3991    -40738.08    1107.2407    1.0043966 
   91500    290.92457    17.668177    124996.86   -37074.378    3614.4516    -40688.83    1106.8508    1.0052139 
   91600    286.45108    228.82185    125113.72   -37101.537    3558.8729    -40660.41    1108.3931     1.004275 
   91700    292.70262    61.617826    125077.55   -37189.547    3636.5421   -40826.089    1108.4908    1.0045654 
   91800    291.50948   -10.776563    124785.74   -37145.277    3621.7186   -40766.996    1108.0573    1.0069146 
   91900    285.37842    141.18806    124963.17    -37138.55    3545.5461   -40684.096     1111.023    1.0054849 
   92000    294.61212    44.192739    125316.51   -37143.919    3660.2657   -40804.185    1113.6364    1.0026499 
   92100    287.16004    -49.63386    125147.77     -37230.2     3567.681   -40797.881    1114.0545    1.0040017 
   92200    295.45112    23.332457    124872.27   -37149.287    3670.6896   -40819.977      1114.49    1.0062168 
   92300    292.82943   -35.235742    125163.34   -37030.772    3638.1176    -40668.89    1118.4938    1.0038768 
   92400    297.35514    154.76423    124937.41   -37034.831    3694.3451   -40729.176    1117.6105    1.0056922 
   92500    296.74018   -117.22732     125195.9   -37077.685    3686.7049   -40764.389    1119.5464    1.0036157 
   92600    295.89111    -198.6174    124943.61   -37082.237     3676.156   -40758.393    1120.1523    1.0056423 
   92700     294.7622    327.10493    124812.03   -37049.123    3662.1303   -40711.254    1118.6748    1.0067025 
   92800    289.76586   -201.40078    124918.69   -37075.411    3600.0557   -40675.467    1121.2115    1.0058429 
   92900    296.00863   -115.83398     124748.4   -37022.578    3677.6161   -40700.194    1122.2191     1.007216 
   93000    291.05264   -73.848782    124877.71    -37075.76    3616.0428   -40691.803    1126.8652     1.006173 
   93100    297.39831    127.09003    124942.31   -37004.532    3694.8815   -40699.413    1128.6815    1.0056528 
   93200    302.70165   -48.748801     124846.8   -37050.636    3760.7702   -40811.406    1127.9344    1.0064221 
   93300    293.64539    269.74091    125019.92   -37100.001    3648.2552   -40748.256    1130.8354    1.0050285 
   93400    297.81002   -119.99154    125417.58   -37149.406    3699.9966   -40849.403    1134.9675    1.0018418 
   93500    285.80531   -189.05339     125473.7   -37217.799    3550.8498   -40768.649    1136.7368    1.0013938 
   93600    289.27161    161.91287    125393.99   -37304.383    3593.9152   -40898.298    1136.3056    1.0020303 
   93700    285.03819    14.525408    124955.25   -37276.359    3541.3191   -40817.678    1134.6026    1.0055487 
   93800    288.52736    217.83588    125034.22   -37211.908    3584.6686   -40796.577    1137.1192    1.0049136 
   93900    289.55375   -41.008964    125170.96   -37179.212    3597.4205   -40776.632    1140.2957    1.0038157 
   94000    288.65484    14.506071    125226.76   -37202.495    3586.2525   -40788.748     1141.132    1.0033684 
   94100    292.84089    255.93381    125202.33   -37214.293    3638.2599   -40852.553    1141.7847    1.0035642 
   94200    293.12815   -174.23306    125157.81   -37191.295    3641.8288   -40833.124    1143.5303    1.0039212 
   94300    289.46161    285.97302    125321.22   -37123.848    3596.2757   -40720.123    1145.6387    1.0026122 
   94400    293.98891    12.793976    125327.68   -37119.073     3652.523   -40771.596    1148.2237    1.0025605 
   94500     298.2645   -119.99366    125306.52   -37069.559     3705.643   -40775.202    1150.6551    1.0027298 
   94600    292.76612   -136.33779    125223.37   -37133.013     3637.331   -40770.344    1150.4487    1.0033956 
   94700     297.2503    185.26243    125110.23   -37156.722    3693.0425   -40849.765    1149.8788     1.004303 
   94800    293.19568   -239.99036    124902.42    -37117.42    3642.6679   -40760.088    1149.5461     1.005974 
   94900    292.06806   -140.12019     124796.3   -37064.384    3628.6583   -40693.042    1150.1846    1.0068294 
   95000    292.64462    222.54727    124524.34   -37052.731    3635.8215   -40688.552    1151.2689    1.0090283 
   95100    291.91014    401.76978    124746.68   -37039.898    3626.6964   -40666.594    1153.6833    1.0072299 
   95200     297.1699    171.52383    125053.18   -37059.965    3692.0437   -40752.009    1156.9099    1.0047612 
   95300    295.41958    270.59658    125414.47   -36928.434    3670.2976   -40598.732    1161.5339    1.0018667 
   95400    294.22442   -120.53301       125674   -37027.733    3655.4489   -40683.181    1165.1675   0.99979769 
   95500     293.4626   -20.619628    125486.62   -37026.797    3645.9841   -40672.781    1165.0837    1.0012906 
   95600    298.56855   -99.355408    125465.89   -37026.045    3709.4206   -40735.466    1166.0448    1.0014561 
   95700    295.40663    5.2668705    125429.04   -37125.812    3670.1368   -40795.948     1166.692    1.0017503 
   95800    289.50185   -57.054859    125364.66    -37217.73    3596.7758   -40814.506    1168.8691    1.0022648 
   95900    297.05191   -95.745009     125233.7   -37170.817    3690.5778   -40861.395    1168.0575    1.0033128 
   96000     293.0334   -33.286824    125136.87   -37273.156    3640.6517   -40913.808    1168.5628    1.0040892 
   96100    294.03852   -345.48257    124966.66   -37216.435    3653.1393   -40869.574    1167.9418    1.0054568 
   96200    291.15709    14.719987    124591.46   -37265.173    3617.3404   -40882.513    1167.5002    1.0084847 
   96300    291.29106   -126.86632    124585.77   -37184.584    3619.0049   -40803.588    1169.2719    1.0085308 
   96400    290.73529   -194.83304    124826.51     -37125.4       3612.1     -40737.5    1171.7338    1.0065857 
   96500    297.26045    181.76069    124501.16   -37195.852    3693.1687    -40889.02    1170.2451    1.0092161 
   96600    291.37235    79.901666    125001.72   -37177.686    3620.0149     -40797.7    1174.9807    1.0051748 
   96700    282.47843    107.81543    125031.85   -37297.066    3509.5166   -40806.582    1175.8113    1.0049325 
   96800     281.7003   -14.479999    125114.64   -37341.336    3499.8491   -40841.185    1178.3785    1.0042676 
   96900     289.4179   -73.211354    125239.59   -37239.814    3595.7327   -40835.546    1181.3865    1.0032657 
   97000    289.94995   -144.33962    125075.77    -37246.42    3602.3429   -40848.763    1181.7422    1.0045797 
   97100    287.82806    76.385182    124975.78   -37212.866    3575.9805   -40788.846    1181.8476    1.0053834 
   97200    290.40963   -43.955475    124911.93   -37251.736    3608.0539    -40859.79    1181.1898    1.0058973 
   97300    286.27062    145.84542    124896.02   -37241.234    3556.6309   -40797.865    1183.4256    1.0060255 
   97400    290.97261   -157.77517    124916.73   -37242.042    3615.0485    -40857.09     1184.744    1.0058587 
   97500      300.086     45.27321    124874.52   -37139.645    3728.2734   -40867.918    1185.9046    1.0061987 
   97600    285.52198    16.338456    124928.55   -37215.053    3547.3298   -40762.383    1188.3122    1.0057635 
   97700    295.24128    4.8320416    124631.25   -37141.287    3668.0825    -40809.37    1189.5396    1.0081627 
   97800    293.20782   -67.641571    125039.11   -37100.789    3642.8188   -40743.607    1194.4447    1.0048743 
   97900    293.54449    27.466516    124904.48   -37032.157    3647.0016   -40679.159    1195.0984    1.0059573 
   98000    290.60513   -22.301022    124828.75   -37071.975    3610.4828   -40682.458    1197.2272    1.0065677 
   98100    291.37407     165.2993    125017.18   -37181.128    3620.0362   -40801.165    1199.6495    1.0050505 
   98200    295.10287     114.0459    125053.87   -37129.823    3666.3628   -40796.186    1200.1614    1.0047556 
   98300    285.35699   -119.33184    124993.64    -37157.39    3545.2799    -40702.67    1201.7723    1.0052398 
   98400    293.42557   -132.64725    125171.76   -37169.616    3645.5241    -40815.14    1203.0961    1.0038093 
   98500    287.67933    14.849295     124853.6   -37174.945    3574.1327   -40749.078    1203.2355    1.0063673 
   98600    293.31258    -65.98101       124640    -37234.09    3644.1202    -40878.21    1203.6768    1.0080919 
   98700    285.48924    102.08844    124604.82   -37274.226     3546.923   -40821.149    1204.4204    1.0083765 
   98800    289.47007    153.41317    124720.95   -37225.393    3596.3809   -40821.774    1206.9601    1.0074376 
   98900    287.76235    217.25595    124944.45   -37223.731    3575.1641   -40798.895    1209.9888    1.0056355 
   99000    285.53216   -16.028232    125236.37   -37261.003    3547.4562   -40808.459    1212.8177    1.0032914 
   99100    290.14136   -56.933668    125045.74   -37175.725    3604.7209   -40780.446    1212.4325    1.0048209 
   99200     289.2016   -284.90409    125139.56   -37134.395    3593.0454    -40727.44    1214.5243    1.0040676 
   99300    289.76744    7.7212249    124987.71   -37076.753    3600.0754   -40676.828    1214.5409    1.0052874 
   99400    296.18615   -78.639126    125022.92   -37037.165    3679.8215   -40716.987    1214.8143    1.0050043 
   99500    300.40089    167.21101    125138.86   -36892.671    3732.1856   -40624.857    1217.9218    1.0040732 
   99600    298.54514    52.105652    125424.44   -36949.171    3709.1297   -40658.301    1220.3751    1.0017871 
   99700    294.66732   -25.569673    125447.96   -36974.048    3660.9516       -40635    1220.1482    1.0015993 
   99800    294.95036     416.7241    125145.16   -37014.383    3664.4681   -40678.851    1220.2503    1.0040227 
   99900    294.52054   -118.54535    125201.73   -37122.812    3659.1279    -40781.94    1222.4691     1.003569 
  100000    292.04288   -246.76296    125273.31   -37118.276    3628.3455   -40746.622    1224.2611    1.0029956 
  100100    303.13225    129.19943    125368.29    -37053.15      3766.12    -40819.27    1226.5479    1.0022357 
  100200    295.83577    55.522526    125405.53   -37079.841    3675.4684    -40755.31    1226.6448    1.0019381 
  100300    296.09346   -67.324212    125104.61   -37072.114      3678.67   -40750.784    1225.0086    1.0043481 
  100400      291.405   -106.10419    124980.02    -37115.95    3620.4205    -40736.37    1225.4835    1.0053494 
  100500    298.77526    421.78093    124779.48   -37005.065    3711.9887   -40717.054    1226.0179    1.0069651 
  100600     291.1242    104.37995    124837.78   -37110.848    3616.9318    -40727.78    1227.3649    1.0064948 
  100630    297.22347    345.41889    124928.54   -37082.371    3692.7093    -40775.08    1228.3049    1.0057636 
Loop time of 122.039 on 6 procs for 100000 steps with 4169 atoms

Performance: 353.985 ns/day, 0.068 hours/ns, 819.411 timesteps/s
98.9% CPU use with 6 MPI tasks x no OpenMP threads

MPI task timing breakdown:
Section |  min time  |  avg time  |  max time  |%varavg| %total
---------------------------------------------------------------
Pair    | 95.285     | 96.223     | 97.696     |   8.1 | 78.85
Neigh   | 6.4674     | 6.5148     | 6.5572     |   1.3 |  5.34
Comm    | 14.749     | 16.264     | 17.229     |  20.5 | 13.33
Output  | 0.17709    | 0.17846    | 0.18474    |   0.7 |  0.15
Modify  | 2.0676     | 2.095      | 2.119      |   1.2 |  1.72
Other   |            | 0.7639     |            |       |  0.63

Nlocal:        694.833 ave         715 max         684 min
Histogram: 1 0 4 0 0 0 0 0 0 1
Nghost:        1494.00 ave        1504 max        1474 min
Histogram: 1 0 0 0 0 1 1 0 1 2
Neighs:        0.00000 ave           0 max           0 min
Histogram: 6 0 0 0 0 0 0 0 0 0
FullNghs:      20166.3 ave       21004 max       19689 min
Histogram: 1 0 2 2 0 0 0 0 0 1

Total # of neighbors = 120998
Ave neighs/atom = 29.023267
Neighbor list builds = 6969
Dangerous builds = 0

undump              1
unfix               2
unfix               3
unfix               4


################################################
#######         Run Simulation         #########
################################################

reset_timestep      0
log                 log.run_${NAME}
log                 log.run_liquid_292K_1atm_ML
