LAMMPS data file via write_data, version 29 Oct 2020, timestep = 800000

4175 atoms
1 atom types

-0.47861774209568253 50.47861774209419 xlo xhi
-0.47861774209568253 50.47861774209419 ylo yhi
-0.47861774209568253 50.47861774209419 zlo zhi

Masses

1 18.015

Atoms # atomic

1783 1 4.562024341751277 0.556500544439531 2.9022061234869 0 1 0
2315 1 8.462084866813962 1.7340301070335027 1.6710750625277035 0 1 1
3748 1 -0.27367700053345345 8.064579283362542 0.5841810552743705 0 0 1
887 1 44.873526205493604 6.473918818936169 0.1400144766365271 0 0 0
1126 1 44.2978534562471 3.6630539665230053 0.002890039936196742 -1 0 1
2166 1 44.008336177332396 24.440378756626842 4.770736631559063 -1 0 0
827 1 42.26517621921046 -0.24158574845989955 3.4959282847307684 -1 1 0
1704 1 18.461706555051798 2.4063083411070374 -0.13940883995442716 0 0 1
294 1 48.93647702949791 13.384035936627448 0.8626317339662992 0 0 0
605 1 23.007133105401152 3.1820340511846847 1.7011143864997504 0 0 0
1668 1 22.53970276427569 0.7615301157111363 3.3786826636258898 0 0 1
4081 1 27.33735114934381 1.3016449327054738 2.023824575583283 0 0 1
1489 1 2.279544502501188 15.408350222409908 -0.17413294791289846 1 0 1
1247 1 31.87529112719506 1.7781063627709792 2.011580565031286 0 0 0
3413 1 7.1547798712610176 24.667030869276612 1.4694634477445812 0 0 1
2871 1 42.906184741975736 2.4408957992467424 1.8414090684329758 0 1 1
1928 1 20.747708435557573 24.34847357502138 15.7807886179529 0 0 0
35 1 42.1670833494521 7.309483205611539 0.5305616076995068 0 0 0
718 1 49.96719494590734 5.323310291613475 0.7052504799935166 0 0 0
3831 1 0.16163783993606762 3.1809004886762096 2.0144759770622627 1 1 1
1804 1 1.694555743806851 4.133061292777707 3.952678147658159 1 0 0
1964 1 7.040665674214548 3.761918872295184 0.2241887826001676 1 0 0
263 1 22.98340534430183 12.78871325028724 0.018760525742245737 -1 0 0
3444 1 18.51730009513992 3.3953655901800817 2.5046939824454726 0 1 1
3494 1 27.01418136965176 5.354448339951031 1.692656670745949 0 0 1
3000 1 23.372666481961904 24.829411250986475 15.983415285998543 0 0 0
478 1 31.77690295690312 3.0420653672694495 -0.4457118822678408 -1 0 0
3548 1 33.26503161616425 5.359058190048166 0.2252408602124777 0 1 1
440 1 37.871878487251394 2.0702553563193025 0.6574888310428786 0 0 0
2995 1 37.110684623591254 4.494218827395159 1.7717958069034148 -1 1 0
265 1 45.59779629725034 6.698656623411352 2.7044637485905443 -1 0 0
2249 1 16.310380588440403 6.2337439836245 -0.21330188869688188 0 1 0
1714 1 32.861130682229486 12.073088799617603 0.08298376964492116 0 0 1
670 1 3.06184979932622 5.9862175253063725 1.999305146028112 0 0 0
4094 1 6.326046322106926 8.913260250916284 1.3678628486196518 0 0 1
2720 1 10.109733517382551 6.748180123249552 1.2343391494574518 1 1 0
3959 1 12.628079333984745 7.336808137888135 2.289227893345648 0 0 1
1129 1 24.89438436396163 17.7670441193647 -0.47419065114245484 1 1 0
2770 1 9.499238497337384 15.954857957123064 0.9345107809327817 0 1 0
474 1 43.63493708030089 12.258325299265968 -0.22822002993470808 0 0 0
1660 1 18.89972495102151 5.484323961429372 0.23428329717869 0 0 1
1598 1 22.628224574266767 8.566801921855124 0.7600746784833492 0 0 1
1606 1 14.646653064063662 20.963364874352216 0.9551200891994347 1 0 1
742 1 30.967199574787543 7.060754163186548 0.860395113768152 0 0 0
837 1 35.881306914348414 6.618245090527272 -0.19028801806416235 0 0 0
2748 1 36.58809524271675 8.646445307182178 1.5735536711855147 0 1 0
2311 1 42.16039202469672 8.871284578821898 3.09313169705028 -1 -1 -1
1741 1 25.409571955483415 7.23349887167107 0.3438142232237954 0 0 1
924 1 48.36425542168 10.025495037693045 1.3311290260867055 0 0 0
2600 1 7.265440562857701 -0.2860611249800684 3.1365014779192255 0 0 0
4018 1 1.7190959864252213 8.537076104036363 2.296705403415762 0 1 1
589 1 2.467175181940242 10.809750346997097 1.1140350190853796 1 0 -1
528 1 4.9907314885080405 11.160061753195397 2.2925848807546587 0 0 0
1615 1 8.729385655785284 9.447942643627018 2.0176478808342613 0 0 1
3130 1 16.555520560046073 24.418179428565082 8.441981838697096 1 0 0
335 1 13.820912138260777 10.512792536786941 2.5527361400585122 0 0 0
2567 1 17.659641956748576 11.50023917256056 1.7075487943916423 1 0 0
1912 1 12.358020958733858 19.262220150788217 0.3004530416320971 0 0 1
2759 1 25.43388056113431 11.647381824369665 1.6041048366574957 0 0 0
709 1 11.798075276803852 17.679612855752715 16.038257150545927 1 0 0
793 1 31.581091237702577 10.02119021278945 1.2506583366578377 0 0 0
4102 1 37.035785991328936 11.225496002691768 0.40672251625380806 0 1 1
3678 1 39.81302451509244 11.638088148083353 0.7376911809044571 -1 0 1
693 1 14.352458088716219 16.978953965618455 0.8000428637400403 0 0 1
355 1 14.439821833020092 4.171966272604693 -0.38198309892636156 0 0 0
1801 1 47.05716274296479 9.129761980856664 3.4974330290365048 0 0 1
1072 1 -0.42082102285054795 11.17650973348445 2.5822904486602654 1 0 0
117 1 1.0440707831481586 12.823454758806882 0.14509837882185972 0 0 0
2632 1 6.01833541136664 13.543849063039033 1.4576979106638976 0 0 0
56 1 8.626945040728534 13.644109002228843 1.8835719185137925 1 0 0
78 1 12.449118003621013 12.168751388694787 0.6352747245673327 0 0 0
3397 1 4.610021923986235 24.29098800371968 7.2445408992327796 0 0 0
3052 1 17.881722100315862 13.978955896207582 0.4434685763558792 0 0 0
1610 1 21.474614186651266 13.89969440825197 2.339494469125101 0 0 1
961 1 26.748799666256105 9.662109750416384 0.08898776051637847 -1 0 0
328 1 27.81627854184351 12.969258873676372 2.1332031153274733 0 0 0
341 1 -0.08125226868934399 16.91366487742309 -0.3079465409405875 1 0 0
1397 1 32.467656960747576 12.669033428816626 3.3137199213425617 0 0 1
838 1 18.783377299875582 19.884582362296666 15.43076870240578 0 0 1
1410 1 35.338645300790446 13.04906266547725 1.413488152696302 0 0 1
2085 1 40.35587229094176 14.455117848998741 0.997490601084708 0 0 1
2982 1 43.69816999381605 13.624376446398367 2.1238767790555046 0 1 0
1332 1 46.042550431105326 15.15606738960208 2.3749580819373723 0 0 0
271 1 47.608942697297536 12.990541602206344 3.34048370889371 0 0 0
3006 1 49.1809111658857 15.801559538747917 1.435045403479581 -1 0 0
1989 1 3.8487258975140186 15.232330794910448 2.231847171873609 0 0 1
1353 1 5.2744501849528875 17.66215305389212 1.7714568296931303 1 -1 1
1762 1 28.159300698122706 14.455264395054725 -0.25625372188470963 0 -1 1
1913 1 10.278563882764002 18.04013828740417 2.5153266325877963 0 1 1
1911 1 18.49419485974724 0.1467711857363494 1.8904825600228925 -1 0 1
1800 1 16.24703512976642 18.804619428327943 1.653581901299376 0 -1 1
1603 1 17.50456380513071 17.86700947866483 4.047010128109329 0 0 1
1065 1 19.216066682533 15.562721882378021 2.342735455487577 0 0 0
527 1 22.860859497555705 18.709897418550963 1.3274101994844332 0 0 1
2402 1 23.118054345192487 16.06952725905621 2.9058142753349907 0 1 0
1420 1 14.402446186611064 8.780502514306336 0.4371849127732593 0 0 1
4143 1 26.597692129476155 20.24496088212808 0.00492480538747303 0 1 1
3318 1 27.29860505928039 16.805656894875625 0.6247121815992716 -1 0 0
1099 1 11.563141838622503 24.792507486806937 12.545860511403367 1 0 0
122 1 32.408586827303125 17.183944023844518 1.984153014382866 0 0 0
1082 1 35.86915891107262 15.466631147008497 0.294563562920546 -1 0 1
998 1 35.25128466494314 17.816972651243997 1.9006054257931244 -1 0 1
1935 1 39.51699319403352 19.117695305742576 0.21114048107320038 -1 0 1
88 1 41.80523505229242 18.369791486218993 1.617249846279591 -1 0 1
2606 1 42.51325372286408 15.883472564949091 0.20626801247700277 0 0 0
3101 1 43.11589166358006 22.418095303667716 14.206394638781056 -1 0 0
690 1 47.46803375881359 18.34308181751637 0.6618685680483647 -1 -1 0
243 1 50.287794261230644 19.147742346155358 1.072067272404217 -1 0 0
1565 1 39.64119406308731 5.307408881010914 1.2653344076578918 -1 0 1
1693 1 0.11271982207012399 21.26021489805521 3.2984683912865487 1 0 1
3805 1 3.8654661403728294 20.041855303977613 1.7822170829972692 0 0 1
1551 1 10.035714018669331 20.55058907090306 1.256282138579642 0 0 1
3975 1 29.645262180264275 -0.3855084458085076 5.618611400649089 0 1 1
1055 1 50.21525028266598 -0.18900002243809194 -0.37663946105985724 0 1 1
1435 1 22.56625542376034 21.38427784041264 0.1728058398562079 0 0 1
2757 1 23.842673213691516 22.861797812246245 2.155068514348183 0 0 0
1122 1 26.047563264765174 21.40958377012565 2.342917803121156 0 0 0
1059 1 47.23235309911527 22.538653964012486 16.396334218993154 0 0 0
650 1 30.912661951247234 19.610280760886017 3.0346454586952345 0 0 0
1945 1 32.864527884455484 21.851378441559742 2.8585630603753804 0 0 1
4055 1 37.27976829956097 19.868051711224027 1.4501098167189774 -1 0 0
687 1 9.81978335539773 0.1378020528302668 10.07958875984075 0 0 -1
661 1 43.28264789082813 20.453223605384164 0.21776342151063732 0 0 0
2746 1 44.70936645895276 21.1987400864188 2.4832382294680513 0 0 0
297 1 0.5539806795384563 22.935208280456873 0.8492661521560856 0 0 0
623 1 5.2466396827170465 22.2459302669897 2.1951717175915255 0 0 0
2066 1 23.621420100620185 20.659030511111077 14.267312104691078 0 0 1
743 1 9.736161572818503 23.813496498538203 1.69148001643106 0 0 1
1416 1 15.556089325393863 22.78945901178377 2.814461149756366 0 0 1
781 1 20.377312976026307 17.370364925635474 0.7164140942709889 0 0 0
1337 1 18.286594725248918 22.42506356520806 2.0578460557210545 0 0 1
3806 1 38.8965160746649 24.50654492808658 2.819841159824833 -1 0 1
995 1 2.685197532781224 -0.24624839528395626 4.714660986591595 1 0 1
3175 1 29.39466726313369 21.164408926045173 1.4468444393260689 0 0 1
3429 1 30.889324654382268 23.883007752136233 2.5534455399202245 0 0 1
4056 1 35.08954833019581 22.343911995236716 1.4347065846132387 -1 1 1
975 1 10.55371306756834 5.90458451412048 16.4634157332351 0 0 0
805 1 1.4161810781091067 1.5950149933106932 0.16537612096036958 0 0 1
643 1 30.21242824122646 24.39566551620084 10.403159938713273 0 0 0
380 1 46.41869015586133 22.895606716248572 0.6621342935808692 -1 0 0
130 1 45.400330748169054 24.213513150064507 14.54446906170168 0 0 0
3708 1 1.1564484618660023 1.8745578143200046 5.685552526862295 0 0 1
3864 1 8.436392849909696 0.9894392308229709 5.852815400189881 0 1 1
147 1 5.847709981995422 1.747365021156352 6.320228666788669 1 0 0
3436 1 12.831852613432376 1.5934168253791645 6.605711558878061 1 0 0
585 1 16.872525049812136 2.9164267542706765 4.760499786269647 0 1 0
4091 1 17.283376661595447 0.11498972906897664 4.421397261652414 0 0 1
1774 1 20.80570023133915 3.7608262148684126 3.7321827777515573 0 0 1
722 1 32.10660665211543 24.157605170829637 16.15788547684286 0 0 0
699 1 48.795647766397295 24.90663288023944 0.8571450014172515 0 -1 0
2461 1 29.593172900609318 1.9459353545434421 3.6915689224846284 0 1 0
2689 1 34.27049322073928 1.098676189405834 3.900768268727382 0 0 0
2029 1 37.06891003351397 0.896033171507955 3.396139423379295 0 0 2
1439 1 43.99457837364736 24.428367911403765 11.294925609258689 0 0 1
3704 1 42.15732520060675 1.448445167353215 5.62894965209647 0 0 1
277 1 7.544700769829674 17.48570685970644 -0.39183186457157093 1 0 0
1907 1 49.865490366983295 1.42436655494866 3.9485007025221943 -1 0 0
1218 1 47.60477029731746 3.1804836763346596 2.986323961258734 0 0 0
455 1 4.4831418173940625 2.7707344235418088 4.417300714620592 1 0 0
3862 1 6.474953073211342 4.459338786492659 3.1208244629189297 0 1 1
2571 1 9.261010249287317 5.148481357375602 3.5404167316792154 0 0 0
3559 1 9.853516401404276 2.642070365729493 3.957289311791799 0 0 1
676 1 13.336291516498083 4.543050913942439 2.1591524894868934 0 0 0
574 1 12.587572484188307 2.240846218070083 3.843248995981896 0 0 0
3622 1 15.601808630109968 5.147001740474924 3.6652355615735654 0 0 1
115 1 20.946473949597785 6.654657417710797 3.479428216194341 0 0 0
2031 1 25.691552428899183 3.8209943849730212 6.0585178869677305 0 0 1
3904 1 24.753497526637542 4.660792633248621 3.614390417949674 0 1 1
3984 1 29.824037359110594 4.403181272237598 5.041905993757064 0 0 2
1765 1 37.41417488659738 3.6838210793914783 4.211439898535123 0 0 1
3113 1 38.143636851922096 6.92175758108984 5.1198676491942114 0 1 0
394 1 41.32758918407286 4.241863327262564 3.0930730802578026 0 0 0
628 1 43.629818342571795 5.675488404848966 4.235317972687403 -1 1 0
1436 1 47.17968048739047 3.177461468442121 0.12378296765748809 -1 0 0
3538 1 45.165510702579 2.0447571411551078 3.478162718102942 -1 0 1
1210 1 50.35737283395651 5.555047289868673 4.861301201216247 0 0 0
427 1 5.192375646718517 7.0306156552927925 3.1386177336838235 0 0 0
3733 1 4.44860620930297 7.557642610433348 6.051006753876548 0 0 0
3914 1 9.341865302137807 6.4519007139755375 5.889363689699155 0 1 1
1655 1 12.001256317227174 6.846908622653997 5.2056740861724595 0 0 1
3684 1 17.008864105514636 7.639946659915758 3.946322274155915 0 1 1
503 1 19.379601375765915 9.7822977598803 5.133697113086036 0 0 0
610 1 20.21181585132561 10.301894287568995 1.6972236374525362 0 0 0
3742 1 18.879052455221895 7.74671609292775 1.985109818038893 0 0 1
283 1 23.74492843719769 7.230086347438794 3.2125991055490632 0 0 0
465 1 24.528843789304076 8.42072384650568 5.330204548149953 0 0 0
3192 1 29.130045733091205 6.273208156198514 3.2404556222205336 -1 0 0
1677 1 28.613244728384608 8.878375382520563 4.129584831455205 0 0 1
2961 1 33.834745507633755 8.01130502410296 2.083088869046372 0 0 0
917 1 39.14433945957498 7.747827698614945 2.7914175471646865 0 0 0
1161 1 42.67676549232284 7.765463114226581 5.636921701061845 0 0 0
1006 1 45.772520802309714 6.303517967367381 8.237105041918896 -1 0 0
1422 1 48.46022671603458 5.624882224188649 3.0733603993693026 0 0 1
2463 1 48.52551498586058 9.266388486317268 6.0969242709261655 -1 1 0
1466 1 -0.10069099326248249 7.749826122635973 6.475738188033523 1 0 1
1257 1 2.0503693457395125 8.699364362761573 5.120374039398256 0 0 0
3437 1 1.488915636449634 11.128191005938723 6.442399967648317 1 0 0
3491 1 4.937415331349405 11.872220532416225 4.894865458222125 0 1 1
2618 1 5.6905960906235205 9.841325669420756 6.6406597482025855 0 0 0
2543 1 8.186107247903992 8.853214958374606 6.176376018534606 0 0 0
1685 1 9.736655437132328 10.249081066514414 4.367010077196213 0 0 1
1694 1 12.244517849338914 9.517869312398254 4.841968430276096 1 0 1
2965 1 17.33180129791265 11.305267988184267 6.337166822639983 0 1 1
1943 1 21.47784130209779 11.550522796530458 3.8376196910041696 0 0 1
1167 1 24.310716510903433 11.179713023419207 3.9815837293233223 0 0 0
1998 1 29.58223448972913 11.080394682928231 3.00782938557684 -1 -1 1
509 1 30.934376924409566 11.7914844630231 5.496832951195209 -1 0 0
2356 1 36.60816397083549 9.524721781546768 4.376817788371953 0 0 0
1196 1 40.69546758259847 11.222799985213713 3.4170021616170323 0 0 0
3126 1 44.35392834264951 9.930027865137731 1.2001630278627113 -1 1 0
120 1 45.55443408861271 11.176317683467024 3.491488460779607 0 0 0
1530 1 2.8748430005229397 13.47655636557828 5.408483422648912 1 0 1
1597 1 6.9994839209959405 13.4894345968089 5.6282353003403065 0 0 1
1025 1 9.505873020470114 13.048457778330171 4.431657114766338 1 0 1
149 1 11.417305286188698 14.595469721571577 5.956902928642112 -1 0 0
3723 1 13.532426065321463 14.645083876081321 2.012514027927727 0 0 1
419 1 15.10388483625831 13.902269438151485 4.141464741938206 0 0 0
163 1 16.05302794450465 11.302147662200607 3.7923369480017053 0 0 0
2603 1 18.537998474376117 13.923537527207584 6.970589906555282 0 0 1
3139 1 25.48267407415487 12.924456159169113 5.839474586209718 0 0 0
1329 1 27.197302108295645 14.387565804826867 4.323952969039615 0 0 -1
1092 1 30.65961989028862 14.436633521666355 6.918989800012617 0 0 0
2655 1 33.605098236675346 12.672834061667647 6.125362090015768 0 0 0
3200 1 35.667041326655806 12.394712248354029 4.09609204600854 0 0 0
942 1 37.79798112320185 14.488265000231443 4.786137493360956 0 0 1
3730 1 40.20036949562197 15.212485366835354 3.594426218240957 0 0 1
2766 1 42.103398197091465 13.199528000498153 4.251230239168943 -1 0 0
1993 1 49.82896892344826 11.643625007741763 5.46052844528439 0 0 1
3509 1 49.14497304451967 14.405635183733965 6.024419283277696 -1 0 1
141 1 1.2057836443467158 13.834676187288993 3.0944537245113413 1 0 0
1032 1 50.35363532278026 15.947056282671412 4.166763909299495 0 0 0
2045 1 4.089486733061419 16.863560569123774 4.940193269617604 0 0 1
2506 1 6.938681387993586 16.380854238326616 5.485948878860017 0 1 0
601 1 7.544722188022233 18.38766668016912 3.5668394493894677 0 1 0
3014 1 12.187891025188108 17.123938540807114 5.062218242906177 1 0 1
183 1 16.581569520099624 15.521732430970896 5.590561588863095 0 0 0
2635 1 19.945145456082706 16.098325889872996 5.390584367033397 1 0 0
2329 1 18.706089527419746 20.19036150431668 5.496678257903654 0 1 0
3681 1 22.746927486847603 16.543751276405 5.47073797348633 0 0 1
619 1 24.378381432442495 18.848578684465103 6.201680247369234 -1 0 0
2275 1 25.927866207081447 16.421465829208355 2.953972203416144 0 0 0
2726 1 26.129155478072857 18.943286698997323 4.076939732233113 1 0 0
2013 1 29.247839621513084 15.913269134347889 5.379338798850616 0 0 0
3610 1 28.788665870324074 18.650517634898492 4.573218748463402 0 0 1
4122 1 31.730446750047488 15.368210758409397 3.729017042411807 0 0 1
1735 1 36.14703777787746 16.749854010259916 4.368290596662176 0 0 0
3278 1 38.06929743267756 18.650913393752568 5.66825017440738 1 0 0
3301 1 40.61600518646492 17.964662784856998 4.014908971013136 0 0 0
1387 1 43.27792142741333 17.73871257681801 5.548561399985584 0 0 0
2238 1 45.612061961854224 17.353132399218296 4.158219397119748 -1 0 0
3887 1 46.7629934005071 19.484250189100464 3.1032562901167458 0 0 1
2608 1 0.10961988779575016 18.229713988285265 5.177440384805512 0 0 0
2215 1 2.560101683256618 19.499110048421617 4.027601641362226 0 0 0
3365 1 4.6549232002057135 19.6562147980423 5.799360376352533 0 0 0
2419 1 9.635212013819178 21.574314136655516 3.9444439177363666 0 0 0
930 1 10.068946782915992 19.269553805603547 5.6188839878551 0 0 0
2557 1 14.843182785498373 18.559109127435516 4.567140984673136 0 0 0
463 1 14.403873898842429 21.273179707043646 4.8357647911053565 0 0 0
342 1 16.66320169591638 21.439628454243767 6.877653955695358 0 0 0
2246 1 22.45746963211192 22.98539144499917 4.50926244454717 0 0 0
3938 1 28.04736832665775 23.201865568565307 3.688427098756672 0 0 1
261 1 33.5967301588033 21.8106121352368 5.365335407624434 0 0 0
1646 1 36.22691822862838 22.39982494936284 5.927963337107432 0 0 1
1024 1 37.650762948153485 20.745302571357293 4.029275558279675 -1 0 1
1967 1 48.13600307382282 22.093188995527925 2.8811096927648 0 0 0
2023 1 48.903405079118286 20.064117135436593 5.149099284979791 -1 0 1
599 1 1.7858180694062118 22.786611088724023 4.959653096075388 0 0 0
3948 1 -0.2992533572268093 24.338139585285255 6.008064245639905 1 0 1
3613 1 3.450184343652565 24.100904646946823 3.331604308957196 1 1 0
3150 1 6.617071380884104 21.092749861794235 4.287536289969162 0 1 0
1567 1 6.773072395913381 23.199306645843674 6.399081591023984 1 0 1
3434 1 11.74868821349181 23.280676612428227 4.8587100410140565 0 0 1
421 1 19.768748417642165 22.711786779457654 4.486588034724798 0 0 0
2706 1 20.62801517206586 23.638402530570687 8.778202212115108 0 0 0
2750 1 23.366160143218384 24.751799086847047 12.99025638385399 0 1 0
4172 1 29.414705119565802 22.816424045031553 6.154233867384856 0 0 1
919 1 31.9941218609499 23.688025803152993 6.8024884335464675 0 0 0
4134 1 17.10606037019848 9.519839535207808 -0.28464581944595935 1 0 1
3526 1 39.82003254163794 22.409201202513277 4.052645289956663 0 0 1
3505 1 42.751470279361726 22.100108875501405 4.470190775151947 -1 0 1
2669 1 42.84673506514042 4.0586810145770995 15.828790436888092 0 1 0
1054 1 48.22240527357155 24.17636763968191 4.926821072542092 -1 0 0
2247 1 0.8583204426960944 1.8343534324658957 8.226499026808279 0 1 0
50 1 2.8796915684512943 0.25900433092485 9.465698710247047 1 0 1
4155 1 4.214187673256797 -0.11476391381739226 7.023407778948488 0 1 1
3510 1 10.359713082148959 2.19297882528817 7.741673272153886 0 0 1
2993 1 40.40393372949633 0.7509706166564545 0.9349972256242876 1 1 0
3985 1 15.638956801640365 3.278212992616769 9.658912035944235 0 0 1
146 1 20.636760430804912 1.4872802254134458 7.7176862107652955 0 0 0
36 1 23.571864606921856 2.2825517818836074 8.897700519912243 0 0 0
2458 1 25.085037735719972 -0.089899521535651 9.495004753226917 0 1 0
1307 1 27.684991960714868 0.01214213246563306 7.859932440351338 1 0 1
3566 1 26.18714999040205 1.055784484946266 5.846531386484613 0 1 0
2791 1 27.91758963136412 2.3364774607212855 9.360238617221091 0 1 0
1350 1 33.350547936721156 1.4685817705944149 8.509709444457643 0 0 0
675 1 37.55385056164607 1.918381744640064 8.631812829584275 0 1 0
1053 1 39.18463977946148 -0.17950693676691515 8.079131797059732 -1 0 0
3074 1 26.00920792842153 3.1746121466210266 0.7365152588626278 0 1 0
1512 1 44.998103047 0.9262018555146165 7.711576576296514 -1 0 1
210 1 47.64347140279118 2.217394285110317 8.849536873833173 -1 1 0
2113 1 49.82188122647052 3.7798769109862755 9.300912823734581 0 0 0
316 1 6.088653389810163 3.7538639604867052 8.24648539601221 0 0 0
3366 1 8.890755357935863 4.45808244814524 7.859083493283716 0 0 0
707 1 14.867408994762057 3.5181206656701596 7.109289018872219 0 0 0
3262 1 20.673014411698695 4.4013487373787346 6.474017524573233 0 1 0
2291 1 23.30607131078326 4.820110404056968 7.493611970245005 0 1 0
4015 1 28.099139110813745 4.516897797387571 7.354566144237068 0 0 1
666 1 32.48060739132369 5.025751711103505 5.645714969960448 1 0 0
3190 1 34.10646354427212 2.6854195066734636 6.137813562018731 0 1 0
2168 1 31.479097731950507 5.062198546745626 8.178564661166858 0 1 0
3011 1 36.36646429737128 3.519459656410733 6.594072499529772 -1 1 1
1926 1 39.90327615298257 3.345644163730218 5.467838058813227 -1 0 1
1175 1 39.651489430241526 4.581223958732874 7.926121570044129 0 0 0
2127 1 42.375496978969394 3.980757714978364 8.21673569337031 -1 1 0
1077 1 44.14626410383215 3.4106401798905215 5.992793574382701 0 0 0
332 1 46.806474821259656 3.9107839633499157 6.566823800684939 0 0 0
2020 1 49.59119907515796 3.478649240079628 6.136849630899803 -1 0 1
127 1 0.27081486858692316 6.233972304954466 8.845107515682036 0 0 0
2006 1 2.7521593074437765 5.525722902155514 9.993630974800196 0 0 1
3054 1 4.486898373303494 5.992274044111183 8.197403277595152 0 0 0
1195 1 14.416963092849931 5.99313391717044 6.140103596030847 1 0 0
1633 1 16.59222314380059 7.4265110482786545 6.870651762380834 0 0 1
2130 1 18.837681500966763 6.502938409587954 7.971284864448831 0 1 0
2984 1 20.5987500181022 7.210365334813846 5.995621248141707 0 1 1
2722 1 23.613788699845625 9.08150010224378 9.84593151755478 0 1 0
1311 1 22.99380670305539 7.87143864054549 7.436037963105324 0 0 0
1485 1 27.15121037254781 9.001075592551128 6.667842761429013 0 0 1
2027 1 27.778616572536773 7.212510400682443 8.336183259156963 0 0 1
1824 1 30.320638397718895 7.5160312899587325 8.125243243632925 0 0 1
3176 1 33.344695714002285 7.645250376554875 4.817849228484514 0 1 0
116 1 36.37650490771114 6.179166951875027 8.001034813193435 0 -1 0
2281 1 40.28617029011072 7.517229762271618 6.698323930810733 0 1 0
2225 1 43.13921076282483 6.465706642848569 8.409478326509452 0 1 -1
2800 1 0.5287856314912665 11.067315315621151 9.03109125583347 0 0 0
751 1 2.2693807469112706 9.113316959354819 10.252134926905775 1 0 0
1965 1 4.998478085744251 10.086766165108415 9.367790867482519 0 0 1
165 1 8.955933714773025 10.53261686562561 8.363987064975317 1 0 0
803 1 11.594196524825866 10.048882319948321 9.250537554153304 0 0 0
652 1 13.343929912124764 10.8276674811614 7.080567732515832 1 0 0
654 1 15.776824409577884 9.589017883804186 7.9617854337163045 1 0 0
916 1 17.384773644313523 10.95454977252227 10.460160540044491 0 0 0
4145 1 20.77330324401276 12.405662076553485 6.541923971996375 0 0 1
1756 1 27.08167696253354 11.59909909326396 7.544637664717898 1 0 1
1734 1 30.99198970423179 8.82873577487637 5.682558189676547 0 0 1
598 1 29.5020171498204 12.426651897059198 8.44573542784418 -1 0 0
2389 1 35.19672395568281 8.31497025379471 6.627166042550864 0 0 0
230 1 34.59482911441715 10.51722855044089 7.934812361913565 0 0 0
2753 1 39.14775898932302 10.056324778378647 5.4137630607184155 0 1 0
109 1 39.22253977602085 11.437907645624106 7.821963176163127 0 0 -1
3440 1 43.755206536203985 9.96319126345648 7.203431203236892 0 0 0
614 1 44.365098430908745 12.338949683305493 5.844362244841751 0 0 0
899 1 46.42811844357239 9.061390268996675 7.870372937964486 -1 0 1
3369 1 48.88895515505908 11.192966619810075 9.089325194112481 0 1 0
3272 1 1.372927597757795 13.608153468080724 9.842235272764293 0 1 0
1267 1 3.381584736234172 14.117991983574413 8.08665089536328 0 0 0
2447 1 5.50394461204284 13.075262241208344 9.32630932124557 0 1 0
3123 1 8.00828091102502 13.187327101673867 8.10570579017515 1 0 0
2789 1 13.62475846661865 13.350652487759444 6.660959511750722 0 1 0
2241 1 14.64396527915487 14.50148636222041 9.218448146647248 1 0 0
114 1 17.451230824472812 13.871946616675007 9.660626624837635 0 0 -1
2953 1 23.181666294749956 13.943816106803355 6.753912611491789 0 0 0
2842 1 23.49417558056245 15.484097861535819 8.745042089128518 0 1 0
538 1 29.79736157115611 15.792028765822998 9.198604128557452 0 0 0
1583 1 38.49380968704497 14.18030231947585 7.4706366360868515 0 0 1
2410 1 44.495648798630924 14.455319487783532 7.891229520788913 0 0 0
351 1 50.43200392908804 15.182912875023892 8.435642099403637 0 -1 0
2863 1 0.7812480862532256 17.508288509882238 7.903907333770135 0 0 0
244 1 3.3808160739021926 16.938622494065644 7.6675979691931495 1 0 0
3788 1 8.62342483145039 18.096160723036203 7.527111525936375 0 0 1
102 1 9.748930683324021 15.379113242676032 8.14369253658249 0 0 0
3657 1 14.583833602303125 16.98291355207266 7.287236847165938 0 0 1
288 1 16.92468445202665 17.40758505166952 9.080813871379666 1 0 0
3012 1 19.611021030494395 17.323699218971242 7.9926337854983505 0 0 0
1362 1 20.90574999242436 16.005377766911366 9.9466555531129 0 0 0
1008 1 25.218695158501227 17.585894721383482 8.390207616978769 0 0 1
181 1 33.49347644280127 15.331391345674723 7.463573578802223 0 0 0
1418 1 33.563417449950336 17.001111020741064 5.2719423154219704 0 0 1
3435 1 32.292006661041654 19.64388228326437 6.478637948054274 0 1 0
4082 1 36.22568462403552 15.312032056727347 8.356558916657558 0 1 1
1109 1 40.388295932758666 15.846356627925967 8.923144982606138 0 0 0
2822 1 42.951191567493524 16.593981540979954 8.037277922206044 -1 1 1
4133 1 46.69443737081936 15.649529868833092 6.852780144090196 0 1 0
1532 1 47.26381002639124 17.479371361151234 8.821091014493419 0 0 1
1019 1 6.326758790025681 19.688538911155046 8.28859699020746 1 1 1
2728 1 11.916868882448869 20.774178532443663 7.040445758265865 0 0 0
1686 1 14.302492138396818 19.870200891694317 8.171870069060951 0 0 0
1088 1 17.406924388365244 20.36795639188015 9.702531362207027 0 0 1
2893 1 20.398700872206597 19.847878167292635 7.6603459192778285 1 0 0
2944 1 22.941588712078627 21.239704628347443 6.694476519366988 0 0 0
1080 1 29.505987694562343 19.98180017199806 6.970141268513496 -1 0 0
2420 1 28.94872109101774 19.79810529084693 9.61263244116989 0 0 0
3080 1 33.65451120392133 19.49872061307162 8.928874937690798 0 0 0
1087 1 37.051706803356225 21.865745191636652 8.409668865898809 0 0 0
408 1 34.810797101274915 21.673354115326475 9.961537057037393 0 0 0
320 1 37.65874312235292 19.27959112613296 8.301936868902997 0 0 0
429 1 41.371838556654566 20.65292458445489 8.971377334585151 0 0 0
3310 1 43.001810191976105 20.554309244923 6.686628738789714 0 0 1
166 1 45.441226638435296 21.775970690582845 7.774006539259137 0 0 0
3626 1 47.54437001006481 20.0187079941128 7.704895646998702 -1 0 1
3647 1 49.41374716473365 21.030549353199564 9.43625097755186 0 1 1
1266 1 1.9459314872152822 21.321068217410286 9.346001426412556 1 -1 0
388 1 -0.21777722280715844 23.218594108643302 8.589611501806564 1 0 0
2042 1 3.2646663183300917 21.906077149576642 6.904273912406954 0 0 1
2836 1 7.285854454065428 22.154275521431128 8.817331734314523 0 0 0
969 1 10.16919532819708 22.3671601659885 8.767139509820455 0 -1 1
3279 1 10.843110330201709 0.8805082131733601 0.3631155069037353 0 1 1
1518 1 18.751344865847415 23.876339372202025 6.812419538286381 1 -1 1
842 1 20.956499607174905 21.365852270261982 15.30957606467613 1 0 0
4125 1 17.217041135764294 1.0364448506281818 9.304679409149283 0 1 1
55 1 28.388371354786496 22.96846045634505 8.995502951064442 0 0 0
1179 1 32.91433024082305 24.001953374910265 9.512729554708717 0 0 0
3859 1 39.46258377076656 23.6094127615069 6.83639616943325 -1 0 1
2494 1 39.498650302755166 22.75145753551684 9.681182118930833 0 0 0
84 1 45.97509824606662 23.866953105336414 6.132943102976814 -1 0 -1
1897 1 7.720303316470204 1.0408601670022948 11.87679302022235 1 0 0
2555 1 9.793875851333443 1.83789123494939 13.737953676607441 0 1 0
3637 1 31.492729661414128 24.533834011049265 -0.07252878721306233 0 1 0
4164 1 15.508015947824106 0.8714026151950094 12.524321616091605 0 1 1
3779 1 20.207019521019504 0.8967889848502044 12.586048775289713 0 0 1
555 1 9.711335937005531 11.559828990068636 0.5186102629559207 0 0 0
2131 1 25.75148810970557 3.1255123371523954 11.173225376419682 0 1 0
3596 1 31.2597251232251 0.22101385403691787 11.386595458675718 0 1 1
64 1 30.874174750131296 2.502984822293761 9.755809996917444 0 0 0
2431 1 35.539402865657294 0.39774867905802147 9.776546080293484 -1 0 0
2187 1 35.584609812615525 1.1965928150454175 12.873598677160183 0 1 0
1333 1 8.53729812278055 4.1446539126579784 14.964961828156143 1 0 0
4166 1 43.15489041532412 0.014275478124157859 10.204227801619208 0 1 0
1015 1 46.36296303625747 2.9871965948362695 11.090950163856894 0 1 0
694 1 26.363713785949518 19.391488872226223 14.768637533224965 0 0 -1
2125 1 50.297267589736066 2.7883112949788913 11.841460355882036 0 1 0
3726 1 3.0099278604278563 2.918264526266471 10.819095866646903 0 1 1
3513 1 6.00970907863121 3.0728893363095517 11.098368944189497 0 1 1
93 1 7.110815593286958 5.592668153374838 11.890181202046891 1 0 0
1815 1 10.93759717629011 2.923975432127943 10.987292890218606 0 0 1
2091 1 9.47993087763113 5.111356522034628 10.456509658736248 1 0 1