LAMMPS data file via write_data, version 29 Oct 2020, timestep = 800000

4175 atoms
1 atom types

-0.2433753721174945 50.24337537211824 xlo xhi
-0.2433753721174945 50.24337537211824 ylo yhi
-0.2433753721174945 50.24337537211824 zlo zhi

Masses

1 18.015

Atoms # atomic

279 1 49.67791751323291 2.2552330636331988 4.3868103419698885 -1 0 0
3994 1 1.7177430162006582 1.667373389625552 0.9749569062400394 2 1 1
4009 1 4.5542582236293985 0.9572778099207073 0.9527553680123939 1 1 1
813 1 7.037932923362603 0.09592927893625025 3.051126091280844 1 0 1
3809 1 11.893156454432859 1.335143612093571 1.9427880221853222 0 1 1
1811 1 49.40295304265672 24.795334599723255 15.893851156540741 -1 -1 0
1553 1 14.633115680712168 1.5720183143767088 4.683415477425894 1 0 1
4045 1 18.934376816082516 1.1730587116738818 2.404818387052444 1 1 2
2215 1 16.369623880126763 1.9828219434480285 1.2442311742747894 -1 1 1
2324 1 21.187005954682988 24.691025245765157 4.5485382881254095 0 -1 0
4169 1 44.02967853337144 24.552787715460227 5.981269981313242 -1 0 1
458 1 25.259980251751248 3.765629166135092 0.4420217201450928 0 0 0
248 1 14.624308012413692 9.661646058664294 0.7341872423637079 0 1 1
1179 1 30.353988538526664 3.0113133155682283 2.6633532027753932 -1 1 1
2569 1 9.164967079645146 7.503446814493896 0.40628849313908166 0 0 0
3895 1 15.461968596565264 17.832981313366655 1.2306413001190484 -1 1 1
3576 1 43.58543261294784 1.0532938772066023 -0.009017216991911492 0 2 1
1412 1 18.196063312618623 23.446791897373483 0.28144198330353265 1 0 0
2571 1 48.54298266536078 2.901776520118562 1.2513422264894116 0 1 -1
3702 1 50.13688581023426 4.626345413167764 5.77749274531682 -1 1 0
2875 1 36.80484592085466 24.66061717019081 15.237970136321547 -1 1 0
230 1 14.550049113583315 4.224357028997857 3.4514078960150276 0 0 0
1693 1 15.804701171918573 4.768741856410143 0.8846940318988115 0 0 0
3170 1 20.308917005692006 6.564241812372208 2.046185718369755 0 0 0
3818 1 47.69041469858658 16.175232457938392 14.798368783568918 0 0 0
333 1 41.36536311902283 24.832657551980358 9.129137798402398 0 0 0
1638 1 27.144638087583946 17.447516822253466 0.580150015990827 0 0 1
2368 1 29.481975458198484 7.867018241261302 2.9771700361966924 0 1 0
2848 1 10.337604423553719 24.873738108867997 15.752113952490857 0 0 0
3828 1 35.54333501472978 4.5897310758988406 1.596926554742887 0 0 1
2068 1 39.641092194547596 4.132044110975542 1.2042530159397369 0 0 1
1495 1 41.72698422073867 4.996771799428544 2.87270393011883 -2 -1 1
1004 1 46.58395617313617 4.558847320307499 2.0952641088977284 0 0 0
2933 1 0.19181208457346371 6.7162536272431925 0.6956633559249005 1 1 0
3316 1 0.34405871966756363 9.512320869699929 1.021595786826143 0 1 0
4022 1 4.111000708234747 4.828364277047478 2.5635984511211514 1 0 1
1319 1 5.600566716139538 7.116074919460679 2.28183178397841 1 -1 1
2545 1 9.889293256806909 7.080520849131235 3.137767259795239 -1 1 1
2619 1 20.549973087899147 11.822390959474872 0.9960542380989224 -1 1 0
2160 1 27.239790234324676 5.464747057258148 0.5316785312392095 0 1 0
3755 1 17.736156846674287 6.8117645305222005 0.9968329755338157 0 1 1
1674 1 16.26853716699277 8.692869472622265 2.500440337287158 0 0 1
290 1 23.79915734719407 8.479122086085392 1.1249143038095828 0 0 1
2408 1 44.230508406609346 0.5898178410324345 9.155900350148343 0 0 0
3128 1 27.21555712845578 9.345178627895239 2.9046380383693746 0 0 0
2720 1 31.92359036277374 7.006831072609737 1.2268172968742477 0 0 0
3773 1 37.78255219080124 6.049934721848933 0.5655252477164314 -1 1 1
4083 1 40.57588747679537 9.08470087275478 0.40124517670712756 0 1 1
2297 1 42.640618812570935 7.334960546105017 0.9325410706373993 -1 0 1
2013 1 44.044553113574594 3.9830697180884513 0.8504330666511488 -2 0 1
273 1 47.67614685635833 6.805288099359368 0.8371852838779359 -1 -1 -1
1836 1 6.598653686841521 24.808019280785256 8.555191897406637 1 0 1
4159 1 8.148283350779296 18.78487501220514 1.2982331972609564 0 0 1
3585 1 4.763762991999145 10.136146581815254 1.8429392444628658 0 0 1
584 1 38.88770065799778 12.600650659952 0.4151162221525023 0 1 0
648 1 9.249033760221081 11.76836823994033 2.6816888359261433 0 1 0
326 1 17.9117602386004 -0.057286343988629085 14.188200195899151 1 0 0
3186 1 12.472862696756906 10.42172962324154 2.072060369049791 1 1 0
2095 1 37.261506690102124 24.773178246415135 0.1470550001581048 0 0 2
2027 1 18.337163711147536 10.565004475371042 2.923959440235588 0 0 1
138 1 23.06133068439435 11.219181839685184 0.9523751980725921 -1 0 0
819 1 26.69443779622767 14.292299225423115 0.8884519147421848 0 0 1
111 1 41.78528343675079 24.1676714591056 11.754954328032126 0 0 0
807 1 30.821243284610745 0.5781699497067116 0.9387278543385724 0 1 1
1178 1 38.122457933732676 8.592146272305333 1.958045511306611 0 0 1
1030 1 36.71037059733332 11.121772961371676 1.1611904659403407 0 0 0
1669 1 6.408839385042105 14.320289289752912 0.07608470396109279 1 0 1
3334 1 45.853979848540746 11.966360573342843 2.4972550480860094 0 0 1
1851 1 46.31904272339358 8.876359898019661 1.8015536423914922 0 1 0
603 1 19.276785788494024 0.1816284884171414 10.027209871542539 0 0 0
2243 1 12.024405299829564 15.067516283048764 15.222651945789641 0 1 -2
689 1 5.173832426818508 14.181440585990636 2.7975919972710344 1 1 0
1887 1 16.51130979471404 6.914810147921665 16.071682517184783 0 0 0
1155 1 38.66522287280645 17.12270195178759 0.6047460421417838 -1 -1 1
387 1 17.120122841307357 12.980056154742716 1.6599455656929667 0 0 0
1969 1 15.807504104161481 13.7240917017054 3.8230187752919704 -1 -1 0
3507 1 19.677398516191598 14.478131548801116 1.822648822902066 0 1 1
2462 1 9.397442918135377 -0.08199729665922856 1.4395941990663943 0 1 0
2326 1 32.192728580661154 16.18150899273647 2.7527630538391725 -1 0 0
1027 1 39.0593954587291 14.871738112118743 2.5453315340286564 0 0 0
1191 1 41.351300257737705 11.588086936037556 1.2403166530718472 0 0 1
3696 1 44.1496027135225 15.4609795443331 0.3257906968724972 0 1 1
3519 1 43.85665168223018 12.197107835147413 0.17308072234410965 0 1 1
3276 1 24.025244525346462 18.035661036843802 16.046699150741592 0 0 0
2080 1 21.955242075634555 4.785253593544057 16.339915931203045 0 0 1
1297 1 16.31838773977629 24.951149024638998 6.163272647891258 0 0 0
1265 1 8.170167102477663 16.153933768011665 2.4498769013065322 0 1 0
2824 1 11.652618871086046 16.337770623886197 0.8636797656616377 0 1 0
2114 1 19.695475452685255 18.83784064246285 2.993388464560315 0 -1 0
729 1 18.308841311053943 16.46883922474772 3.8295432002074463 1 0 0
1574 1 22.219657956929122 19.066397549680023 3.8646808872987126 1 1 1
2543 1 24.101901080480594 16.82184257673925 0.47219247394659947 1 0 0
2169 1 27.797384837805776 15.906100984172522 3.5640079656895303 0 0 0
961 1 31.179211266653155 15.662792924243854 14.722183485616126 0 0 0
1938 1 42.00430637576579 20.81385239748403 15.818275086498094 0 0 0
30 1 30.90672382167284 18.479686217657488 1.791626388931129 0 -1 0
2391 1 34.57580793501562 15.316052036607513 1.7458989893555148 1 0 0
3778 1 36.405276861565795 18.642609712038677 0.8657250514587815 0 1 1
2180 1 42.73102337818614 24.68343381262815 0.44515531804314457 0 1 -1
3581 1 30.979689453408028 0.323849401419222 6.038172446690969 0 0 0
57 1 44.982497456434174 17.88702789604222 1.0436002889533762 -1 0 0
3100 1 40.79651402189195 1.76077502954851 0.20959438131996672 0 1 0
3207 1 1.7092648995432784 18.528905774550488 1.0741314395054349 1 0 1
3435 1 2.433688489093905 21.234930250695975 1.1682589065021285 1 0 0
719 1 4.650068491449983 19.655765410561326 2.1081458808985767 1 0 0
425 1 24.705958116022778 24.890328292051827 1.4711709266089286 0 -1 0
350 1 27.920788131577694 -0.15358630367634984 15.913038534785112 0 0 0
752 1 8.828335408763659 20.770914864689363 3.440324484118111 0 0 1
2548 1 13.549174483497215 21.543277094846797 1.7763532662937571 1 0 0
3058 1 16.627692362463915 22.12201657055606 2.0102171567004343 0 0 0
4109 1 28.432241874469135 19.510306412519384 2.111142975291033 -1 1 1
210 1 33.42113379876618 22.10003230188422 1.0424120874820941 -1 0 1
3260 1 33.20744207294484 19.911609884537924 2.930545484189461 0 1 -1
1188 1 37.236013988944464 21.148552519703724 1.9757505784919545 -1 0 1
939 1 39.61220626043287 21.640095243612496 0.7341119838411462 1 0 1
2660 1 42.497056787616856 18.933002781877146 2.2959461204847975 1 1 0
3984 1 43.91963079727876 21.440873532502664 2.4071169167649296 0 0 0
2956 1 36.82829025033675 24.477899723434984 10.300525546989846 0 0 0
3932 1 49.188514319868034 18.68722420923922 1.2770937521098658 1 0 1
314 1 2.7897676360950263 0.7235925212241968 15.99312112932752 1 1 0
2922 1 19.975984906347605 6.40638902886015 15.010574076101532 0 0 0
2045 1 44.43823127920152 24.49059864634883 14.623483949189392 0 0 0
2327 1 18.809819705702267 21.26114393018254 3.688534148719681 1 0 0
3281 1 21.068900833206502 22.444008319867827 3.0917857323958513 0 0 1
764 1 24.20960964661241 0.8349322094035745 7.446814501215238 0 0 0
1220 1 39.26586709261426 13.180769191523463 15.805166049508728 -2 1 0
3779 1 26.032367461172644 22.390237991556685 1.4497327571298309 0 0 1
1955 1 23.69175854165091 21.09637514346597 2.7803815462830057 0 -1 1
9 1 28.831273825890353 22.45989269364901 2.311875745387525 0 0 0
2424 1 31.043448333992494 23.535115624645837 1.070722172840756 -1 1 0
3070 1 35.547213368216646 23.35652479399747 2.1969252892011113 0 1 0
1718 1 26.639631921970224 8.284201365458705 0.5603563604961691 -1 0 1
390 1 31.50834285979198 4.425524547708536 0.13134294039332522 0 0 0
33 1 41.646982412354404 22.849007931519637 2.2208622697600884 -1 0 0
1720 1 46.63223335252391 23.117543133352232 5.411801341703873 0 0 1
3446 1 48.36800191545838 22.91176428810902 3.2621402022352988 0 0 0
165 1 48.53967520610516 21.45598640296556 0.9344198654211842 0 0 0
2887 1 44.71484170256721 0.22685564944055325 2.4393411007131047 0 1 2
835 1 3.2983795964528917 0.7837141655324351 6.1726333317538895 0 0 0
1012 1 12.740858462170838 13.681372265199153 0.774253875648117 1 -1 1
3693 1 10.26793164767744 0.3742719026556769 4.539389450266439 1 0 1
1937 1 12.642050838192299 0.3689272580311419 6.078158773101401 0 0 0
2952 1 16.932746316839964 0.8120429755081628 5.595806779530438 0 1 0
651 1 19.687965021150234 1.3886260902785332 4.975456313587185 0 0 0
1318 1 22.966285513187717 2.450513294341388 5.5246355660044495 1 0 0
3963 1 22.496582696786525 1.9292634037163174 2.769409141867814 0 0 1
4029 1 25.198535158427955 2.794603303876951 3.1512194889866207 1 1 0
881 1 27.123976918589523 0.9535606502055252 3.6097013959258613 1 0 1
1259 1 29.02492448384118 1.8814462111699202 5.183323534159607 0 0 0
3069 1 34.3422170121559 1.917564776771162 4.761227585627046 1 0 1
3677 1 36.36788019244028 1.6173844590872106 2.6643256480301916 0 0 1
3315 1 40.13979113553194 0.7378721037965185 3.7603121206975034 0 1 0
1503 1 44.95650481609394 2.574705843536413 4.045449334058102 0 0 1
4127 1 47.78726188872885 -0.02816174297909857 5.14595436333391 1 1 1
4065 1 2.0881570265833864 2.1280358733714437 3.8912323826054047 0 0 0
3197 1 5.8509523542412625 2.821948494386952 2.6662310328874192 0 0 1
2344 1 6.7457218345637955 3.7067318521588115 5.312007555127469 0 1 0
2586 1 9.620382131459557 2.999780905236781 5.40759605351384 1 1 0
621 1 11.536530727480349 3.9309805187782905 3.105422311179178 0 0 0
1981 1 11.127733174020964 5.75444425840298 5.582848534349807 1 0 1
442 1 19.873793125631966 6.761816514880312 4.767435424308405 0 0 0
3219 1 20.33301787586573 3.6961707207702266 1.7786157601112635 -1 1 1
3871 1 20.57188732472777 4.024699706527158 5.5183711562605415 0 1 1
2615 1 28.773572679432665 5.265011797703155 3.1138008917700297 0 0 1
1614 1 26.089526882423844 5.121570490091596 4.273586883877105 0 0 1
501 1 32.85024590878922 3.9596290186838656 3.8142422733575936 0 0 0
50 1 32.905943131264024 6.2715100795428675 5.634634668806835 0 0 1
2646 1 38.70327348603058 2.847319741479031 3.7242851007005573 0 2 -1
1610 1 47.192846841001725 4.663296860183667 4.780054794863654 -1 0 1
1593 1 42.215527128534404 2.7098360812102436 4.405131393525951 -1 -1 1
3911 1 49.02665710451802 7.061164412354961 3.7669062829991358 -1 1 0
619 1 2.8061460240899314 4.602321777334591 4.792075696627771 1 0 0
3193 1 0.8593348156462897 8.825790370543205 7.025031618359546 0 1 0
2839 1 2.282266737220404 7.676610293305038 2.4923586968417553 0 0 1
1104 1 7.481416359603186 6.342191071990568 4.260521672532225 0 0 0
1281 1 7.312950240064461 8.459598097412833 6.229787292539798 0 0 1
2762 1 14.01661116646302 5.801036594059234 5.741714007043028 0 0 0
1695 1 15.20589742714435 8.155906395863969 5.197575717261495 0 0 1
1735 1 22.834898694052793 7.689533044183628 3.82862848662337 1 -1 1
2266 1 23.409642188480575 5.4005430058044075 5.527904235408335 1 1 0
2035 1 25.512243184470258 7.810710560655981 4.141163792141214 0 0 0
2110 1 33.96205553999742 6.5539454727424316 2.772015046321512 -1 1 0
1941 1 35.40021266799289 8.887991690727526 3.0344258707325165 0 1 1
715 1 36.54069498194026 8.652919776912833 5.650786593054374 -1 0 0
145 1 41.50775951958957 6.835111061073227 4.757931297691379 -1 0 0
1940 1 44.253155156707166 7.579844385344716 3.2760354940696277 0 1 0
3213 1 45.9835157809689 7.034130449059581 5.713443522599979 0 0 1
1623 1 48.771033275024394 10.151713261127771 2.6359226960920137 -1 0 1
3996 1 0.9922697609213733 6.853287878070046 4.912905403312705 0 1 1
1792 1 1.2361603066116367 12.328409705586497 2.365602039493232 0 0 1
4048 1 0.010073891946150992 10.57317173358425 5.040852435244605 1 1 1
1571 1 2.6735614995773167 10.29053027913437 3.5828318080439066 1 0 0
2616 1 6.255964715304601 10.986676488529318 5.5977657690526 0 1 0
2117 1 10.540790928294461 9.709236996049444 4.2756757315393275 0 0 0
2969 1 13.25714428140432 12.901969892551906 3.597007756952021 1 1 0
598 1 13.376262538900704 10.287212635748512 5.406092432661055 -1 0 0
4081 1 18.819105785764283 10.962205606364352 5.843936856495994 1 1 2
2648 1 22.67712646581081 11.383123711017555 3.925278795626146 0 1 0
247 1 21.335391347186572 9.116802400321825 5.584580479132838 0 0 0
3195 1 26.703516862400484 12.31575374205342 3.1507977863337464 0 0 0
1292 1 31.420599035442404 8.494747432620331 4.787070738218814 0 -1 1
1003 1 32.79571817719395 9.939660589338798 2.564478425794747 -1 0 1
2673 1 32.847436529275996 12.77916608351577 1.955470895090964 0 1 0
2283 1 31.905344887719547 12.798400376731395 4.6972090806539475 0 0 -1
3967 1 35.886062329851825 10.896825928851356 6.95828740755387 0 1 1
2791 1 39.65757797044449 8.697412191961497 4.759282216250497 -1 1 1
1529 1 41.25147161973159 10.901856742069302 4.031497909511656 0 0 0
1664 1 43.34917582368024 9.617206221912298 5.206950282546341 0 0 1
3391 1 45.82085932888303 10.977150578669052 4.989215417052108 -1 1 1
767 1 47.651506286042036 9.251727553251268 5.81842793898906 -1 1 0
188 1 2.6593922737555666 13.394534051549469 6.093665478979369 1 0 1
1575 1 6.461994951707813 11.78240572465622 3.126827403402936 0 0 1
2696 1 10.720192610997588 13.414076659708671 4.269306248215024 0 1 0
2974 1 17.286618740902593 13.39829176518021 6.303866687205161 0 1 0
1825 1 21.887710969885312 14.820829419976244 6.20302191021029 0 0 1
3369 1 21.85362834925347 14.203812268515684 3.6162923047228075 1 1 1
1105 1 28.79140352613201 13.217659013567914 4.570112534463366 0 0 0
1830 1 29.69047101764855 10.715291803331363 5.725184323309692 -1 -1 1
3139 1 30.121405365969892 14.21958788587527 2.0597917580154674 0 1 0
1872 1 36.82717999323616 12.690966232901669 5.658103304268942 0 0 0
3769 1 35.622398316525334 12.91159316496833 3.1073704872593177 0 0 1
2625 1 39.511594065984454 12.261727638844977 6.22070269291633 0 1 0
758 1 46.34278436537461 13.483120434669415 6.3806917734512885 0 0 0
1275 1 48.7201927467474 13.057011568135463 1.8757840682677798 -1 0 1
1754 1 48.82155851394617 15.016496910296716 5.65914492611279 -1 0 1
3511 1 2.6002025749091735 14.411762507612314 3.625905611388178 0 1 0
1689 1 1.4589138358462974 16.61467007219533 3.0660024582994847 1 -1 1
2686 1 4.437829765587931 18.474398970088433 4.730255040864408 1 1 0
2265 1 5.823168969837469 16.244921735136344 4.371287572099774 1 0 0
2850 1 8.741190218654788 18.221164488798564 4.986413725189021 1 0 0
1110 1 10.632964512773261 16.013897226702863 3.6962528410136044 0 0 0
1930 1 14.664164556993311 17.105441181962558 5.8948511807321715 1 -1 0
522 1 15.653908990961877 16.35771474971373 3.6351727555010034 0 1 0
2341 1 18.96056385992626 15.587077771608836 6.194387838822629 1 0 1
2337 1 23.25563152263642 16.508356457687704 3.127344194259061 0 0 1
378 1 25.216310076180815 16.591578561535155 4.76309554698862 0 1 0
3901 1 29.03951932865901 16.260469096597873 6.272700669620677 0 1 1
1524 1 31.526737327822907 15.476955656711315 5.396349670215537 0 1 0
2489 1 35.302635626564594 17.99090169484436 3.494066425213573 -1 1 0
4096 1 37.082246643146945 18.435099162038927 5.594927848720115 -1 0 1
1209 1 39.309289994230355 16.62256710496263 5.103901497340619 0 0 1
1289 1 41.42249213463471 13.7251926836844 3.6166661465383614 0 0 1
2768 1 42.796983435619794 16.034833702036757 2.819514220059536 0 0 0
2607 1 45.51050202308595 15.65619144502577 4.54546952815928 0 1 0
4157 1 47.05548571543406 17.12476078576323 2.840771693080761 -1 0 1
1081 1 47.015598674423245 17.520779661119512 6.643168652005537 0 0 0
2778 1 49.286108423757554 15.627173200055166 3.0955678310396264 -1 0 0
1682 1 6.484516414318776 21.693007403549128 1.9182305097550678 -1 0 0
1968 1 13.13685475463652 18.784483431081284 1.7819289590125935 1 0 2
618 1 12.382350739963158 18.36445418581071 4.746291166082236 0 0 0
644 1 15.893397224281024 19.470290044274087 6.846412834604705 1 0 1
2141 1 18.736867121543174 20.383129979833026 6.393140640326883 1 0 0
578 1 21.44723736007489 19.425775324712205 6.502007073968573 0 0 1
2184 1 24.746225283530006 21.43685180501611 5.295481749827961 0 0 0
1879 1 23.01466945095122 21.87708626766487 7.149424185937021 1 0 1
3560 1 25.629467917550862 19.011001672809876 5.965048847510771 0 0 1
1629 1 28.403569988980074 18.83296411188199 5.061103823125949 -1 0 0
2499 1 29.985909611837165 20.81970487195851 6.327309322784361 0 0 0
590 1 32.74169728708807 20.84457825266389 5.352595451882521 -1 0 -1
2051 1 38.284003817977975 20.567588954228782 4.581665412890825 0 0 1
1398 1 41.49655357065954 20.18010774576301 7.3579205487760735 -1 -1 1
4126 1 47.22305694559945 19.220016788758652 4.253007665375414 0 0 0
3492 1 50.06247833495175 19.65954680084825 5.299271601593678 0 0 0
101 1 0.1566071331302027 22.205609313158153 4.49291486077536 1 1 1
3441 1 2.4612749016254134 22.91934519424803 3.2982123151906495 0 1 0
3970 1 5.321782563143795 22.92551359392721 4.439483566738276 1 0 1
4113 1 0.01839890711377351 22.43555227660481 14.686153729019866 1 0 0
3961 1 12.168853194481075 22.262834688631585 8.33529892186155 1 0 0
3535 1 44.71295774674206 15.478502346429227 15.84554902731881 -1 1 1
3939 1 10.702334702843713 23.088635245929243 2.640199975133169 1 1 1
2542 1 7.456482224267284 21.283131558938845 5.511892474853874 1 1 1
1187 1 12.79218418383609 23.106685414111602 4.4184748275193355 0 1 0
2595 1 40.75848293527801 19.03250227498113 0.4083364287753939 -1 1 0
4134 1 15.287752923118969 23.778843413352543 3.733563416098809 0 0 1
60 1 40.57910414762726 17.911217747570667 16.41288833237528 0 0 -1
249 1 26.106914641954738 23.565760654487367 5.688979405007945 0 0 0
1296 1 28.80514996590826 23.020159021609167 4.9362971336123325 1 0 0
2889 1 32.98144098518067 23.576766123605662 5.793810815593387 -1 0 0
1755 1 44.27520823358212 12.314592302173207 15.148763256206962 0 0 1
1393 1 41.09468196689073 18.893056863502245 4.97480456841915 0 0 0
567 1 44.967069955099305 20.754330786039787 4.759486523832455 0 0 0
4058 1 6.272710877117288 24.926473979602807 3.1833100616612864 1 1 1
3727 1 2.0951036397676925 1.6554779447868289 8.493670782100594 0 1 1
2626 1 5.794119942092615 1.535336893911128 6.662354957799299 1 0 0
4152 1 6.803127460633553 1.3983646440493498 9.490512703878368 0 0 0
203 1 12.59704070662224 2.3972218278242003 8.276742159962604 0 0 0
4158 1 16.46124810376495 0.35233704435651747 9.27399340424848 0 0 1
2163 1 16.788137045057834 2.6500260709497634 7.570168880907662 0 1 0
2602 1 22.999803859058733 4.485451776508501 9.80638950101352 0 1 -1
2670 1 24.9077525019941 2.7860338656183963 9.31746661636948 1 1 0
3373 1 27.458041746009194 3.5211209570729283 8.599011094080987 0 1 0
3777 1 34.92978592210126 1.9833008443857896 7.337381812429741 0 0 1
3149 1 39.73494813264213 2.2652366666456385 8.603622813481772 0 1 0
1821 1 10.615088951816363 20.116965150321285 0.8334222668674938 0 0 1
200 1 42.33085402247889 0.2023236758838392 11.230885087892151 0 0 0
1761 1 45.473859983609984 0.9992081613076811 6.315019123595278 -1 1 1
2065 1 46.550794105153145 3.3765013495497014 7.158717420996503 0 0 1
2401 1 50.126073243867665 1.2356557243750652 6.839287442018219 -1 0 -1
10 1 0.676043218634391 5.595320057201139 9.799116955308595 1 0 0
1901 1 3.015879346482039 4.083724927505168 9.166383422427515 1 0 0
1993 1 10.245619460028317 3.920166421050289 7.969274739043119 0 0 0
2047 1 14.401587538124932 4.268305547909718 7.998942435580311 0 1 1
3450 1 19.24501360129126 4.1447810816721855 7.840315789258302 1 1 0
2651 1 24.20935415451246 6.481170098856813 7.934441092503976 0 0 0
893 1 26.650385725912805 6.281024582717875 9.53050163665524 0 0 0
1771 1 28.367207191916595 4.585871691318531 6.178887746693338 0 0 1
2995 1 30.4626367915765 6.248419615322835 7.861350030748104 -1 0 0
2084 1 28.651162140246086 7.71945088337183 6.170074192992048 -1 1 0
614 1 30.539884050244595 3.437219112390688 9.258141347678215 0 0 0
452 1 36.09168996792545 4.418046457658872 7.672461579600576 -1 0 0
1746 1 38.515391282313004 3.752396564506758 6.420180356170456 0 0 1
3555 1 42.46748512839892 2.3569865985427585 7.1008822198427 -1 1 1
2361 1 46.33024069434612 1.7521342685647885 10.377094368938147 -1 1 0
3105 1 44.06004527348679 4.1982687126108145 8.262544736714252 -1 0 0
3312 1 47.39882608210718 6.576772974913989 8.209986619048312 0 0 0
3733 1 49.26797972867189 4.166679029043472 8.393779347801331 -1 0 1
2024 1 1.8459365845136695 8.295031150223789 10.70506957069634 1 0 1
508 1 4.499577535476443 5.060150139421794 7.023614537041329 0 0 0
166 1 5.889440691521111 7.329124819159015 8.238034684936963 1 0 0
823 1 9.942492280125375 7.903340090989182 6.8636743863160685 0 0 1
1775 1 10.095869537708252 6.366473836294821 9.197884308488039 0 0 1
1620 1 19.219924582401077 6.689489813699976 8.104655112793466 0 0 1
3071 1 17.72302705513126 8.311353463522378 6.400827051637543 1 1 1
2920 1 21.766206791665223 7.899168412404048 8.47854218362839 0 1 0
1158 1 25.788392901994825 8.286985885171955 6.662839037135252 0 1 0
3636 1 28.766462517910814 8.1581219156326 9.385277286131656 0 0 1
2097 1 35.00069562298572 7.073313595914372 7.7123620261223635 -1 0 1
1589 1 33.09030193574685 7.5080846815854985 9.498375892474963 -1 0 1
3699 1 37.84325993856447 7.465878393424176 8.50101578827957 0 1 1
3282 1 39.974915730274446 6.059620322724395 7.068358745487869 -1 1 0
3526 1 43.38100326256807 6.748098299519968 6.996560216073847 0 0 0
1316 1 45.077468997965696 8.890941483928414 8.598542009821621 0 0 0
748 1 49.34850847379619 8.857691676368377 8.62126633463142 0 1 0
1414 1 3.4339640003884466 9.191022392944635 8.456923150181284 0 0 1
2833 1 3.4871861817911873 10.859688245689519 6.16907272753668 1 2 0
385 1 11.310007587689242 10.598997308667089 7.398223629223751 1 0 0
1856 1 17.977606993923455 9.861612393518886 9.144958190346562 0 0 1
3052 1 18.377218445503182 12.605572687171655 8.685734041442137 0 0 0
1612 1 20.965842935828093 12.77112403308832 8.115580254839287 0 0 0
4147 1 22.669505816276818 10.421716877549 8.206023393476277 0 1 1
2815 1 25.319644619605118 12.801572386237225 9.675865395053954 0 0 0
3161 1 24.965714031191443 12.269988020768318 5.1185956472054315 0 0 0
2492 1 28.07658833608527 11.032791666719206 8.317536756058344 0 1 0
3544 1 25.44129289381675 10.603132348616109 7.376529805208603 0 0 1
996 1 31.74868764507842 9.377447367555844 7.727292971154971 -1 1 0
1713 1 29.90005752738837 10.263701433942696 11.540429315552904 0 0 1
2627 1 33.11594717215716 11.687181422310767 7.069270225744481 0 1 0
3015 1 36.6769040476475 10.80350867024573 9.497700178270918 0 0 1
2244 1 41.20645447647685 9.159935381688078 10.097756402692262 0 0 1
2101 1 42.79740818184071 10.571968206493578 7.882419357996179 0 -1 0
1433 1 -0.13125431121575104 12.924414161126178 6.748329197635038 1 0 1
150 1 7.248133896782987 12.857057441485143 7.63927952069628 0 -1 0
2104 1 5.921082608252895 15.031666924244016 7.109471770644981 1 0 1
88 1 10.182669627734368 12.93601236772944 6.94494557854786 1 0 0
1087 1 11.705601500625999 14.63478463622264 8.642402355379591 1 0 0
2553 1 14.523047205914148 14.735510088606821 7.744968583823168 1 0 0
1388 1 14.86210792188567 12.006028906705572 7.2888872053237845 1 0 0
1085 1 24.72879118974201 14.673601332857066 6.5310864682281045 0 -1 1
445 1 27.616353158345714 13.939914257519193 7.389596594345386 0 0 0
3457 1 30.94009548817323 11.86062065593966 9.559434434808823 0 1 0
576 1 33.954771483674676 16.702417843193004 5.9854865099451295 0 0 0
3594 1 36.08673830164952 15.011631630336256 6.890397538092339 1 0 1
2985 1 39.731440068844734 9.83063163129827 7.674192771779961 0 -1 0
1643 1 42.72265905403053 13.233284485787367 8.764274272241897 0 0 0
866 1 41.30860837257208 14.769452245089257 6.629707177006282 -2 1 0
976 1 45.7253376608401 13.187587373985497 9.217453006446654 0 0 0
135 1 3.141574740571566 15.246872291196281 8.278986864579915 0 0 0
3588 1 2.4929202012832516 19.008619559822197 8.255699466927695 1 1 0
2025 1 7.543662945128392 16.86582579433438 8.521462059724815 1 0 1
300 1 10.36182110830817 17.193679398773224 9.056563068476432 1 0 -1
940 1 17.790334503768975 17.20335991133525 8.096327629993253 0 1 1
2479 1 19.893254279692684 17.782359527124658 9.632336828979355 -1 1 0
3277 1 21.808740366135634 17.107111077139788 7.950497927868758 0 1 1
3237 1 24.208671661963255 17.055603522473472 9.5374483828545 -1 0 0
1401 1 28.41527431120401 15.981896634278531 9.4280760764386 0 0 1
625 1 28.384925484301267 18.971124742559937 9.850040723896276 0 0 1
3114 1 31.889490469416035 16.156480708696616 8.42630426236043 0 0 0
93 1 40.0809546297873 16.054910856806035 8.779755530614304 1 0 0
403 1 0.7434192079550872 16.19760033236509 7.102192070192718 2 -1 0
246 1 1.7605882142871776 18.154866496799205 5.343816810435034 0 0 1
2034 1 4.872194683307785 20.681373159528253 8.284759354628024 0 0 1
1028 1 6.377304213397668 18.930543048361336 6.6377296249277755 1 1 1
2634 1 9.484316164988963 21.780628924508957 7.85572313773436 0 1 1
123 1 8.644456338657067 21.778744361244595 10.484159849807169 1 0 0
1312 1 10.55908265397932 19.085815055913827 7.090040005758382 0 -1 0
2199 1 13.009120890336774 20.00726152854485 9.8391421964498 0 0 1
2703 1 15.624321962505483 19.854998932503364 9.594356236869528 0 0 0
829 1 20.461537859673545 20.58466058418923 9.521652967208999 0 -1 0
3830 1 25.916309701357008 19.274525904514885 8.635737046700996 -1 0 1
515 1 24.782649479244803 21.69340640651022 9.126284376766868 1 1 1
1180 1 30.76045778351648 18.77246390915059 8.3477992336871 0 0 1
2987 1 33.58754020382767 19.037796573859822 7.467795328112119 0 1 0
2383 1 32.53011099128106 20.103820975941034 10.47755113736108 1 1 0
952 1 36.14283696003696 19.39742133315175 8.195354434347307 -1 0 0
848 1 38.18658749892356 22.634620623220915 6.2711151299307994 1 0 0
2091 1 43.021362385130246 16.85545428523196 5.807978161348266 0 0 1
2825 1 39.753401096504476 18.863419331918983 8.847746513336213 0 1 0
2204 1 46.15421348495639 19.34089659459099 9.342045367150048 0 1 0
112 1 49.96618944224558 19.67639427435031 8.241817567727376 -2 -1 0
12 1 47.52838717682012 21.41455105358831 7.666275972762128 -1 0 0
1996 1 4.473870772565903 23.387776297515764 7.729234962516689 0 0 1
1652 1 6.914183251525254 24.09024649627997 11.178483693514162 -1 1 0
2386 1 13.149309675005135 24.307217328085194 12.534876384069943 0 1 0
1802 1 10.905721477212577 5.0050778025517015 0.4891191665927628 0 0 1
2506 1 13.083212761261443 21.017053274432985 6.07501443048111 0 0 0
1900 1 15.50990746404578 22.812601190620327 7.562920103215688 1 0 1
3380 1 18.01973134501923 22.388458655109705 8.266009117969595 0 0 0
487 1 20.97964007095306 23.608976755793588 9.987329645382239 0 0 0
1458 1 21.774503113760012 24.345495774781867 7.200592811747677 1 0 1
1559 1 26.415705138116227 23.64215543236557 8.482628279878204 0 0 1
1325 1 28.88277310036649 22.543585194121835 8.269105903435356 0 0 0
3587 1 19.35387674294984 18.675826887967496 0.2748681463997602 0 1 1
1933 1 37.11388784557117 21.922368200004808 8.776533277728978 0 0 1
566 1 40.651142508503014 22.750355414014845 7.457644720048265 -1 0 0
1182 1 44.19022771798083 20.652723542744244 7.503082839959669 -1 0 1
2469 1 43.978481023443294 23.072718906051648 8.490594716809932 -1 1 0
3942 1 47.89322753704977 24.679691837058932 7.7793432559713445 -1 0 0
2885 1 46.9666581791417 14.689253410556715 0.5164736111031455 0 0 1
1435 1 4.17743855832522 1.3761797027128013 12.640439085664616 1 0 1
1383 1 9.37716191926579 2.220094495359651 10.104522355107218 1 1 0
1865 1 11.271483569554889 0.06540611651175016 10.68104323466039 1 0 1
2641 1 13.740931247029243 1.325849087234849 10.824883326198519 1 1 0
2932 1 20.446497219321756 3.1866894368030336 10.059415559047633 0 1 0
1424 1 21.103473580037345 1.8103387162656488 12.596273515834417 1 0 0
2830 1 9.040567944825387 24.306067366057178 6.715066698236827 0 0 0
3272 1 29.6103628368106 1.606926022240331 11.373771916766175 -1 1 1
2504 1 32.13964418507608 0.3390727070706777 11.82528145638822 0 0 0
2531 1 34.3215414184677 1.7190188111255271 13.124480247741086 -1 1 0
96 1 43.944795884219786 0.8968411821798152 15.315493954724957 0 0 0
3674 1 38.189002334449 0.6321126913672016 13.176108073583213 -1 0 0
2239 1 33.345063259383636 24.420105363166307 8.4327749336581 0 0 -1
28 1 42.07245061417878 21.553122353924913 10.317997684038884 0 0 -1
454 1 49.23794920402422 1.9291388250010195 9.976334314221356 0 0 -1
3659 1 50.2157441741912 2.3726460200291393 12.802280636408081 -1 1 1