
# Create simulation box of size 50 x 50 x 50 Angstrom
#
lattice	            sc 1
Lattice spacing in x,y,z = 1.0000000 1.0000000 1.0000000
region 	            all block 0 50 0 50 0 50 units box
create_box          1 all
Created orthogonal box = (0.0000000 0.0000000 0.0000000) to (50.000000 50.000000 50.000000)
  1 by 2 by 3 MPI processor grid

# fill box with 4175 randomly distributed atoms
#
create_atoms        1 random 4175 63782 all
Created 4175 atoms
  create_atoms CPU = 0.001 seconds
mass                1 18.015

# Define potential
#
pair_style          sw
pair_coeff          * * ML_mW.sw mW
Reading sw potential file ML_mW.sw with DATE: 2019-02-27

# Run minimization
#
minimize            1.0e-8 1.0e-8 10000 1000
WARNING: Using 'neigh_modify every 1 delay 0 check yes' setting during minimization (../min.cpp:187)
Neighbor list info ...
  update every 1 steps, delay 0 steps, check yes
  max neighbors/atom: 2000, page size: 100000
  master list distance cutoff = 6.0032907
  ghost atom cutoff = 6.0032907
  binsize = 3.0016454, bins = 17 17 17
  1 neighbor lists, perpetual/occasional/extra = 1 0 0
  (1) pair sw, perpetual
      attributes: full, newton on
      pair build: full/bin/atomonly
      stencil: full/bin/3d
      bin: standard
Per MPI rank memory allocation (min/avg/max) = 4.255 | 4.258 | 4.261 Mbytes
Step Temp E_pair E_mol TotEng Press 
       0            0    7792709.3            0    7792709.3    5898794.3 
     630            0   -45180.336            0   -45180.336   -154.07449 
Loop time of 1.14698 on 6 procs for 630 steps with 4175 atoms

99.1% CPU use with 6 MPI tasks x no OpenMP threads

Minimization stats:
  Stopping criterion = max force evaluations
  Energy initial, next-to-last, final = 
      7792709.32924461  -45180.0188663597   -45180.336116598
  Force two-norm initial, final = 2.0191930e+08 4.9721331
  Force max component initial, final = 1.0948746e+08 0.73126211
  Final line search alpha, max atom move = 0.053306038 0.038980685
  Iterations, force evaluations = 630 1000

MPI task timing breakdown:
Section |  min time  |  avg time  |  max time  |%varavg| %total
---------------------------------------------------------------
Pair    | 0.8875     | 0.98959    | 1.0671     |   5.7 | 86.28
Neigh   | 0.024188   | 0.024771   | 0.025537   |   0.3 |  2.16
Comm    | 0.034437   | 0.1126     | 0.21562    |  16.9 |  9.82
Output  | 0          | 0          | 0          |   0.0 |  0.00
Modify  | 0          | 0          | 0          |   0.0 |  0.00
Other   |            | 0.02002    |            |       |  1.75

Nlocal:        695.833 ave         704 max         685 min
Histogram: 1 1 0 0 1 0 0 1 0 2
Nghost:        1494.17 ave        1515 max        1468 min
Histogram: 1 1 0 0 0 0 1 1 1 1
Neighs:        0.00000 ave           0 max           0 min
Histogram: 6 0 0 0 0 0 0 0 0 0
FullNghs:      19997.0 ave       20462 max       19320 min
Histogram: 1 1 0 0 0 0 0 2 0 2

Total # of neighbors = 119982
Ave neighs/atom = 28.738204
Neighbor list builds = 26
Dangerous builds = 0

# Add velocity/set timestep
#
velocity            all create ${TEMP} 120598 rot yes dist gaussian
velocity            all create 225 120598 rot yes dist gaussian
timestep            5.0

# Define output
#
compute	            1 all msd
thermo	            100
thermo_style        custom step temp press vol etotal ke pe c_1[4] density

# Neighbor lists
#
neigh_modify        delay 0 every 1 check yes

# Set fixes
#
fix                 1 all momentum 10 linear 1 1 1 rescale
fix                 2 all nve
fix                 3 all temp/csvr ${TEMP} ${TEMP} 500.0 928347
fix                 3 all temp/csvr 225 ${TEMP} 500.0 928347
fix                 3 all temp/csvr 225 225 500.0 928347
fix                 4 all press/berendsen iso ${PRES} ${PRES} 1000.0 modulus 20000
fix                 4 all press/berendsen iso 50 ${PRES} 1000.0 modulus 20000
fix                 4 all press/berendsen iso 50 50 1000.0 modulus 20000

# Run 0.5 ns equilibration
#
dump                1 all custom 1000 eq.${NAME}.dump id type x y z vx vy vz
dump                1 all custom 1000 eq.liquid_density_MLmW.dump id type x y z vx vy vz
run                 100000
Per MPI rank memory allocation (min/avg/max) = 3.506 | 3.508 | 3.511 Mbytes
Step Temp Press Volume TotEng KinEng PotEng c_1[4] Density 
     630          225    869.67124       125000   -42380.908    2799.4278   -45180.336 2.7295415e-33   0.99914793 
     700      143.157    2.0596619    125443.48   -41520.491    1781.1453   -43301.636   0.26623128   0.99561561 
     800    177.77741   -187.30135    125390.44   -40737.225     2211.889   -42949.114   0.61965058   0.99603679 
     900    196.00104    57.609493    125258.04   -40306.153    2438.6256   -42744.779    1.0673122    0.9970896 
    1000    207.38325    158.50443    125433.63   -40017.106    2580.2419   -42597.348    1.4650644   0.99569379 
    1100    216.87835   -9.0155137    125689.63   -39814.702     2698.379   -42513.081    1.8772287   0.99366582 
    1200    218.62481    61.501926    125536.75   -39840.844    2720.1083   -42560.952    2.2576368   0.99487591 
    1300    217.49052   -59.024846    125468.23   -39830.688    2705.9955   -42536.684     2.709528   0.99541928 
    1400     220.2643    175.66947    125598.96   -39844.338    2740.5066   -42584.844    3.1036486   0.99438313 
    1500    217.87896    91.686855    125476.55   -39792.549    2710.8285   -42503.378    3.4117629   0.99535322 
    1600    224.27437    191.11825    125772.69   -39694.895    2790.3995   -42485.294    3.8248645   0.99300959 
    1700    224.40853    151.17986    125869.56    -39731.23    2792.0688   -42523.299    4.2997535   0.99224541 
    1800    225.12856    51.785701    125875.35   -39823.452    2801.0273   -42624.479    4.6161161   0.99219974 
    1900    221.49789    96.897677     125992.9   -39798.552    2755.8548   -42554.407    4.9835389   0.99127405 
    2000    227.67858     14.61504    126185.05   -39760.116    2832.7543   -42592.871    5.4180947   0.98976458 
    2100    227.33263    96.616888    126371.79   -39724.152    2828.4502   -42552.602    5.8078262   0.98830201 
    2200    228.38785   -101.41471    126447.29   -39751.006     2841.579   -42592.585    6.0810152   0.98771191 
    2300    225.21705    80.498433    126325.69   -39729.914    2802.1283   -42532.042    6.3522562   0.98866262 
    2400    228.87412   -78.063962    126441.65   -39739.639    2847.6292   -42587.268    6.7852008   0.98775593 
    2500    224.46808   -20.070807    126377.46   -39690.413    2792.8096   -42483.222    7.1147152   0.98825764 
    2600    233.42899    225.38954    126434.15   -39639.801    2904.3005   -42544.102    7.5136292   0.98781454 
    2700    233.84476    -90.38973    126447.49   -39664.896    2909.4734    -42574.37    7.7422803   0.98771033 
    2800     231.5681   -3.7266839    126310.57   -39666.843    2881.1474   -42547.991    8.2117958   0.98878103 
    2900    230.69949    34.617662     126110.3   -39774.931    2870.3403   -42645.272    8.5925179   0.99035124 
    3000    225.93876   -120.91311    126092.94   -39825.844    2811.1077   -42636.951    8.9159216   0.99048757 
    3100     226.5567     283.6319    126311.78   -39805.699    2818.7961   -42624.495    9.2683105   0.98877152 
    3200    225.44513    267.19457    126638.34   -39867.444     2804.966    -42672.41    9.6081411   0.98622181 
    3300    225.00773    125.31974    126811.13   -39874.435    2799.5239   -42673.959    10.122501   0.98487802 
    3400    224.71338    107.75498    127015.96   -39916.904    2795.8617   -42712.765    10.409953   0.98328971 
    3500    223.92023   -119.90297    126793.63   -39968.296    2785.9933   -42754.289    10.439984   0.98501393 
    3600    221.78377    50.358233    126768.62   -40005.695    2759.4117   -42765.107      10.7729   0.98520824 
    3700    218.95708    25.864763    126869.15   -40064.198    2724.2424   -42788.441     10.88391   0.98442758 
    3800    222.00117   -72.064063       126975   -40014.777    2762.1166   -42776.894    11.222431   0.98360692 
    3900    221.59918    168.46386     127143.7   -40049.315    2757.1151    -42806.43    11.599675   0.98230187 
    4000     222.9215    230.56181    127107.15   -40042.465    2773.5673   -42816.033    12.030728    0.9825843 
    4100    227.68194    96.599182    126990.64   -40047.997    2832.7962   -42880.793    12.432794   0.98348578 
    4200    223.63206    23.728942    126952.24   -40075.451     2782.408   -42857.859    12.552153    0.9837833 
    4300    225.79793     132.7279    127287.08   -40062.417    2809.3555   -42871.773    12.799154   0.98119536 
    4400    224.90341    148.22058    127355.96   -40042.345     2798.226   -42840.571    13.129703   0.98066469 
    4500    221.49775    61.974853    127463.16   -40038.155    2755.8532   -42794.008    13.401649   0.97983989 
    4600    222.96801    50.325869    127455.88   -40073.172    2774.1459   -42847.318    13.605448   0.97989591 
    4700    221.56962    161.19488    127458.49   -39976.763    2756.7473    -42733.51    14.039524   0.97987582 
    4800    218.21702    10.944231    127325.59   -40030.341    2715.0346   -42745.376     14.22544    0.9808986 
    4900    225.22213    19.058478    127364.66   -39905.357    2802.1914   -42707.548    14.369798   0.98059767 
    5000    228.66108   -179.72486    127494.16   -39847.823    2844.9786   -42692.801    14.638816   0.97960167 
    5100    226.27865    81.059044    127588.01   -39920.954    2815.3366   -42736.291    15.027762   0.97888114 
    5200    225.52384   -50.647056    127661.15   -39978.796    2805.9453   -42784.742    15.216945   0.97832031 
    5300    221.62761    174.01524    127426.33   -39965.435    2757.4688   -42722.904    15.624517   0.98012313 
    5400    229.76061    38.975353    127450.34   -40014.951    2858.6589    -42873.61    16.048247   0.97993846 
    5500    222.13617    112.03736    127611.01   -40008.046    2763.7962   -42771.843    16.452047   0.97870468 
    5600    223.50983   -52.626096    127561.97   -40021.393    2780.8872    -42802.28     16.74093   0.97908089 
    5700    225.23324   -28.412058    127618.26   -40020.675    2802.3297   -42823.005    17.014249   0.97864909 
    5800    224.02386    59.709803    127749.03   -40055.011    2787.2827   -42842.293    17.176155   0.97764726 
    5900    222.10337    41.070926    127385.66   -40093.659    2763.3882   -42857.048    17.409605   0.98043606 
    6000    225.77567    42.557852    127650.51   -40103.159    2809.0785   -42912.237    17.655359   0.97840182 
    6100    223.35397    79.739093    127794.29   -40054.103    2778.9481   -42833.051    17.955301   0.97730103 
    6200    222.71919   -100.31277    127804.96   -40123.191    2771.0501   -42894.241    18.119874   0.97721942 
    6300    227.12408   -265.45634    127707.94   -40086.664    2825.8554    -42912.52    18.205016   0.97796183 
    6400     229.6431   -99.787943    127574.57   -40070.197    2857.1967   -42927.394    18.482731   0.97898425 
    6500    228.52619    133.02397    127963.64   -40028.403    2843.3002   -42871.703    18.942648   0.97600764 
    6600     222.3148    94.583416    127840.88   -40125.642    2766.0187    -42891.66    19.197204   0.97694485 
    6700    217.09262    43.935172    128052.02   -40196.233     2701.045   -42897.278    19.440506   0.97533402 
    6800    226.54198   -80.288196    127931.33   -40119.438    2818.6129   -42938.051     19.67173   0.97625414 
    6900    230.46209    278.89685    127900.43   -40066.253    2867.3866    -42933.64    19.860511   0.97649001 
    7000     227.8952   -191.20879    127934.19   -40079.126    2835.4496   -42914.576    20.019679   0.97623231 
    7100    226.98059   -97.586462    128070.61   -40100.598      2824.07   -42924.668    20.489582   0.97519245 
    7200    222.01595    191.87718    127897.18   -40146.109    2762.3005   -42908.409    20.691412    0.9765148 
    7300     219.5908    36.970227    127964.42   -40190.987     2732.127   -42923.114    20.740917   0.97600168 
    7400    217.83935   -47.862387    128049.85   -40209.477    2710.3356   -42919.812     20.99433   0.97535053 
    7500    224.77829   -106.50577    127908.92   -40170.292    2796.6693   -42966.961    21.030989   0.97642522 
    7600    220.05642    61.331431    128123.28   -40245.128    2737.9202   -42983.048    21.348702   0.97479154 
    7700    224.00001    -44.65418    128132.06   -40143.358     2786.986   -42930.344    21.539311   0.97472476 
    7800    226.93294    119.29731    128214.16   -40116.253    2823.4772    -42939.73    21.648292   0.97410064 
    7900    224.05904   -30.140696    128122.35   -40191.337    2787.7205   -42979.057    21.709119   0.97479863 
    8000    226.62714    31.190339    128014.32   -40169.764    2819.6724   -42989.436    21.813804   0.97562122 
    8100    217.91109   -20.385179    128010.26   -40244.868    2711.2283   -42956.096    22.205166   0.97565222 
    8200    219.09161   -37.667216    127914.18   -40283.379    2725.9162   -43009.296     22.37835   0.97638502 
    8300    221.94617    184.65219    127935.21   -40267.537    2761.4323   -43028.969    22.667969   0.97622454 
    8400    222.05334   -54.923237    128061.03   -40225.989    2762.7657   -42988.755     22.93161   0.97526539 
    8500    224.96466    3.2291309     127905.9   -40146.941    2798.9881   -42945.929    23.138161   0.97644828 
    8600    222.92472   -29.495684    127719.39     -40159.6    2773.6073   -42933.207    23.198054   0.97787415 
    8700    220.40287    152.70119     127794.5   -40131.119    2742.2307    -42873.35    23.188036   0.97729943 
    8800    222.83171   -284.18891    127700.17   -40142.819    2772.4502   -42915.269    23.476497   0.97802135 
    8900    225.20874    104.80545    127647.95   -40221.225    2802.0249    -43023.25    23.781582   0.97842142 
    9000    222.67691   -118.85439    127588.44   -40176.996    2770.5241   -42947.521    23.968792   0.97887782 
    9100    218.47367    95.021486    127469.38   -40239.176    2718.2279   -42957.403    23.975127   0.97979206 
    9200    221.38809    265.01281    127624.62   -40131.461    2754.4887    -42885.95    24.410145   0.97860028 
    9300    224.67127    235.04218    127556.59   -40166.577    2795.3377   -42961.915    24.419315   0.97912225 
    9400    230.02504   -6.0718391     127793.2   -40122.131    2861.9488    -42984.08    24.718487   0.97730933 
    9500    226.16136    34.102363    127701.84   -40135.127    2813.8773   -42949.004    25.023892   0.97800857 
    9600    225.65152   -67.980928    127697.26   -40104.052    2807.5339   -42911.586    25.236129   0.97804362 
    9700    227.49298   -19.027829    127907.21    -40030.55    2830.4452   -42860.995    25.457314    0.9764382 
    9800    229.30124   -13.912588    127829.86   -40113.165    2852.9433   -42966.108    25.760353   0.97702909 
    9900    221.98272    42.918385    127758.66   -40195.484     2761.887   -42957.371    26.088112   0.97757357 
   10000    225.85204    258.68113    127922.18   -40191.585    2810.0288   -43001.614    26.254684   0.97632398 
   10100    220.32314    174.71679    128071.28   -40152.374    2741.2387   -42893.613    26.567847   0.97518731 
   10200    221.38242   -13.969174    128072.91   -40195.727    2754.4181   -42950.145    26.608406   0.97517495 
   10300    222.54059    23.203063    128228.67   -40188.363     2768.828   -42957.191    26.912055   0.97399037 
   10400     227.0669    118.93585    128364.53   -40129.806    2825.1439    -42954.95    27.096795   0.97295952 
   10500    223.19294   -85.842283    128273.41   -40113.764    2776.9445   -42890.708    27.332723   0.97365064 
   10600    227.47825   -51.023275    128334.23   -40068.335    2830.2619   -42898.597    27.541211   0.97318925 
   10700     225.2827    253.81355    128167.05   -40045.086    2802.9451   -42848.031    27.693508   0.97445869 
   10800    228.70368   -19.710105    127830.52   -40022.317    2845.5086   -42867.825    27.939645   0.97702403 
   10900    223.31273   -57.128664    127679.78   -40035.744    2778.4349   -42814.179    28.248995    0.9781775 
   11000    228.34634    74.798699    127606.42    -40006.74    2841.0626   -42847.803    28.665025   0.97873989 
   11100    222.82479   -49.802091     127485.6   -40033.999     2772.364   -42806.363     28.91463   0.97966745 
   11200    227.54076   -1.1939647    127463.92   -40032.583    2831.0397   -42863.623    29.131527    0.9798341 
   11300    225.94246   -90.473434    127540.98    -40031.56    2811.1538   -42842.714    29.413051   0.97924208 
   11400    226.84666    38.455422    127629.98   -40024.645    2822.4037   -42847.049    29.636355   0.97855923 
   11500    222.75344    93.342478    127666.13   -40054.437    2771.4763   -42825.914    29.720125   0.97828211 
   11600    225.32106   -69.667909    127592.83   -40079.698    2803.4224   -42883.121    29.922613   0.97884409 
   11700    232.55074     251.0133    127823.75   -39989.743    2893.3733   -42883.116    30.142919   0.97707575 
   11800    225.87813    121.62822    127749.02    -40070.79    2810.3534   -42881.143    30.343259   0.97764735 
   11900    220.92159   -137.21367    127855.94    -40092.94    2748.6846   -42841.624    30.708927   0.97682975 
   12000     218.2562    17.420931    128088.84   -40083.403     2715.522   -42798.925    30.740288   0.97505365 
   12100    225.82358   -127.39323    127953.11   -40041.139    2809.6747   -42850.814    30.825451   0.97608794 
   12200    226.29731    142.65838    127871.05   -40045.169    2815.5688   -42860.738    31.049297   0.97671439 
   12300    224.51051   -19.074607    128050.74   -40078.217    2793.3375   -42871.555    31.450906   0.97534379 
   12400    227.74007    33.182986    127822.82   -40049.793    2833.5194   -42883.312    31.732744   0.97708289 
   12500    219.21181    101.52894    127802.07   -40152.562    2727.4117   -42879.974    31.762926   0.97724152 
   12600    227.18824    129.21462    127857.75   -40071.526    2826.6536    -42898.18    32.148288   0.97681595 
   12700    227.10438    201.18013    127805.41   -40047.197    2825.6102   -42872.807    32.490645     0.977216 
   12800    230.24083    5.0769314    127975.61   -40009.016    2864.6337    -42873.65    32.558578   0.97591637 
   12900    228.03454   -65.096364    127987.59   -40073.277    2837.1832    -42910.46    32.681544   0.97582499 
   13000    227.31428    114.99376    128067.57   -40043.671    2828.2218   -42871.893     33.00356   0.97521561 
   13100    226.38432   -135.28697    128075.08   -40041.999    2816.6513    -42858.65    33.139835   0.97515843 
   13200    228.60598     123.1747    128171.31   -39964.147     2844.293    -42808.44    33.387713    0.9744263 
   13300    229.01217   -81.757899    128134.64   -40001.355    2849.3468   -42850.702    33.573403   0.97470513 
   13400    225.61892   -33.033613    128094.81   -40085.875    2807.1283   -42893.003    33.690219   0.97500817 
   13500    225.42704   -78.771577    128042.72   -40121.585     2804.741   -42926.326    33.784721   0.97540483 
   13600     222.8019    38.515984    128198.46   -40161.135    2772.0793   -42933.214    34.174546   0.97421987 
   13700    222.76084    29.517993     128043.8   -40170.098    2771.5683   -42941.667    34.491143   0.97539666 
   13800    222.24109    91.777064    127899.66   -40095.407    2765.1016   -42860.508    34.670319   0.97649585 
   13900    225.48779    14.834559    128046.08   -40140.864    2805.4968   -42946.361    34.852132   0.97537927 
   14000    225.00789    0.9027665     128107.2   -40137.328    2799.5259   -42936.854    34.938047   0.97491388 
   14100    221.48445    113.58312    128128.35    -40127.07    2755.6876   -42882.758    35.108625   0.97475295 
   14200    229.38324    12.162086    128052.61   -40162.464    2853.9636   -43016.428    35.223052   0.97532954 
   14300     222.3348    65.348568    128186.01   -40231.164    2766.2676   -42997.431    35.410274   0.97431453 
   14400     226.4433    199.38938    128336.55   -40204.583    2817.3851   -43021.968    35.604523   0.97317161 
   14500    225.33882    -58.59325    128305.42   -40155.231    2803.6434   -42958.874    36.082171   0.97340779 
   14600    228.33178   -39.912682    128165.65   -40177.765    2840.8814   -43018.647    36.513492   0.97446931 
   14700    223.95989   -178.47503       127973   -40217.201    2786.4869   -43003.688    36.718695   0.97593624 
   14800     223.2344    105.49145    127923.16   -40256.513    2777.4603   -43033.973    36.586972   0.97631649 
   14900    220.07533    126.88331    127816.53   -40327.503    2738.1555   -43065.658    37.083584   0.97713098 
   15000    220.95912    49.647168    127861.46   -40325.509    2749.1515    -43074.66    37.118529   0.97678759 
   15100    221.05815   -105.46983     127502.6   -40346.608    2750.3836   -43096.992    37.356723   0.97953685 
   15200    227.20491    104.74732    127495.38   -40257.857     2826.861   -43084.718    37.545605   0.97959229 
   15300    221.89332   -1.7177734    127501.27   -40256.381    2760.7747   -43017.156    37.747096   0.97954701 
   15400    221.04752      64.7283     127597.6   -40241.613    2750.2513   -42991.865    38.054222   0.97880749 
   15500    222.97472    144.64229    127743.29   -40196.571    2774.2294     -42970.8    38.261526   0.97769117 
   15600    225.93149   -162.40736    127840.68   -40112.787    2811.0172   -42923.805    38.189902    0.9769464 
   15700     221.9218   -39.094843    127649.07   -40194.673     2761.129   -42955.802    38.510239   0.97841283 
   15800    221.72359    85.538342    127613.21   -40190.824     2758.663   -42949.487    38.732507    0.9786878 
   15900    223.35767    202.38946     127798.5   -40237.441    2778.9941   -43016.435     38.99512   0.97726884 
   16000    224.98821    81.032859    127654.27   -40164.357    2799.2811   -42963.638    39.127935   0.97837304 
   16100     224.1797    150.32399    127828.69   -40093.905    2789.2217   -42883.127    39.467467   0.97703804 
   16200    220.60916    10.050183    127967.21   -40153.175    2744.7974   -42897.973    39.762177   0.97598043 
   16300    220.98415   -16.838827    127841.87     -40167.7    2749.4629   -42917.163    40.100185   0.97693732 
   16400    227.70691    124.95029    127826.84   -40062.834    2833.1069    -42895.94    40.163863   0.97705214 
   16500    231.61717   -76.748844    127717.57   -40074.286     2881.758   -42956.044    40.463886   0.97788813 
   16600      231.353   -56.167154    127855.56   -40061.525    2878.4711   -42939.996    40.795985   0.97683266 
   16700     229.4315    39.538269    127914.89    -40103.05     2854.564   -42957.614    41.033838   0.97637964 
   16800    225.72083   -10.632538    127927.92   -40101.285    2808.3962   -42909.681    41.225906   0.97628016 
   16900    226.09402    128.95459    127805.93   -40078.687    2813.0394   -42891.726    41.515733   0.97721205 
   17000    226.34315     84.84545    127879.68   -40096.589    2816.1391   -42912.728    41.657267   0.97664842 
   17100    228.21067    99.075014    128030.77   -40011.948    2839.3746   -42851.323     41.79926   0.97549587 
   17200    224.72763   -48.892785    127993.38   -40026.115    2796.0389   -42822.154    42.143477   0.97578085 
   17300    225.19165    49.406171     128104.2   -40074.442    2801.8122   -42876.255    42.500954   0.97493676 
   17400    226.55925    40.073205     128027.3   -40120.738    2818.8278   -42939.566    42.636535    0.9755223 
   17500    230.22542   -54.343817     128123.1   -40126.975    2864.4419   -42991.417    42.798841   0.97479292 
   17600    230.99648   -40.224783    128134.97    -40116.54    2874.0354   -42990.575    43.045943   0.97470265 
   17700    226.66259   -85.674404    127994.05   -40145.502    2820.1136   -42965.616    43.206351   0.97577578 
   17800    221.94808    47.420668    128046.74   -40147.089     2761.456   -42908.545    43.512456   0.97537426 
   17900    227.19523    52.912495    127928.92   -40101.747    2826.7406   -42928.487    43.776892   0.97627254 
   18000     226.7365   -35.590886    127932.12   -40041.594    2821.0331   -42862.627      43.8153   0.97624809 
   18100    228.69682    59.620412    127933.29    -40154.25    2845.4232   -42999.673    43.954613   0.97623915 
   18200    221.68014    160.87426    128016.02   -40139.337    2758.1223   -42897.459    44.117715   0.97560829 
   18300    231.67915    303.02562    128336.37    -40047.05     2882.529   -42929.579    44.347971   0.97317299 
   18400    226.74274    53.454262    128567.91   -40118.511    2821.1108   -42939.622    44.657507   0.97142039 
   18500    226.95375    94.060789    128646.42   -40087.802    2823.7361   -42911.539    44.603381   0.97082755 
   18600    222.17611    25.797976    128416.55   -40145.886    2764.2932   -42910.179     44.85975   0.97256535 
   18700    226.95348   -172.72178    128393.42   -40125.803    2823.7328   -42949.536    45.156504   0.97274056 
   18800    228.19501   -22.424667    128399.39   -40100.848    2839.1797   -42940.027    45.537342   0.97269536 
   18900      224.195   -114.82588     128322.6   -40154.518     2789.412    -42943.93    45.948262   0.97327746 
   19000    223.94822    73.109863     128359.4   -40126.087    2786.3416   -42912.428    46.271312   0.97299839 
   19100    224.16442   -77.905902    128322.53   -40178.481    2789.0315   -42967.513    46.630929   0.97327799 
   19200    226.15019    33.165109    128288.64   -40138.254    2813.7384   -42951.992     46.83653   0.97353505 
   19300    227.56072    132.13354    128361.75   -40081.457     2831.288   -42912.745    47.178702   0.97298061 
   19400    226.87704     180.0192    128420.65   -40091.429    2822.7816    -42914.21    47.478176    0.9725343 
   19500    224.86847    49.879489    128338.16   -40071.669    2797.7913   -42869.461    47.608296   0.97315945 
   19600     225.4035   -25.920141    128117.99   -40081.126     2804.448   -42885.574    47.800158   0.97483177 
   19700    226.65739   -46.996075    128028.02   -40072.668    2820.0489   -42892.717    47.972083   0.97551689 
   19800    226.50726    -75.98599    128115.47    -40113.91    2818.1809   -42932.091    48.249487   0.97485094 
   19900    226.68271    40.286118     128163.2    -40118.34    2820.3639   -42938.704    48.544587   0.97448791 
   20000    223.48207    135.97567    128175.85     -40141.4    2780.5418   -42921.942    48.815561   0.97439179 
   20100    227.47294   -216.48985    128207.27   -40111.151    2830.1958   -42941.346    48.919466   0.97415299 
   20200    228.48145    12.121526    128199.03   -40156.197    2842.7436   -42998.941    48.928616   0.97421554 
   20300    220.79577    161.58157    128053.08   -40178.888    2747.1191   -42926.007    49.057478   0.97532596 
   20400    221.70191    121.01339    128125.65   -40187.742    2758.3933   -42946.135    49.163348   0.97477354 
   20500    223.06816    129.20628     128099.3   -40167.092     2775.392   -42942.484    49.663867   0.97497405 
   20600     222.7499    63.256908    128048.75   -40194.212    2771.4323   -42965.644    49.990748    0.9753589 
   20700    225.77326    89.037409    128237.48   -40127.514    2809.0485   -42936.562    50.224918   0.97392347 
   20800    222.04868   -33.679169    128421.23   -40122.994    2762.7077   -42885.702    50.527591   0.97252997 
   20900    227.73915    -151.2604    128430.33   -40157.146     2833.508   -42990.654    50.847461   0.97246104 
   21000     221.1737   -79.320237     128243.9   -40245.255    2751.8213   -42997.077    50.848277   0.97387471 
   21100    224.20801    -93.07359    128287.74   -40271.891    2789.5739   -43061.465    50.917595   0.97354191 
   21200    220.58735     40.64312    128360.83   -40244.817     2744.526   -42989.343    51.258718   0.97298757 
   21300    223.63863    29.213878    128137.49   -40276.497    2782.4897   -43058.986    51.418647   0.97468348 
   21400    223.09128    33.933789    128106.49   -40249.854    2775.6796   -43025.534    51.764929   0.97491931 
   21500    223.78481    45.597759    128171.31   -40233.585    2784.3085   -43017.894    52.062499   0.97442625 
   21600    226.15367    1.6719869    128156.82   -40184.177    2813.7816   -42997.958    52.346577   0.97453646 
   21700    227.34605    181.31185    127920.34   -40165.537    2828.6171   -42994.154     52.41395   0.97633805 
   21800    225.81261   -127.91248    127945.08   -40156.205    2809.5382   -42965.743    52.498806   0.97614925 
   21900    226.06683    166.08172    128092.16   -40178.702    2812.7012   -42991.403    52.865496   0.97502842 
   22000    221.03906    267.23745    128255.62    -40220.76    2750.1462   -42970.906      53.0334   0.97378571 
   22100     228.7603    18.291747    128412.45   -40160.343    2846.2131   -43006.556    53.153251   0.97259642 
   22200    224.05343    150.80785    128622.32   -40197.028    2787.6507   -42984.679    53.323206   0.97100946 
   22300    223.11649     260.4105    128720.18   -40167.906    2775.9934     -42943.9    53.433324   0.97027129 
   22400    223.37932    -35.10512    128714.28     -40142.9    2779.2634   -42922.163     53.75268   0.97031573 
   22500     228.6621    25.558812    128769.64   -40160.915    2844.9912   -43005.906    54.097484    0.9698986 
   22600    226.51213   -27.731545    128775.04   -40125.312    2818.2415   -42943.553     54.50259   0.96985788 
   22700    228.29382   -88.726182    128603.43   -40139.884    2840.4091   -42980.293    54.700638   0.97115209 
   22800    227.56669   -21.914451     128613.7    -40124.41    2831.3623   -42955.773    54.958924   0.97107459 
   22900    219.05276    121.46712    128691.63   -40170.284    2725.4327   -42895.717    55.162014    0.9704865 
   23000    226.64826   -136.20306    128426.97   -40161.737    2819.9353   -42981.672    55.259454   0.97248647 
   23100    223.46412   -11.534312    128486.85   -40267.855    2780.3185   -43048.174    55.344642   0.97203323 
   23200    224.00195    285.09242    128648.64   -40229.511    2787.0101   -43016.521    55.810873   0.97081083 
   23300    220.86175   -56.666617    128506.89   -40269.595      2747.94   -43017.535    55.827227    0.9718817 
   23400    230.48819    106.30856    128648.62    -40206.88    2867.7113   -43074.591    56.025095   0.97081094 
   23500    228.55303   -73.037928     128666.3   -40258.177    2843.6342   -43101.811    56.311302   0.97067754 
   23600    223.14652    116.70778    128769.22   -40240.033     2776.367     -43016.4    56.612514   0.96990174 
   23700    226.58042    80.495364    128991.46   -40284.742    2819.0912   -43103.833    56.358024   0.96823072 
   23800    221.83596    126.37766    129150.78   -40346.335    2760.0611   -43106.396    56.587099   0.96703625 
   23900    222.97498   -8.6463908    129024.07   -40363.042    2774.2327   -43137.274    56.844662   0.96798595 
   24000    226.88637   -144.55517    128997.49   -40298.052    2822.8977   -43120.949    57.230486   0.96818541 
   24100    229.73995   -29.621893     128777.4   -40306.157    2858.4018   -43164.559    57.393656   0.96984014 
   24200    221.63973   -44.286371    128458.37    -40366.65    2757.6196   -43124.269    57.529569   0.97224873 
   24300    223.01541       52.621    128288.68    -40309.73    2774.7357   -43084.466    57.575297   0.97353477 
   24400    223.81603     200.1766    128450.74   -40336.694    2784.6969   -43121.391    57.649421   0.97230653 
   24500    226.35501   -122.22619    128300.29   -40296.232    2816.2866   -43112.518    57.930754   0.97344666 
   24600    224.46761    114.58192     128416.7   -40280.119    2792.8038   -43072.923    58.315097   0.97256424 
   24700    221.59795     370.2856    128454.55   -40295.448    2757.0998   -43052.548    58.448211   0.97227769 
   24800    219.84803    66.228375    128694.08   -40283.771    2735.3275   -43019.099    59.192085   0.97046806 
   24900    229.16788    -148.6065    128651.86   -40229.107    2851.2841   -43080.391    59.448556   0.97078649 
   25000    225.81904    268.84834    128891.58   -40202.135    2809.6182   -43011.753    59.779262   0.96898101 
   25100    223.05782   -49.456217     128932.2   -40199.069    2775.2634   -42974.332    59.851335   0.96867575 
   25200    224.80514    89.715853    128946.88   -40225.262    2797.0033   -43022.265    60.066535   0.96856541 
   25300    222.11692   -13.113253    128944.77   -40237.558    2763.5568   -43001.115    60.348648   0.96858129 
   25400    224.97359   -172.11644    129149.83   -40222.156    2799.0992   -43021.255    60.497911   0.96704342 
   25500    227.23329    32.765569    129254.28   -40186.651    2827.2142   -43013.865    60.828507   0.96626192 
   25600    226.60767    175.95424    128999.39   -40271.474    2819.4303   -43090.905    61.065718   0.96817115 
   25700    222.22935    39.854021    128944.61   -40284.786    2764.9556   -43049.741     61.20164    0.9685825 
   25800    224.07571    -78.26545    128878.77   -40269.631    2787.9279   -43057.559    61.068921   0.96907728 
   25900    221.78321    48.934633    128938.53   -40225.204    2759.4047   -42984.608    61.205251   0.96862818 
   26000    226.99375    105.07245    128929.02   -40152.049    2824.2338   -42976.283    61.543793   0.96869957 
   26100    224.98736    122.36681    128864.62   -40230.966    2799.2705   -43030.236    61.839125    0.9691837 
   26200    226.60507    19.734637    128547.18    -40225.82    2819.3979   -43045.218     61.48877   0.97157709 
   26300    228.29866    68.074288    128720.88   -40210.911    2840.4694    -43051.38     62.00823   0.97026599 
   26400    227.21805   -112.13875    128630.76   -40191.886    2827.0245    -43018.91    62.133299   0.97094575 
   26500    226.35529    99.328133    128670.47   -40227.656    2816.2902   -43043.946     62.48187   0.97064614 
   26600    226.02683    105.54684    128752.13   -40284.475    2812.2035   -43096.679    63.036589   0.97003051 
   26700    220.32728    107.88375    128859.24   -40317.706    2741.2903   -43058.996     63.18948   0.96922421 
   26800    226.92126    88.559931     128750.2   -40244.251    2823.3319   -43067.583    63.179029   0.97004506 
   26900     226.5596    209.51334    128909.39   -40254.648    2818.8321    -43073.48    63.288496   0.96884711 
   27000    226.33609    74.642763    128969.89   -40304.487    2816.0513   -43120.538    63.471939   0.96839264 
   27100    227.06572    7.9559216    128978.67   -40304.549    2825.1293   -43129.678    63.486288    0.9683267 
   27200    218.51995    168.36537    128807.73   -40322.206    2718.8036    -43041.01    63.756891   0.96961177 
   27300    222.52898    147.83387    128871.32   -40348.604    2768.6835   -43117.288    64.110602   0.96913336 
   27400    225.03409    -17.66569    128984.57   -40291.774    2799.8519   -43091.626    64.205813   0.96828241 
   27500    224.86674    67.062523    129018.94   -40217.728    2797.7697   -43015.497    64.372763   0.96802449 
   27600    224.37826   -42.080369    128872.12   -40238.516    2791.6921   -43030.208    64.639588   0.96912732 
   27700    230.30922    94.196948    128967.49   -40235.389    2865.4846   -43100.873     64.69534   0.96841066 
   27800    228.90371    166.68697     129129.3   -40163.157    2847.9973   -43011.155    64.958611   0.96719712 
   27900    226.02002    125.74754    129095.48   -40189.123    2812.1187   -43001.242    65.513566   0.96745054 
   28000    225.12722    228.88426    129170.35   -40224.676    2801.0106   -43025.686    65.611274   0.96688975 
   28100    223.27572   -39.021101    128980.58   -40212.942    2777.9744   -42990.916    65.729147   0.96831235 
   28200    226.54524    123.67751    128885.71   -40258.669    2818.6535   -43077.322    65.942046   0.96902514 
   28300    223.91094    129.03724    128863.46   -40257.495    2785.8778   -43043.373    65.915322   0.96919241 
   28400    223.09289    123.54092    128824.64   -40290.432    2775.6997   -43066.132    66.258227   0.96948448 
   28500    220.89831   -28.438026    128538.16   -40307.395    2748.3949   -43055.789     66.79491   0.97164525 
   28600    224.42483    114.44033    128530.36    -40257.73    2792.2715   -43050.002    66.801608   0.97170417 
   28700    225.29264    217.38069    128573.87   -40271.364    2803.0688   -43074.433    67.184537   0.97137536 
   28800    224.83739    191.92479    128645.78   -40248.735    2797.4045    -43046.14    67.467115   0.97083239 
   28900    227.69814    -99.38216    128844.71   -40204.335    2832.9978   -43037.332    67.611861   0.96933346 
   29000    222.94406    70.036768    128971.64   -40291.457    2773.8479   -43065.305    67.706639   0.96837952 
   29100    223.47324     55.58828    128862.47   -40248.543     2780.432   -43028.975    68.087882   0.96919988 
   29200    228.95386   -39.465351    128858.21    -40219.43    2848.6213   -43068.052     68.20036   0.96923189 
   29300    225.21076   -55.403832    128684.33   -40291.028      2802.05   -43093.078    68.301944   0.97054159 
   29400    222.77369    234.40186    128555.52   -40340.008    2771.7282   -43111.736     68.46547   0.97151402 
   29500    223.92729    130.93188    128588.78   -40369.927    2786.0813   -43156.008    68.674231   0.97126275 
   29600    224.34252    38.432539     128773.6   -40285.146    2791.2475   -43076.393    69.262429   0.96986876 
   29700    219.32137   -99.603197    128755.75   -40335.486    2728.7747   -43064.261    69.781769   0.97000323 
   29800    225.93299     19.55999    128853.84   -40324.982    2811.0359   -43136.018    69.962982   0.96926476 
   29900     224.2161    30.127851    128941.46   -40355.852    2789.6746   -43145.527    70.207367   0.96860612 
   30000    220.58614    41.354861    128817.96   -40321.938    2744.5109   -43066.448    70.303152   0.96953473 
   30100    225.41955    167.24006    128822.35   -40305.658    2804.6478   -43110.306    70.348639   0.96950174 
   30200    220.57726   -238.11081    128859.62   -40309.022    2744.4005   -43053.423    70.748279   0.96922133 
   30300    226.33798    46.132368    128637.16   -40256.283    2816.0748   -43072.358    70.925126   0.97089748 
   30400    226.45712    38.394391    128648.03   -40222.467    2817.5571   -43040.024    71.315972    0.9708154 
   30500    227.48181     92.28117    128625.22   -40234.579    2830.3062   -43064.886    71.633856   0.97098758 
   30600    226.31154   -40.833402    128571.11   -40227.782    2815.7458   -43043.528    71.494757   0.97139623 
   30700    221.68763    50.129838    128407.97   -40242.985    2758.2156     -43001.2    71.721619   0.97263039 
   30800    226.01483   -63.419084     128626.6   -40181.467    2812.0542   -42993.521    71.734938   0.97097714 
   30900     222.7967   -186.27701    128526.91   -40311.825    2772.0145    -43083.84    71.910394   0.97173032 
   31000    222.10945   -38.737572    128508.26   -40355.536    2763.4639       -43119    71.989754    0.9718713 
   31100    222.22245    54.497957    128519.57   -40356.841    2764.8698   -43121.711    72.291242   0.97178578 
   31200    220.17308    125.64191    128627.57   -40364.524    2739.3717   -43103.896    72.711796   0.97096984 
   31300    226.11178    226.47226    128784.44   -40321.296    2813.2604   -43134.557     72.66543   0.96978713 
   31400    222.15507    110.87037    128919.71   -40281.609    2764.0315   -43045.641     72.84191   0.96876953 
   31500    220.24881    90.954066    129018.18   -40322.347    2740.3139   -43062.661    73.113072   0.96803017 
   31600    222.67235   -23.688796    128737.02   -40256.014    2770.4674   -43026.481    73.476534   0.97014434 
   31700    225.09914    168.56184    128807.36   -40288.796    2800.6613   -43089.457    73.423243   0.96961459 
   31800    225.37908   -2.6109054    128673.94   -40228.182    2804.1442   -43032.326    73.460468   0.97061991 
   31900    228.34076    84.145665     128715.2   -40206.479    2840.9932   -43047.472    73.754362   0.97030878 
   32000    228.05392   -97.515216    128795.67   -40213.989    2837.4244   -43051.413    73.865817   0.96970258 
   32100    228.79566  -0.31308467    128890.32   -40224.657     2846.653    -43071.31    74.203739   0.96899047 
   32200    229.01448    138.31337    128767.88   -40239.395    2849.3755    -43088.77    74.412417   0.96991183 
   32300     230.0791    57.218049    128819.34   -40220.854    2862.6214   -43083.475     74.70845    0.9695244 
   32400    227.95848   -47.471471    128812.46    -40300.88    2836.2369   -43137.117    75.013059   0.96957618 
   32500    219.27021   -44.421687    128676.91   -40323.555    2728.1383   -43051.693    75.087444   0.97059752 
   32600    224.27623    188.20431    128657.93   -40256.422    2790.4227   -43046.845    75.322666   0.97074068 
   32700    222.94495   -2.1497702     128927.3   -40314.164    2773.8591   -43088.024    75.724619   0.96871253 
   32800    223.53802    47.297466     128811.3   -40353.802     2781.238    -43135.04    76.093451   0.96958492 
   32900    225.63215    115.21532    129274.94   -40351.697    2807.2929    -43158.99    76.451235   0.96610749 
   33000    226.82332   -105.12942    128969.41   -40408.702    2822.1133   -43230.815    76.349977   0.96839621 
   33100    222.58865    -80.49948    128887.53   -40335.394     2769.426    -43104.82    76.659142   0.96901143 
   33200    220.43998    25.612399    128915.62   -40373.451    2742.6924   -43116.143    76.957799   0.96880031 
   33300    227.16179   -150.28834    128933.27   -40317.794    2826.3245   -43144.118    77.056608   0.96866768 
   33400    222.78495   -54.671458    128960.14   -40381.437    2771.8683   -43153.306    77.505268   0.96846583 
   33500    224.99224   -78.412035    128972.74   -40345.613    2799.3312   -43144.945    77.655169   0.96837121 
   33600    226.10841    -106.3209    128993.21   -40319.027    2813.2185   -43132.246    77.737269   0.96821757 
   33700    225.23855    75.644091    129064.79   -40298.191    2802.3958   -43100.587    77.788529   0.96768055 
   33800    225.24513    66.000232    128971.26   -40281.937    2802.4776   -43084.414    77.966412   0.96838232 
   33900    227.22334    -79.67798    128850.26   -40282.103    2827.0904   -43109.193    77.911467   0.96929176 
   34000    230.29545    138.39203    128847.12   -40256.146    2865.3133   -43121.459    77.823365   0.96931532 
   34100    224.93944    24.739344    128896.24   -40290.197    2798.6743   -43088.872    78.028761   0.96894593 
   34200    222.93796    138.52557    128793.68   -40278.245    2773.7721   -43052.017    78.317361   0.96971751 
   34300    220.11619    115.16292    128773.98   -40324.939    2738.6639   -43063.603    78.641757   0.96986591 
   34400    225.91508    48.453422    128811.49   -40259.587    2810.8131     -43070.4    78.770504   0.96958349 
   34500    223.20719    12.609183     128744.7   -40271.192    2777.1217   -43048.314    79.206895   0.97008646 
   34600     224.6579    92.924141     128732.9   -40260.183    2795.1713   -43055.354    79.334038   0.97017537 
   34700    223.63368     116.1855    128562.03   -40354.289    2782.4281   -43136.717    79.403323   0.97146481 
   34800    223.97514   -6.4713481    128492.37   -40338.927    2786.6766   -43125.604    79.279084   0.97199153 
   34900    220.98749    118.33651    128591.79   -40340.029    2749.5045   -43089.534    79.325702   0.97123998 
   35000    219.41963    22.968475    128339.24   -40384.522    2729.9973    -43114.52    79.209235   0.97315121 
   35100     217.3776    34.608156     128405.2   -40281.726    2704.5906   -42986.316    79.425984   0.97265137 
   35200    224.84361   -36.271158    128440.43   -40273.174     2797.482   -43070.656    79.755277   0.97238456 
   35300    222.66671    318.20767    128280.94   -40252.521    2770.3972   -43022.919    79.944207   0.97359353 
   35400    223.72439    116.78029    128299.41   -40274.791    2783.5567   -43058.348    79.955188   0.97345339 
   35500     224.1332    83.917388     128351.7   -40169.716    2788.6431   -42958.359    79.812951    0.9730568 
   35600    223.38582   -176.29992    128170.77   -40225.412    2779.3443   -43004.756    80.078078   0.97443037 
   35700    225.77617   -16.828129    128069.31   -40191.574    2809.0848   -43000.659    80.422983   0.97520238 
   35800    220.96727    27.070322    128034.88   -40231.766    2749.2529   -42981.019    80.721943    0.9754646 
   35900    227.38127   -79.465495    127946.91   -40191.784    2829.0552   -43020.839     81.04281   0.97613528 
   36000    224.88581    100.87975    128063.33   -40147.975    2798.0071   -42945.982    81.384412    0.9752479 
   36100    227.32263    25.460404    128107.74   -40177.959    2828.3257   -43006.285    81.801032   0.97490977 
   36200    226.33639    74.802968    128093.97   -40212.886     2816.055   -43028.941    81.896422   0.97501464 
   36300    225.99907    40.047124    128230.39   -40280.896    2811.8581   -43092.754     82.11824   0.97397734 
   36400    227.60977    118.17519    128040.47    -40225.52    2831.8983   -43057.418    82.424606   0.97542198 
   36500    222.70228    11.420002    128213.09   -40214.851    2770.8397    -42985.69    82.961716   0.97410871 
   36600    219.41228    37.764735    128107.74   -40334.979    2729.9059   -43064.885    82.797217   0.97490982 
   36700    222.23523    50.894363    128332.39   -40271.311    2765.0287    -43036.34    83.363382   0.97320317 
   36800     226.1829   -34.180538    128461.17   -40268.182    2814.1453   -43082.327    83.582788   0.97222756 
   36900    222.93989    185.21949    128462.02   -40300.278    2773.7961   -43074.075    83.650976    0.9722211 
   37000    228.52238    79.148404    128364.23   -40234.501    2843.2528   -43077.754    84.161034   0.97296179 
   37100    227.23722    129.16009    128402.29    -40208.95     2827.263   -43036.213    84.388959   0.97267339 
   37200    223.56004   -70.321899    128441.53   -40281.146    2781.5119   -43062.658     84.46307   0.97237621 
   37300     225.9766    32.394916    128337.64   -40290.449    2811.5785   -43102.028    84.308527   0.97316339 
   37400    226.24668    66.864211    128433.95    -40322.78    2814.9388   -43137.719    84.359738   0.97243359 
   37500    219.60929    70.214528    128326.87   -40336.246    2732.3571   -43068.603    84.584953   0.97324502 
   37600    221.10157    128.66921    128400.58   -40281.788    2750.9239   -43032.712    84.585665   0.97268634 
   37700    223.14318   -46.245958    128315.21   -40282.123    2776.3254   -43058.449    84.602532   0.97333345 
   37800    222.66209    74.382562    128252.07   -40374.243    2770.3397   -43144.583      84.7122   0.97381268 
   37900    219.12133    74.369603    128179.59   -40340.411    2726.2859   -43066.697    84.926176   0.97436336 
   38000     219.8076   -37.190664    127989.69   -40326.312    2734.8244   -43061.136    85.286824   0.97580899 
   38100    223.59039    32.851465    127926.22   -40277.046    2781.8896   -43058.935    85.791064   0.97629312 
   38200    223.26274    145.54388    128285.98   -40283.722    2777.8129   -43061.535    86.266386   0.97355528 
   38300    226.13714    60.723439    128436.98   -40211.284     2813.576    -43024.86    86.665245   0.97241066 
   38400    226.82974    109.43963    128208.08   -40270.742    2822.1933   -43092.936    87.012171   0.97414681 
   38500    221.62762   -32.834481    128216.86   -40283.272     2757.469   -43040.741     87.00222   0.97408008 
   38600    225.81983    79.161068    128276.11   -40220.213    2809.6281   -43029.841    86.994413    0.9736302 
   38700    223.02927    9.2805406    128392.11   -40222.021    2774.9081    -42996.93    86.969782   0.97275048 
   38800    226.02182   -29.130311    128492.92   -40253.458    2812.1412   -43065.599    86.994293   0.97198733 
   38900    227.69938   -95.534425    128488.31   -40208.199    2833.0131   -43041.212     87.42245   0.97202223 
   39000     222.5478    7.5776844    128446.26   -40265.719    2768.9177   -43034.637    87.422879   0.97234041 
   39100    225.94573    47.190621    128347.89   -40238.378    2811.1945   -43049.573    87.341363   0.97308566 
   39200    225.66069    253.02018    128309.86   -40264.509     2807.648   -43072.157    87.703448   0.97337411 
   39300    222.66064    194.50255    128287.89   -40252.504    2770.3217   -43022.825    87.395568    0.9735408 
   39400    223.53684     75.44855    128359.16   -40213.147    2781.2233    -42994.37    87.576031   0.97300025 
   39500    226.19185   -33.783679    128541.61   -40187.932    2814.2566   -43002.189    88.009721   0.97161917 
   39600    224.57807    87.237748    128758.73   -40238.194    2794.1781   -43032.372    88.475357   0.96998079 
   39700    225.91046    80.641293     128904.5   -40175.368    2810.7557   -42986.124    88.720099   0.96888384 
   39800     224.1268    72.940619    128881.49   -40245.335    2788.5635   -43033.898     88.76746   0.96905683 
   39900    222.97264    77.061183    128788.19   -40283.056    2774.2035   -43057.259     88.60782   0.96975886 
   40000    225.24035    -54.81332     129051.7   -40326.726    2802.4182   -43129.144    88.865429   0.96777875 
   40100    228.77281    33.376769    129172.79   -40249.448    2846.3687   -43095.817    89.464386   0.96687153 
   40200    226.93834   -9.6184989    128916.72   -40288.722    2823.5444   -43112.267    89.708025   0.96879206 
   40300    226.65438    175.33237    128999.52   -40278.315    2820.0114   -43098.327    90.006272   0.96817022 
   40400    229.24431   -64.892002    129271.39   -40193.676    2852.2351   -43045.912    90.545355   0.96613405 
   40500    227.94382    47.705095    129258.64   -40215.832    2836.0545   -43051.886    90.877154   0.96622938 
   40600    230.36723    149.04192    129369.25   -40277.344    2866.2063   -43143.551    90.989796   0.96540324 
   40700    227.80791    138.42422    129339.67   -40338.877    2834.3634    -43173.24    90.979267   0.96562399 
   40800    223.40731    12.251505       129105   -40384.458    2779.6117    -43164.07    90.974576   0.96737917 
   40900    221.64155   -66.677491    129137.13   -40404.967    2757.6423   -43162.609    90.838673   0.96713854 
   41000    224.40246    11.541245    128848.78   -40321.789    2791.9933   -43113.783    90.788358   0.96930289 
   41100    223.67029    233.69095     128890.2   -40279.118    2782.8837   -43062.001    90.690069   0.96899139 
   41200    221.81029    92.284033    128902.04   -40282.991    2759.7416   -43042.733    90.965809   0.96890236 
   41300    221.25458   -81.246403    128766.04    -40422.73    2752.8277   -43175.557    90.999942   0.96992568 
   41400    220.01471    101.92031    128802.16   -40351.461    2737.4013   -43088.862    91.343875   0.96965372 
   41500    226.99267    75.029151     128790.6   -40353.196    2824.2204   -43177.417    92.033291   0.96974076 
   41600    220.62135    9.8116041    128626.43   -40321.486     2744.949   -43066.435    91.964616   0.97097847 
   41700    224.42946   -109.50388    128550.56   -40287.674    2792.3291   -43080.003    92.099366   0.97155152 
   41800    227.05902    250.61414    128587.44   -40305.765    2825.0459   -43130.811    92.161501   0.97127283 
   41900    222.94537     14.87745     128550.7    -40271.91    2773.8643   -43045.775    92.221398   0.97155044 
   42000    226.16803    217.00353     128848.1   -40264.572    2813.9603   -43078.533    92.539166   0.96930801 
   42100    226.92773   -13.165071    128853.34   -40281.922    2823.4123   -43105.334    93.006523   0.96926856 
   42200    223.94716    102.95899    129133.96   -40245.416    2786.3284   -43031.744    93.571591   0.96716226 
   42300    227.40447   -20.496272    129248.16   -40226.179    2829.3439   -43055.523    93.762876   0.96630767 
   42400    225.36524   -173.42849    128865.38   -40263.455     2803.972   -43067.427    93.868238     0.969178 
   42500    230.18001    190.65837     128722.8   -40272.731    2863.8769   -43136.608    94.212121   0.97025153 
   42600     225.2172    99.121858    128717.75   -40279.082    2802.1301   -43081.212    94.420161    0.9702896 
   42700     225.2953    5.7423349    128775.67    -40299.29    2803.1018   -43102.392    94.361819   0.96985314 
   42800    225.97969    28.280333    128699.12    -40242.49     2811.617   -43054.107    94.520055      0.97043 
   42900    225.90444    171.75614    128859.16   -40322.833    2810.6808   -43133.513    94.413275    0.9692248 
   43000    223.13613   -80.254485    128626.02   -40343.334    2776.2377   -43119.572    94.568214   0.97098156 
   43100    222.80378    99.587562    128547.19   -40313.388    2772.1026   -43085.491    94.815287   0.97157702 
   43200    225.88991    101.86368     128719.6   -40272.516    2810.4999   -43083.016     94.73557   0.97027565 
   43300    225.40113    40.125492    128916.41   -40286.143    2804.4186   -43090.561     95.00121   0.96879433 
   43400    227.24016    72.060056    128725.43   -40252.685    2827.2996   -43079.985    95.332352   0.97023166 
   43500     224.0749    78.217877    128641.09   -40258.191    2787.9178   -43046.109    95.721974   0.97086777 
   43600    230.90163   -68.696032    128746.98   -40143.464    2872.8552    -43016.32    95.975937    0.9700693 
   43700    229.19492    218.02411    128773.92   -40157.262    2851.6205   -43008.882    96.357648   0.96986635 
   43800    226.38122    43.102471    128747.13    -40144.53    2816.6128   -42961.142    96.695229   0.97006813 
   43900    226.91858    100.19764    128802.56   -40187.237    2823.2986   -43010.536    96.470709   0.96965072 
   44000    221.79315   -81.549543    128677.03   -40229.061    2759.5284   -42988.589    96.697924   0.97059662 
   44100    225.17144    81.846142    128609.88   -40252.379    2801.5607    -43053.94    96.813848   0.97110338 
   44200     224.2082   -72.129428    128667.33   -40294.507    2789.5762   -43084.083    97.057182   0.97066977 
   44300    222.24423   -65.438229    128676.74   -40302.879    2765.1408    -43068.02    97.317462   0.97059881 
   44400    226.47732   -27.878365    128665.57   -40249.648    2817.8084   -43067.456    97.679959   0.97068306 
   44500    224.52394    176.35855    128619.03   -40272.935    2793.5047    -43066.44     98.08071    0.9710343 
   44600    215.53503     3.992968    128609.14   -40341.234    2681.6656   -43022.899    98.070916   0.97110901 
   44700    221.37994    28.742177    128406.15   -40314.652    2754.3874    -43069.04    98.052822   0.97264416 
   44800     224.6684     76.03503    128347.76    -40273.72    2795.3021   -43069.022    98.152892   0.97308663 
   44900    224.03716     22.27223    128522.86   -40223.661    2787.4481   -43011.109    98.652355   0.97176095 
   45000    224.78092    45.699042    128468.54   -40220.308    2796.7019    -43017.01     99.30116   0.97217178 
   45100    224.21184   -26.696101    128527.53   -40153.528    2789.6215    -42943.15    99.553221   0.97172559 
   45200    226.05371    65.350764    128679.95   -40194.315     2812.538   -43006.853    99.872346    0.9705746 
   45300    221.97588    43.197472    128832.68   -40224.903     2761.802   -42986.705     100.0919   0.96942403 
   45400    226.29112    238.27714    128891.46     -40214.3    2815.4917   -43029.792    100.21613   0.96898187 
   45500    227.22684    97.677553    128913.59   -40238.629    2827.1339   -43065.763    100.43391   0.96881554 
   45600    226.39806   -22.358616     128713.1   -40248.609    2816.8222   -43065.431    100.47053   0.97032465 
   45700     222.4966    31.247378    128555.86    -40270.69    2768.2807    -43038.97    100.55238   0.97151147 
   45800    228.69714    63.901534    128778.98   -40226.849    2845.4273   -43072.276    101.36398    0.9698282 
   45900    231.33789    146.92242     128839.8   -40169.543    2878.2832   -43047.826    101.61073   0.96937043 
   46000    226.94831    42.535001    128729.84   -40163.562    2823.6685    -42987.23      101.882   0.97019846 
   46100    232.57497     80.16624    128966.58   -40115.274    2893.6747   -43008.949    102.11307   0.96841752 
   46200    227.60251   -134.55487    128850.59   -40121.057    2831.8079   -42952.865     102.1951   0.96928926 
   46300     228.7152    141.31257    128736.47   -40143.819    2845.6519   -42989.471    102.22149   0.97014846 
   46400    222.84798    1.4819196    128519.04   -40156.069    2772.6525   -42928.721    102.60868   0.97178981 
   46500    227.96545   -11.824428    128692.34   -40164.297    2836.3236   -43000.621    103.26962   0.97048119 
   46600    230.83911    158.73744    128597.43   -40163.109    2872.0773   -43035.187    103.53855   0.97119739 
   46700    224.13251    114.08407    128504.22   -40252.931    2788.6345   -43041.565    103.93037   0.97190188 
   46800    221.14448    -16.86613    128558.14   -40295.668    2751.4577   -43047.126    104.34133    0.9714942 
   46900    224.22628    64.391942    128437.61   -40203.916    2789.8012   -42993.717    104.67141   0.97240588 
   47000    227.69932   -33.086321    128579.56    -40189.16    2833.0124   -43022.173    104.64362   0.97133237 
   47100     227.8631    201.23942    128478.99   -40149.833    2835.0502   -42984.883    104.61152   0.97209272 
   47200    228.17195   -45.832463    128518.18   -40208.144    2838.8929   -43047.036       104.54   0.97179631 
   47300    225.88168   -38.668459    128536.72   -40241.249    2810.3975   -43051.647    104.65754   0.97165615 
   47400     229.3627    11.022302    128662.17   -40201.559    2853.7081   -43055.267    104.73378   0.97070873 
   47500     227.9251    191.84127    128596.81   -40143.396    2835.8215   -42979.218    105.22896   0.97120213 
   47600    229.04268    74.823073    128699.03   -40095.696    2849.7264   -42945.423    105.24962   0.97043069 
   47700    226.47212    5.2908328    128596.91   -40136.181    2817.7437   -42953.924     105.2968   0.97120137 
   47800    225.57713    66.543183    128488.93   -40138.732    2806.6083    -42945.34    105.41285   0.97201754 
   47900    224.32777   -37.800303    128529.21   -40221.571    2791.0639   -43012.635    105.53715   0.97171293 
   48000    226.82493   -9.9235946    128596.66   -40239.644    2822.1333   -43061.777    106.00443   0.97120322 
   48100    225.46568    103.36759    128727.56    -40203.79    2805.2217   -43009.012    106.16487   0.97021564 
   48200    226.56104   -36.727239    128705.45   -40234.838    2818.8501   -43053.688    106.38224   0.97038232 
   48300    225.61579   -127.12691    128634.14   -40227.999    2807.0894   -43035.088    106.80144   0.97092022 
   48400    228.23925   -31.691789    128431.69   -40156.701    2839.7302   -42996.432    106.87353   0.97245072 
   48500    226.07372    85.743799    128658.44   -40224.552    2812.7869   -43037.339    107.17437   0.97073685 
   48600    224.33492   -17.636682    128623.15   -40232.845    2791.1529   -43023.997    107.26432   0.97100324 
   48700    226.46466   -72.387871    128563.82   -40217.584    2817.6509   -43035.235    107.53612   0.97145131 
   48800     227.4841   -22.262094    128369.47   -40262.677    2830.3347   -43093.011    107.85793   0.97292208 
   48900     225.9657     130.4179    128310.48   -40257.872    2811.4429   -43069.315    107.60509   0.97336936 
   49000    226.44231     26.59105    128125.92   -40301.693    2817.3729   -43119.066    107.22582   0.97477147 
   49100    225.50947    36.835665    128105.92   -40301.002    2805.7665   -43106.768    107.46027   0.97492367 
   49200    227.38389    234.65414    128238.71   -40317.696    2829.0879   -43146.783    107.85173   0.97391413 
   49300    226.50692    126.94852    128381.13   -40249.212    2818.1767   -43067.389    108.26558   0.97283371 
   49400    226.88942   -81.725057    128210.29   -40226.672    2822.9357   -43049.608     108.4717   0.97413001 
   49500    228.93386     169.2542    128588.01   -40225.847    2848.3724   -43074.219     108.9378   0.97126854 
   49600     226.4546    134.02921    128566.32   -40234.589    2817.5257   -43052.115    109.13297   0.97143241 
   49700    224.17187     87.40601     128514.2     -40256.1    2789.1242   -43045.225    109.33708   0.97182639 
   49800    220.09378     87.09746    128571.27   -40308.762     2738.385   -43047.147    109.34009   0.97139499 
   49900    230.30799    46.326244    128671.27   -40199.307    2865.4692   -43064.776    109.24963   0.97064008 
   50000      223.936    25.896246    128425.17   -40220.148    2786.1895   -43006.338    109.38124   0.97250014 
   50100    223.92257    109.46142    128319.48   -40218.359    2786.0224   -43004.382    109.14053   0.97330113 
   50200    224.75716    60.397411     128128.1   -40239.008    2796.4063   -43035.414    109.09727   0.97475492 
   50300    226.18693    101.87354    127955.62   -40201.442    2814.1955   -43015.638     109.0775   0.97606884 
   50400    224.45639    316.33113    127940.21   -40214.965    2792.6642   -43007.629    109.27115   0.97618637 
   50500    225.23543   -121.61233    128145.09   -40255.402     2802.357   -43057.759    109.55042   0.97462563 
   50600       225.14  -0.53284736    128037.92   -40277.619    2801.1696   -43078.789    109.51883   0.97544143 
   50700    222.92511   -45.069396    127979.38   -40268.649    2773.6122   -43042.261    109.51174    0.9758876 
   50800    222.13058    -21.88299    127936.77   -40254.647    2763.7267   -43018.374    109.57935    0.9762126 
   50900    228.43142    193.73542    127869.44   -40161.573    2842.1211   -43003.695    109.82672   0.97672668 
   51000    226.77953   -24.937875    128018.33   -40195.291    2821.5685    -43016.86     110.1517   0.97559066 
   51100    226.49557   -58.300267    127856.19   -40228.476    2818.0354   -43046.512     110.3916    0.9768279 
   51200    220.97472    138.33264    127874.11   -40213.496    2749.3456   -42962.842    110.65086   0.97669101 
   51300    221.12769   -40.698039    127772.87   -40274.251    2751.2489     -43025.5    110.96556   0.97746483 
   51400    217.72722     134.1153    127712.57   -40276.213    2708.9405   -42985.153    110.93309   0.97792636 
   51500    220.92115    128.57143     127915.3   -40286.415    2748.6792   -43035.094    111.48707   0.97637648 
   51600    227.69647    50.975899    127893.42   -40230.859     2832.977   -43063.836    111.56677   0.97654352 
   51700    226.91128    14.946016    127711.33   -40203.915    2823.2077   -43027.123    111.76205   0.97793585 
   51800    222.75194    35.638735     127551.4   -40234.602    2771.4576   -43006.059    111.90372   0.97916203 
   51900    223.35782    61.578165    127629.35   -40268.171    2778.9959   -43047.167    111.91068   0.97856403 
   52000    220.97937    92.728478    127544.67   -40288.009    2749.4034   -43037.412    112.38437   0.97921373 
   52100     222.5223    79.961363    127721.55   -40225.341    2768.6005   -42993.941    112.81044   0.97785761 
   52200    221.52696    169.35885    127830.36   -40232.811    2756.2165   -42989.027    113.25754    0.9770253 
   52300    224.02813    296.02607    128105.02   -40210.278    2787.3359   -42997.614    113.63388   0.97493053 
   52400    225.61519    108.17835    128086.45   -40188.297    2807.0819   -42995.379    113.59185   0.97507186 
   52500    227.82424    61.421469    128284.85   -40186.638    2834.5666   -43021.205    113.75595   0.97356387 
   52600    225.78276    76.624179       128317   -40209.488    2809.1667   -43018.655    113.95428   0.97331994 
   52700    222.04404    75.634877    128163.03    -40241.05      2762.65     -43003.7    114.46792    0.9744892 
   52800    227.11659    8.7616167    128273.71   -40208.706    2825.7621   -43034.468    114.85056   0.97364839 
   52900    222.65389    57.139819    128534.86   -40209.803    2770.2377   -42980.041    115.13509   0.97167017 
   53000    222.47881    150.41523    128820.41   -40200.091    2768.0593    -42968.15     115.5631   0.96951634 
   53100    223.09195    179.12515    128875.46   -40241.518    2775.6879   -43017.206    115.36703   0.96910217 
   53200    225.86253    30.979458    128963.78   -40235.482    2810.1593   -43045.641    115.84373    0.9684385 
   53300    223.56914    190.51974    128958.59     -40243.2    2781.6252   -43024.826     115.9246   0.96847748 
   53400    225.85848   -106.54688    129035.06   -40341.214    2810.1089   -43151.323    116.53475   0.96790352 
   53500    223.32894    36.107859    128912.79   -40350.932    2778.6366   -43129.569     116.6858   0.96882154 
   53600     224.6206   -12.494306    129025.68   -40349.164    2794.7073   -43143.872    116.81174   0.96797389 
   53700    221.64097    142.47402    129045.41   -40391.113    2757.6351   -43148.748    116.88312   0.96782591 
   53800    222.66738   -32.096578     128903.8   -40268.926    2770.4055   -43039.331    116.78112   0.96888915 
   53900    222.20187   -91.960396    128671.86   -40323.522    2764.6137   -43088.136    117.02962   0.97063565 
   54000    229.47644    53.591466    128730.51   -40292.988    2855.1232   -43148.112    117.42472    0.9701934 
   54100    226.23803    172.29936    128911.09   -40311.909    2814.8312    -43126.74    117.65156   0.96883431 
   54200     223.0258     48.51614    129008.19   -40301.189     2774.865   -43076.054    117.91225   0.96810515 
   54300    225.50066    131.04129    128837.96    -40283.88     2805.657   -43089.537    117.88936   0.96938427 
   54400    228.04571   -18.600274    128907.25   -40319.316    2837.3222   -43156.638    117.84265   0.96886324 
   54500    226.87358    221.31964    129043.07    -40313.76    2822.7387   -43136.499    118.19417   0.96784346 
   54600    226.73482    152.68768    129041.66   -40223.926    2821.0122   -43044.938    118.28133   0.96785407 
   54700    225.53948   -7.0189883    128721.25   -40246.866    2806.1399   -43053.005    118.20204   0.97026317 
   54800    226.26672    107.66039    128565.83   -40315.503    2815.1881   -43130.691    118.14114   0.97143611 
   54900     220.8104    104.50974    128623.71   -40355.239    2747.3012    -43102.54    117.91342   0.97099898 
   55000    221.21059    111.54245    128711.83   -40400.599    2752.2803    -43152.88    118.45894   0.97033423 
   55100    222.64199    152.85188    128809.35   -40349.432    2770.0896   -43119.522    118.72787   0.96959958 
   55200    221.21983    12.388004    128841.21   -40328.832    2752.3953   -43081.227    119.04083   0.96935983 
   55300    221.56916    39.265135    128768.84   -40276.894    2756.7416   -43033.636    119.11522   0.96990459 
   55400    221.53986    245.82024     128771.1    -40260.88    2756.3771   -43017.257    119.41003   0.96988759 
   55500    226.82382   -73.022346    128742.37   -40197.659    2822.1195   -43019.779     119.6815   0.97010402 
   55600    222.52655   -33.478276     128869.4   -40235.151    2768.6533   -43003.805    120.45905   0.96914774 
   55700    222.01533    67.031449     128805.4   -40229.774    2762.2928   -42992.066    120.42128   0.96962929 
   55800    224.94155    31.579821    128872.54     -40227.5    2798.7005     -43026.2    120.22296   0.96912414 
   55900    227.48692   -31.043418    128577.37   -40209.574    2830.3698   -43039.944    119.99729   0.97134894 
   56000    230.40374    121.55175    128653.95   -40195.906    2866.6605   -43062.567    120.59897   0.97077073 
   56100    227.86138     223.7024     128673.5   -40159.603    2835.0288   -42994.632    120.87082   0.97062328 
   56200    231.68218   -12.024831    128649.07   -40164.646    2882.5667   -43047.213    120.88186   0.97080757 
   56300    229.48839    49.994936    128453.88   -40184.414    2855.2719   -43039.686    121.30683   0.97228278 
   56400    222.03652    68.784359    128266.52   -40170.697    2762.5564   -42933.254    121.59336   0.97370297 
   56500    225.18313    141.16594    128336.25   -40255.195    2801.7063   -43056.901    121.58648   0.97317394 
   56600    222.37615    23.604923    128463.86   -40257.049    2766.7821   -43023.831    121.92423   0.97220723 
   56700    221.05017     13.93428    128494.87   -40273.118    2750.2843   -43023.402     121.6936   0.97197262 
   56800    223.63978    201.68872    128488.58   -40210.639     2782.504   -42993.143    122.02933   0.97202014 
   56900    226.35471   -38.257889    128243.28   -40189.306    2816.2829   -43005.589    122.35553   0.97387945 
   57000    229.38158   -39.967843    128212.31   -40144.409     2853.943   -42998.352      122.726   0.97411467 
   57100    226.93705    82.282997    128176.24   -40204.073    2823.5284   -43027.601    122.98179   0.97438876 
   57200    226.60844    170.49856    128206.33   -40256.185    2819.4399   -43075.625    123.04561   0.97416009 
   57300    224.97701    150.03739    128149.55   -40301.314    2799.1417   -43100.456    123.07147   0.97459169 
   57400    221.13198   -60.603534    128000.15   -40306.337    2751.3022   -43057.639    123.18001   0.97572928 
   57500    221.32212     55.92896    127991.43    -40347.07    2753.6679   -43100.738    123.45767   0.97579571 
   57600    220.30206   -24.645968    127942.98   -40291.494    2740.9765   -43032.471    123.60364   0.97616527 
   57700     219.7416    103.33887    128053.57   -40339.083    2734.0032   -43073.087    124.06661   0.97532221 
   57800    219.36158    60.843458    128028.87   -40354.112    2729.2751   -43083.387    124.58904   0.97551038 
   57900    223.42273     108.4003    128050.91   -40341.673    2779.8035   -43121.477    124.73125    0.9753425 
   58000    219.91277    247.47068    128209.87    -40345.55    2736.1329   -43081.683    124.73297   0.97413322 
   58100    223.54398    119.18772    128361.35   -40288.489     2781.312   -43069.801    124.87927   0.97298361 
   58200    221.33638   -48.633337    128203.32   -40250.399    2753.8454   -43004.245    124.89469   0.97418294 
   58300    226.01882    132.42836    128413.34    -40180.05    2812.1038   -42992.154    125.49831   0.97258968 
   58400     224.6505    171.69019    128335.84   -40169.556    2795.0794   -42964.635     125.9077   0.97317705 
   58500    227.35664    -132.6514    128194.95   -40172.801    2828.7488    -43001.55    126.53761   0.97424654 
   58600    225.65116   -39.290313    128208.78    -40137.42    2807.5295    -42944.95    127.09136   0.97414145 
   58700    226.49714     156.8798    128073.73   -40129.018     2818.055   -42947.073    127.14291   0.97516866 
   58800     223.0681    87.665106    127874.28    -40161.38    2775.3913   -42936.772    127.32313   0.97668972 
   58900    216.62548    121.20389    127958.79    -40171.76    2695.2328   -42866.993    127.67908   0.97604465 
   59000    224.25813    136.78288    127962.35   -40133.994    2790.1975   -42924.192    127.79576   0.97601746 
   59100    223.12568   -68.413289     127868.5   -40134.597    2776.1076   -42910.705    127.59892   0.97673385 
   59200    219.67721    5.3891194    127763.04   -40137.848    2733.2021    -42871.05    128.01562   0.97754003 
   59300    221.98609     -26.2016     127820.7   -40112.215     2761.929   -42874.144    128.36602   0.97709912 
   59400    222.04206    5.2897474    127782.04   -40147.365    2762.6253   -42909.991    128.35115   0.97739473 
   59500    225.69241    153.19096    127854.81   -40101.304    2808.0427   -42909.346    128.48533    0.9768384 
   59600      220.451   -29.503003    128000.38   -40098.022    2742.8295   -42840.851    128.66714   0.97572754 
   59700    225.82501    42.906896    127918.97   -40148.177    2809.6925    -42957.87    128.77215    0.9763485 
   59800    223.56198   -33.532467    128025.05   -40149.537    2781.5361   -42931.073    129.17967    0.9755395 
   59900    224.57717    134.12995    128222.97   -40111.883     2794.167    -42906.05    129.38428   0.97403365 
   60000    225.81202    63.638108     127953.4    -40157.14    2809.5308   -42966.671    129.08912   0.97608579 
   60100    222.10791    70.393467    127891.54   -40133.534    2763.4446   -42896.978    129.43776   0.97655789 
   60200    224.06571    139.89316    128025.65   -40110.208    2787.8034   -42898.012    130.02845   0.97553489 
   60300    226.25438    102.61688    127954.71   -40065.716    2815.0347   -42880.751    130.03861   0.97607577 
   60400    231.16775   -7.3534994    127994.04   -40013.064    2876.1663    -42889.23    130.15109   0.97577584 
   60500    222.57353    119.96858    127997.76   -40053.394    2769.2379   -42822.632    130.88926   0.97574746 
   60600     223.6869    108.45839     128062.1   -40083.063    2783.0903   -42866.153    130.99843   0.97525728 
   60700    225.45527    132.75605    128061.83   -40113.674    2805.0922   -42918.766    130.86054   0.97525934 
   60800    224.26665    36.090166    128016.59   -40073.324    2790.3035   -42863.628      131.629   0.97560399 
   60900     225.8085   -41.207775    128009.82   -40068.058     2809.487   -42877.545    132.12578   0.97565554 
   61000    222.45907    191.95011    127894.32   -40118.701    2767.8138   -42886.514    131.85329   0.97653666 
   61100    222.79397   -203.39082    127939.75   -40158.618    2771.9805   -42930.598    132.28211   0.97618993 
   61200    227.57275    90.592067    127829.51   -40155.368    2831.4376   -42986.806    133.03356   0.97703177 
   61300    221.35903    102.43708    127952.91   -40145.816    2754.1271   -42899.943    133.60488   0.97608949 
   61400    224.53281   -83.994898    127809.14   -40183.365     2793.615    -42976.98    133.84341   0.97718746 
   61500    224.29401    36.378791    127572.56   -40183.847    2790.6439   -42974.491    134.04166   0.97899964 
   61600    222.27971    141.00288    127598.18   -40135.266    2765.5822   -42900.848    134.28719   0.97880305 
   61700    220.75145    225.17003    127654.87   -40202.013    2746.5677   -42948.581    134.75776   0.97836838 
   61800     220.9677    75.266069    127634.22   -40254.926    2749.2583   -43004.184     135.4908   0.97852667 
   61900    218.50575    23.359161    127417.35   -40177.857    2718.6269   -42896.484    135.40684   0.98019216 
   62000    223.65539    122.16346    127606.44    -40132.78    2782.6983   -42915.478    136.10187    0.9787397 
   62100    226.21391   -74.834714    127607.63   -40146.233    2814.5312   -42960.765    136.11037   0.97873061 
   62200    222.38931    47.807584    127549.76   -40085.655    2766.9458   -42852.601    136.66565   0.97917462 
   62300    223.72227    115.15469    127415.63   -40117.589    2783.5303   -42901.119    136.96031   0.98020539 
   62400    226.39325    58.091227    127349.17   -40051.299    2816.7624   -42868.062    137.11123   0.98071693 
   62500    224.65606   -18.157695    127398.55   -40059.767    2795.1485   -42854.916    138.12441   0.98033687 
   62600    228.23209    170.82805    127597.62   -40066.201    2839.6412   -42905.842    138.56795   0.97880739 
   62700    227.01922    151.02328    127762.89   -40107.079    2824.5507   -42931.629    139.10194   0.97754121 
   62800     224.2906    152.75104    127793.97   -40103.387    2790.6015   -42893.989    138.93177   0.97730345 
   62900    228.50819    53.777356    127939.77   -40057.598    2843.0764   -42900.674     139.6033   0.97618975 
   63000    225.52364   -185.08675    127858.14   -40019.446    2805.9428   -42825.389    139.55301   0.97681302 
   63100    227.67381    85.860073    127665.64   -40002.965     2832.695    -42835.66    139.46465   0.97828585 
   63200    227.00733    58.461735    127957.43   -40042.377    2824.4028    -42866.78    140.15823   0.97605502 
   63300     224.6433    57.075848    127756.16   -40071.241    2794.9898   -42866.231     140.5834   0.97759273 
   63400    228.55378   -80.627867    127781.95   -39991.787    2843.6435   -42835.431    140.71796   0.97739539 
   63500    224.83834   -58.908583    127589.81    -40079.24    2797.4164   -42876.656    141.07828   0.97886726 
   63600    224.02955    90.166581    127645.34   -40083.275    2787.3536   -42870.629    141.38147   0.97844144 
   63700    225.87707    276.38991     127724.1   -40093.003    2810.3401   -42903.343    141.53369   0.97783812 
   63800    220.62641    -178.7943    127875.52   -40209.762     2745.012   -42954.774    141.81332   0.97668019 
   63900    215.46413   -7.5661594    127754.97    -40203.39    2680.7834   -42884.174    141.99749   0.97760185 
   64000    222.22151    89.633406    127919.34   -40186.536     2764.858   -42951.394    142.62022   0.97634565 
   64100    229.66272   -20.417417    127815.09    -40100.58    2857.4409   -42958.021    143.07255   0.97714202 
   64200      228.026    217.08055    127830.57   -40108.475    2837.0769   -42945.552    143.52674   0.97702368 
   64300    225.54083    -12.45002    127864.29   -39991.353    2806.1567   -42797.509    143.92305   0.97676601 
   64400    227.48163    180.59342    127945.23   -40005.913    2830.3039   -42836.217    144.30788   0.97614806 
   64500    228.46585    75.906178    127947.88   -40014.068    2842.5495   -42856.617    144.80901   0.97612789 
   64600    227.49632   -82.605286    127805.08   -40065.769    2830.4867   -42896.256    145.01617   0.97721855 
   64700    223.53892    213.07032     127645.7   -40077.661    2781.2491    -42858.91    145.12353   0.97843866 
   64800    225.27724     156.9714     127417.8    -40094.33    2802.8772   -42897.207    144.93782   0.98018874 
   64900    223.96635   -90.714416    127637.71   -40094.884    2786.5671   -42881.451    145.40013   0.97849993 
   65000     227.7501     126.5511    127816.89   -40053.881    2833.6442   -42887.525    145.69978   0.97712822 
   65100    226.06689   -120.93103    127924.21   -40075.533    2812.7019   -42888.235    145.72881   0.97630844 
   65200    221.51806   -109.64018    127961.51   -40052.552    2756.1058   -42808.658    145.70209   0.97602386 
   65300     225.6148   -55.358814    128066.77    -40051.82    2807.0771   -42858.897    146.90889   0.97522169 
   65400    228.68798    90.705816     128010.7   -40001.211    2845.3132   -42846.525    146.88552   0.97564886 
   65500     223.3195   -35.476135    127903.25   -40070.327    2778.5191   -42848.847    147.00333    0.9764685 
   65600    225.76523    112.17241    127847.46   -40109.048    2808.9487   -42917.997    147.35621   0.97689456 
   65700    223.99074   -8.1952846    127666.74   -40166.786    2786.8706   -42953.656    147.60433   0.97827746 
   65800     223.3995    3.1448614    127560.75   -40173.834    2779.5145   -42953.348    147.72944   0.97909027 
   65900    222.30639   -10.265195    127519.17   -40138.516    2765.9141    -42904.43    148.01609   0.97940954 
   66000    229.50351    110.24745     127768.1   -40037.103      2855.46   -42892.563    148.52592   0.97750139 
   66100     230.4971    11.629559    127849.46   -39999.244    2867.8221   -42867.066    148.71937   0.97687932 
   66200    224.71906   -56.956812    127913.22   -39959.985    2795.9323   -42755.917    149.17431   0.97639235 
   66300    230.03758    97.183407    127725.26   -40004.594    2862.1048   -42866.699    148.91043   0.97782919 
   66400    224.89643    128.15029       127587   -40063.699    2798.1391   -42861.839     148.4763   0.97888885 
   66500    225.11418    126.12048    127600.94   -40082.341    2800.8484   -42883.189    148.99225   0.97878193 
   66600    227.96589    141.88254    127562.16   -40098.816     2836.329   -42935.145    149.17933   0.97907947 
   66700    225.88534   -38.354192    127629.05   -40134.537    2810.4431    -42944.98    150.10448   0.97856636 
   66800    223.77888    18.166383       127657   -40075.664    2784.2348   -42859.898     150.6108   0.97835207 
[...]
   84600    220.79163    29.712774     128893.9   -40292.388    2747.0677   -43039.456     191.6086   0.96896354 
   84700    222.53905   -28.365472     128975.5   -40307.396    2768.8089   -43076.205    191.60349   0.96835054 
   84800    224.37427    22.812049    128841.97   -40270.872    2791.6425   -43062.514    191.63965   0.96935409 
   84900    223.44107    23.189313    128815.61   -40269.848    2780.0317    -43049.88    191.26443   0.96955243 
   85000    224.59564    34.627551    128782.59   -40211.446    2794.3968   -43005.843    191.42458   0.96980105 
   85100    220.76778   -43.818033    128837.09   -40220.852     2746.771   -42967.623    192.02639   0.96939081 
   85200     225.4703    108.33442    128719.99   -40224.481    2805.2792    -43029.76     192.2254    0.9702727 
   85300    222.04544    138.57922    128867.65   -40269.398    2762.6674   -43032.065    192.90682   0.96916094 
   85400    226.42389   -229.97077    128835.89   -40268.737    2817.1436   -43085.881    193.29816   0.96939983 
   85500    226.81409   -65.132647    128830.76   -40251.325    2821.9985   -43073.324    193.63103   0.96943842 
   85600    223.64315    9.1997451     128847.3   -40220.741    2782.5459   -43003.287    193.26712     0.969314 
   85700    223.72015   -4.5665883    128943.94   -40258.397     2783.504   -43041.901    193.27817   0.96858755 
   85800    223.06348    156.09314    128814.39   -40246.339    2775.3338   -43021.672    193.74748   0.96956165 
   85900    224.28743   -32.226315    128739.58    -40133.48     2790.562   -42924.042    193.86052   0.97012503 
   86000    228.34868    143.94464    128520.66   -40211.063    2841.0917   -43052.154    194.21492   0.97177754 
   86100    225.34422    197.36362    128608.12   -40197.507    2803.7106   -43001.217    194.65126   0.97111668 
   86200    226.78976    101.12431    128702.79   -40173.435    2821.6957   -42995.131    194.58114    0.9704024 
   86300    223.52719   -16.135287    128856.03   -40221.408    2781.1032   -43002.511    195.20614   0.96924835 
   86400    224.89196    71.607429    128699.94   -40238.797    2798.0835    -43036.88       195.28   0.97042388 
   86500    222.28615    17.576179    128565.08   -40229.847    2765.6623   -42995.509    195.43282   0.97144176 
   86600    225.18238   -110.27509    128559.58   -40177.196    2801.6969   -42978.893    195.48922   0.97148336 
   86700     226.6134    99.363714     128521.7   -40163.486    2819.5015   -42982.988    195.82229   0.97176964 
   86800    223.51989    121.74147    128639.27    -40224.21    2781.0124   -43005.222    195.98263   0.97088151 
   86900    226.42042    111.90224    128767.56   -40175.956    2817.1005   -42993.056    196.07121   0.96991424 
   87000    226.22435   -141.86998    128503.26   -40191.302    2814.6611   -43005.963    195.66994   0.97190911 
   87100    223.77005   -141.52518    128221.74   -40234.242    2784.1249   -43018.366     195.7951   0.97404301 
   87200    226.61281     87.53743    128154.87   -40232.467    2819.4942   -43051.961    196.18983   0.97455127 
   87300    226.84506    101.04717    128233.29   -40236.641    2822.3838   -43059.025    196.25516   0.97395532 
   87400    225.75728   -92.587858    128357.36    -40245.28    2808.8498    -43054.13    196.68443   0.97301385 
   87500    223.96806    -25.46432    128182.97   -40261.808    2786.5884   -43048.396    197.00423   0.97433765 
   87600    223.10105    128.34229    128309.78   -40276.761    2775.8012   -43052.562    197.37529   0.97337472 
   87700    226.77926   -38.718725    128323.56   -40283.581    2821.5652   -43105.147    197.74933   0.97327018 
   87800    225.48908   -133.20698    128254.55   -40275.984    2805.5128   -43081.497    198.09375   0.97379381 
   87900    222.86286    7.3088562    128314.22   -40286.949    2772.8377   -43059.787    197.49253   0.97334097 
   88000    219.59931    72.897191    128316.16   -40301.029    2732.2329   -43033.262    197.72128   0.97332626 
   88100    227.76277   -41.250135    128400.85   -40224.829    2833.8019   -43058.631    197.92759    0.9726843 
   88200    228.98421    69.664643    128332.58   -40189.389    2848.9989   -43038.388    197.95634   0.97320175 
   88300    226.63944    285.08017    128522.32   -40207.823    2819.8255   -43027.649    198.30069   0.97176497 
   88400    224.52928     249.1698    128602.78    -40326.88    2793.5711   -43120.452    198.92277   0.97115699 
   88500    228.96147    305.10102     128553.4   -40243.061     2848.716   -43091.777    199.36466   0.97153006 
   88600     226.8977    200.89774    128804.08   -40199.667    2823.0388   -43022.706    199.74597   0.96963927 
   88700    229.48559   -9.1996384    128881.38   -40186.412    2855.2371   -43041.649    199.95999   0.96905767 
   88800    228.49874    189.72946    129000.95   -40132.795    2842.9587   -42975.754     200.3552   0.96815947 
   88900    228.32055    10.962593    129194.15   -40180.037    2840.7417   -43020.779    201.06093   0.96671163 
   89000    223.42997   -77.985422    129277.61   -40160.069    2779.8935   -42939.963    200.96602   0.96608753 
   89100    225.60449   -133.81481    128827.05   -40249.194    2806.9487   -43056.142    200.34734   0.96946635 
   89200    221.32886     85.20929    128679.19   -40288.283    2753.7518   -43042.035    200.27761   0.97058036 
   89300    219.34695   -52.733966    128646.32   -40292.232    2729.0931   -43021.325    200.84714   0.97082832 
   89400    223.83183    37.826238    128623.79   -40307.835    2784.8936   -43092.729    200.80717   0.97099837 
   89500    219.76631   -132.51958    128496.05   -40354.717    2734.3107   -43089.028      201.192    0.9719637 
   89600    214.85445    108.87172    128390.26   -40387.435    2673.1978   -43060.632    201.12615   0.97276452 
   89700    224.64496    107.07163    128478.56   -40332.958    2795.0104   -43127.968    201.66614   0.97209594 
   89800    221.28701   -65.298957    128550.52   -40297.085    2753.2311   -43050.316    201.80666   0.97155181 
   89900    220.75491    179.63505    128500.77   -40343.627    2746.6107   -43090.238    202.09667   0.97192797 
   90000    225.58747   -15.390348    128666.29   -40256.623    2806.7371    -43063.36    202.37804   0.97067768 
   90100    218.24475   -3.8443477     128395.2   -40258.679    2715.3796   -42974.059    202.47737   0.97272709 
   90200    225.61428    13.064098    128363.99   -40301.511    2807.0706   -43108.582    202.51852   0.97296363 
   90300    216.46149    96.765802    128090.99   -40304.475    2693.1925   -42997.668    202.93715    0.9750373 
   90400    225.21973    6.4850826    128259.74   -40282.365    2802.1616   -43084.527    203.13489   0.97375441 
   90500    223.35799   -65.237626    128193.95   -40250.164    2778.9981   -43029.162    203.11744   0.97425415 
   90600    225.49145    95.241177    128282.92   -40169.219    2805.5424   -42974.762    202.89561    0.9735785 
   90700    224.30072   -5.3198896    128332.11   -40177.159    2790.7273   -42967.886    203.61268   0.97320528 
   90800    222.33121    104.30961    128353.05   -40216.533    2766.2229   -42982.756     203.6593   0.97304655 
   90900    221.03524   -183.10953    128373.85   -40321.003    2750.0987   -43071.102    204.17306    0.9728889 
   91000    220.52903    108.45794    128323.42   -40336.044    2743.8004   -43079.844     204.0249   0.97327125 
   91100    221.18149    119.67856     128557.2   -40330.432    2751.9182    -43082.35    204.94647   0.97150136 
   91200    223.84437    98.098531     128564.1   -40292.175    2785.0496   -43077.224    204.84797   0.97144917 
   91300    227.17657     115.1471    128752.07   -40200.383    2826.5084   -43026.891    205.16172   0.97003091 
   91400    227.03498    12.851608    128630.29   -40171.818    2824.7468   -42996.564     205.1865   0.97094929 
   91500    228.70482   -25.294708    128677.29   -40163.043    2845.5228   -43008.565    205.08118    0.9705947 
   91600    227.64169    42.353118    128421.65   -40205.538    2832.2954   -43037.833    205.35399   0.97252675 
   91700    222.05308    92.171705    128824.93   -40281.268    2762.7625   -43044.031    206.26868   0.96948231 
   91800    219.43196    74.932321    128880.83   -40231.009    2730.1508    -42961.16    206.63138   0.96906185 
   91900    224.68079    101.79121    128794.18   -40232.235    2795.4562   -43027.692     206.9604   0.96971378 
   92000    223.73642    159.70514    128715.46   -40249.166    2783.7064   -43032.873    206.94275    0.9703068 
   92100     220.5928    167.55598    128637.66   -40290.543    2744.5939   -43035.137    207.13898   0.97089365 
   92200    224.84173     34.18842    128669.68   -40223.619    2797.4586   -43021.078    207.17675   0.97065205 
   92300    224.92184    62.242472    128580.95   -40122.242    2798.4554   -42920.697    207.54892   0.97132191 
   92400     224.0922    9.3138368     128693.1   -40122.163     2788.133   -42910.295    208.14556   0.97047545 
   92500    226.15977    1.9241842    128537.23   -40182.168    2813.8575   -42996.026    207.64568   0.97165229 
   92600    228.47765   -13.709779    128318.69   -40164.544    2842.6963    -43007.24    207.91918   0.97330712 
   92700    229.94534     48.97633    128121.73   -40150.604    2860.9572   -43011.561    207.82518   0.97480332 
   92800    226.33831    11.548977    128330.49   -40202.496    2816.0789   -43018.575    208.01838   0.97321759 
   92900    224.99117    15.770396    128257.29   -40168.551     2799.318   -42967.869    208.32851   0.97377307 
   93000    225.81288   -23.255143    128351.35    -40183.81    2809.5415   -42993.352    208.28646   0.97305943 
   93100    222.36757   -16.958888    128434.86   -40121.925    2766.6754   -42888.601    208.17927   0.97242675 
   93200    225.65643     -101.392    128291.59   -40136.487     2807.595   -42944.082    207.80164   0.97351268 
   93300    226.19144    113.05556    128237.25   -40166.649    2814.2515   -42980.901    208.05138   0.97392522 
   93400    225.83259   -63.243474    128155.96   -40205.183    2809.7867    -43014.97    208.63458   0.97454301 
   93500     222.7974   -186.43566    128073.53   -40250.989    2772.0232   -43023.013    208.56738   0.97517024 
   93600    215.89634    134.34392    128017.92   -40312.418    2686.1609   -42998.579    208.46567   0.97559383 
   93700    224.95324    80.917747     128256.4   -40265.612     2798.846   -43064.458    209.18716   0.97377982 
   93800    222.64684   -67.611131    128199.08   -40228.612      2770.15   -42998.762    209.58009   0.97421516 
   93900    225.09392    88.604492    128209.45   -40206.456    2800.5963   -43007.052    209.71092   0.97413636 
   94000    227.91018    7.2805679    128215.52   -40225.284    2835.6359    -43060.92       210.52   0.97409024 
   94100    219.81348    58.370901    128217.22   -40224.645    2734.8976   -42959.543    210.91495   0.97407737 
   94200    223.08087    -166.0207    128118.47   -40223.867    2775.5501   -42999.417    210.93408   0.97482817 
   94300    223.01579    59.825283    127870.28   -40175.782    2774.7404   -42950.522    210.86222   0.97672025 
   94400     225.6484    141.67987    127875.89   -40159.989    2807.4951   -42967.484    210.93697   0.97667736 
   94500    225.58744   -58.194796    128050.09   -40097.775    2806.7366   -42904.512    211.98061   0.97534871 
   94600    228.43052    94.235307    127977.98    -40142.88      2842.11    -42984.99    212.05989   0.97589826 
   94700    223.44866    61.994591    127909.86   -40205.814    2780.1262    -42985.94    212.34244   0.97641803 
   94800      223.502    188.66109    127785.65   -40199.023    2780.7898   -42979.813    212.30927   0.97736707 
   94900     226.9033    41.293116     128097.3   -40146.048    2823.1085   -42969.156    212.44401   0.97498927 
   95000    227.09163   -178.91006    127840.24   -40138.652    2825.4516   -42964.104    212.52216   0.97694973 
   95100    225.25504   -84.535466     127881.1   -40114.621    2802.6009   -42917.222    212.89976   0.97663763 
   95200    226.90111   -138.90432    127809.04   -40138.732    2823.0812   -42961.813    212.91306   0.97718822 
   95300    227.81713    -145.8122     127740.2   -40042.246    2834.4782   -42876.724    213.37686   0.97771485 
   95400    224.78755    141.23087    127913.51   -40093.154    2796.7845   -42889.939    213.67139   0.97639014 
   95500    227.54399     39.28991     128261.4   -40099.552    2831.0798   -42930.632    214.44972   0.97374185 
   95600    225.57863    109.32456    128221.13   -40096.977     2806.627   -42903.604    214.03183   0.97404768 
   95700    228.08945    57.594549    128300.47   -40161.765    2837.8664   -42999.632    214.27455   0.97344533 
   95800    221.79912    31.478863    128197.65   -40205.765    2759.6027   -42965.367    214.34158   0.97422608 
   95900    226.11084    58.409565    128055.25    -40153.22    2813.2487   -42966.469    214.48106   0.97530944 
   96000    224.84619    130.34589    128168.42   -40241.607    2797.5141   -43039.121    215.33775    0.9744482 
   96100    225.51021    107.64288    128246.84   -40182.128    2805.7757   -42987.904    215.44237   0.97385237 
   96200    224.18736   -35.117196    128094.19   -40212.236     2789.317   -43001.553     215.2349   0.97501296 
   96300    228.11363   -4.8863797    128067.16   -40152.017    2838.1672   -42990.184    215.44407   0.97521874 
   96400    224.44477   -8.0331855    127923.25   -40131.193    2792.5197   -42923.713    215.25674   0.97631578 
   96500    222.92187   -8.5323425    128063.73   -40167.797    2773.5718   -42941.369    215.06596   0.97524485 
   96600    220.93803    273.61725    128007.92    -40173.23    2748.8891   -42922.119    214.85186   0.97567004 
   96700    220.14296    63.290512    128182.85   -40244.894    2738.9969   -42983.891    215.38589   0.97433856 
   96800    218.65023    97.828102    128274.62   -40304.798    2720.4245   -43025.222    215.51801   0.97364151 
   96900    221.82113    85.404962    128424.59   -40236.694    2759.8765    -42996.57    216.14972   0.97250446 
   97000    222.37954    9.2203349    128408.83   -40253.496    2766.8243    -43020.32    216.11988   0.97262386 
   97100    218.66655   -17.565305    128474.66   -40241.774    2720.6276   -42962.401    216.57269    0.9721255 
   97200    223.55926    143.55719    128577.41   -40244.014    2781.5022   -43025.517    217.35485   0.97134864 
   97300    223.78083    149.10815    128677.22   -40238.256     2784.259   -43022.515     218.4928   0.97059522 
   97400    219.97555    261.64897     128637.1   -40226.318    2736.9141   -42963.232    218.82998   0.97089787 
   97500    223.64066   -125.20871    128652.34   -40131.564     2782.515   -42914.079    219.58647   0.97078287 
   97600     220.3303    221.67924    128564.92   -40213.041    2741.3278   -42954.369    219.61545   0.97144297 
   97700    227.43714    77.019816    128441.23   -40173.116    2829.7505   -43002.866    219.11395   0.97237852 
   97800    226.73922    114.38477     128660.8   -40163.266     2821.067   -42984.333    219.71611   0.97071908 
   97900    230.02725    152.86751    128638.61   -40129.535    2861.9763   -42991.511      219.784   0.97088648 
   98000    224.72632   -54.949486    128566.09   -40154.958    2796.0227    -42950.98    219.93724   0.97143417 
   98100    222.46921    61.702867    128583.91   -40233.226    2767.9399   -43001.166    220.25511    0.9712995 
   98200    220.92616   -15.277646    128438.38   -40203.171    2748.7414   -42951.912    220.38422   0.97240005 
   98300    228.37304    139.27013    128574.59   -40224.717    2841.3948   -43066.112    220.70502    0.9713699 
   98400    224.76403    42.277388    128653.17   -40243.401    2796.4918   -43039.893    220.70121   0.97077666 
   98500    225.32206    46.567208     128600.5   -40246.505    2803.4348    -43049.94    220.78049   0.97117426 
   98600    223.52422      99.4123    128668.43   -40292.052    2781.0662   -43073.118     221.3513   0.97066151 
   98700    220.14466    196.65208    128738.78   -40357.754    2739.0181   -43096.772    221.37527   0.97013109 
   98800    221.03756    18.494558     128670.2   -40334.991    2750.1275   -43085.119    221.21272   0.97064815 
   98900    222.05481   -81.612002    128456.54   -40353.338     2762.784   -43116.122    221.61476   0.97226258 
   99000    221.48456     70.17488    128474.88   -40406.129     2755.689   -43161.818    222.13525   0.97212379 
   99100    221.00347    33.987294    128752.63   -40331.168    2749.7034   -43080.872    222.57679   0.97002671 
   99200    220.09321      101.571    128869.97   -40323.559    2738.3779   -43061.937    222.86177   0.96914345 
   99300    223.16574    69.460116    128972.87   -40278.903    2776.6061   -43055.509    222.65621   0.96837024 
   99400    225.45171    162.25762    128887.06   -40240.069    2805.0479   -43045.116    222.52045   0.96901498 
   99500    233.94318    99.280638    128993.29   -40126.358    2910.6979   -43037.056    223.09258   0.96821698 
   99600    229.97907   -69.173455    128805.12   -40150.473    2861.3768    -43011.85    223.31404   0.96963139 
   99700     231.2056    218.68151    128966.13    -40163.14    2876.6373   -43039.777     223.8661    0.9684209 
   99800    227.45889   -63.332229    128774.63   -40196.006     2830.021   -43026.027    224.07879   0.96986103 
   99900    227.11297   -50.682155    128807.36   -40259.418    2825.7172   -43085.135    224.44019   0.96961457 
  100000    225.63516    -181.6153    129052.63   -40270.962    2807.3304   -43078.292    224.77042   0.96777178 
  100100    227.04075   -69.496504    128797.07   -40210.546    2824.8185   -43035.364    224.51926   0.96969198 
  100200     226.9304   -122.09698    128777.93   -40225.574    2823.4456   -43049.019    224.39839   0.96983615 
  100300    229.98447    116.24478    128672.41   -40206.291     2861.444   -43067.735    224.65857   0.97063151 
  100400    222.68641    117.65865    128720.88   -40237.406    2770.6423   -43008.049    224.93429     0.970266 
  100500     229.8075    21.221922    128669.09   -40163.722    2859.2422   -43022.964    224.86672    0.9706565 
  100600     228.3234    225.82325    128555.39   -40236.948    2840.7771   -43077.725    224.64338   0.97151505 
  100630    226.30583    318.80829    128740.95    -40219.45    2815.6747   -43035.125    224.89507   0.97011471 
Loop time of 91.4151 on 6 procs for 100000 steps with 4175 atoms

Performance: 472.570 ns/day, 0.051 hours/ns, 1093.911 timesteps/s
98.5% CPU use with 6 MPI tasks x no OpenMP threads

MPI task timing breakdown:
Section |  min time  |  avg time  |  max time  |%varavg| %total
---------------------------------------------------------------
Pair    | 74.369     | 75.121     | 76.546     |   9.3 | 82.18
Neigh   | 5.25       | 5.3441     | 5.7101     |   7.1 |  5.85
Comm    | 7.0189     | 8.3691     | 9.2093     |  27.5 |  9.16
Output  | 0.15964    | 0.16043    | 0.16384    |   0.4 |  0.18
Modify  | 1.748      | 1.778      | 1.7964     |   1.2 |  1.94
Other   |            | 0.6426     |            |       |  0.70

Nlocal:        695.833 ave         708 max         687 min
Histogram: 1 0 2 1 0 0 1 0 0 1
Nghost:        1477.83 ave        1491 max        1464 min
Histogram: 1 0 0 1 0 3 0 0 0 1
Neighs:        0.00000 ave           0 max           0 min
Histogram: 6 0 0 0 0 0 0 0 0 0
FullNghs:      19629.7 ave       19959 max       19195 min
Histogram: 1 0 0 1 1 1 0 0 0 2

Total # of neighbors = 117778
Ave neighs/atom = 28.210299
Neighbor list builds = 5682
Dangerous builds = 0

undump              1
unfix               2
unfix               3
unfix               4


################################################
#######         Run Simulation         #########
################################################

reset_timestep      0
log                 log.run_${NAME}
log                 log.run_liquid_density_MLmW
