LAMMPS data file via write_data, version 29 Oct 2020, timestep = 800000

4175 atoms
1 atom types

-0.4997553532948906 50.49975535329014 xlo xhi
-0.4997553532948906 50.49975535329014 ylo yhi
-0.4997553532948906 50.49975535329014 zlo zhi

Masses

1 18.015

Atoms # atomic

3374 1 42.86092714048456 24.957523669184773 15.735731993620266 0 0 0
120 1 4.782636292080265 2.1296227347613312 1.8096288887570138 0 1 0
3599 1 10.687129778310961 1.4471801444887942 0.4091216197156793 0 1 1
1321 1 14.85602909887733 1.84385637653818 1.4441346500739525 0 0 0
2659 1 47.45469891416464 24.687442649602755 1.5540478713360866 0 0 0
667 1 18.88122346935876 1.3534872755530016 1.2282924664486972 0 0 1
1723 1 1.8597265047913676 23.06519885534714 -0.13778912715670283 0 0 1
4082 1 21.83129190391892 14.336908753661849 0.32256767486716165 1 0 1
22 1 26.484043792230967 0.8763985826995568 0.9062035169003761 0 0 0
2665 1 8.267333474584854 20.514934230277298 1.2326834502376975 0 1 0
393 1 30.34329390583404 2.900189693738853 1.5048557211866727 0 0 0
1756 1 31.977513420057274 0.8341621159450145 0.634752403768271 0 0 1
442 1 34.281848660281156 1.4265261443379007 2.4950218426349577 0 0 0
3982 1 9.567782002271974 1.0734141903184533 10.289233846491422 0 1 1
958 1 37.93282957382749 2.7903870100259285 0.4527987200679606 0 0 0
1643 1 31.634761555496258 24.336367857545845 0.2255945938242392 0 -1 1
2570 1 41.85246759614812 2.4819867863375906 1.3723261052995697 -1 1 0
3395 1 28.97939395577145 23.13755420959864 0.20833953585891896 0 0 0
1587 1 47.850602482186474 2.01944259341772 0.4336811018495432 0 1 1
1004 1 28.113341328451344 -0.2633995691390554 2.8527658742717863 -1 0 1
3443 1 2.895112652617796 4.205820974512399 2.7043988924309734 1 1 0
3128 1 8.354668327875679 4.987046251491425 0.5383316759600156 1 0 1
2277 1 12.620197877064914 5.892053469263001 -0.25973085668835916 0 0 0
1845 1 14.907560984612534 4.874070591831677 0.7693656948087015 1 0 1
3701 1 2.737350451848253 24.27293209060454 15.422897172129836 0 0 1
552 1 22.94717604165936 3.0227206550680017 1.4344195793739396 0 0 0
1981 1 8.751772424885434 15.313567104362214 0.36719851296760975 0 0 1
2005 1 26.773320527068872 5.294188409300713 0.8186396646051493 -1 0 1
2601 1 25.736852639377613 3.157108741937358 2.381836829304225 0 1 0
2652 1 31.280400718829753 5.459551145304293 0.9008173370037473 0 1 0
2214 1 33.40752726593105 5.640912494449401 2.602883750511589 0 1 0
1826 1 37.92342952427849 5.302582949671926 0.9485964254192933 0 0 1
1791 1 -0.15198665697582242 2.8940379014087587 -0.3796859617795333 1 1 1
16 1 44.921853840560345 2.944494738575217 0.6930056789283512 0 0 0
3431 1 13.221507949241566 24.86875823118779 7.834172018977123 0 1 1
1811 1 0.21342370410376144 7.9895048915972335 4.0312094213977865 0 0 1
3333 1 4.682337286571828 7.433982756996034 1.6774126084211103 0 1 1
3472 1 1.8528040994497794 10.183925385037186 16.141581450395243 1 1 0
3754 1 10.958076924434822 9.10435406013743 2.0710347171117527 0 0 1
1623 1 8.454266174500933 9.404588182916982 0.5813840548818141 0 0 1
3091 1 17.550812756614476 6.433554806338385 1.60087677377023 0 1 0
3059 1 22.256871844688714 7.520153897975598 0.02997137514507764 0 0 0
605 1 25.274617236664486 7.504277113804497 0.6119455890327559 0 0 0
52 1 28.58253037847805 9.026843876388789 2.058317406685309 0 0 0
39 1 35.299463874780386 6.351925912077804 0.8000382794972238 -1 0 0
4131 1 36.503085104301306 8.742660583589926 2.0703309517839315 -1 1 1
2931 1 39.26140672460957 8.53364845479034 0.7321602086379959 -1 1 0
1471 1 41.18521730814983 6.736698041817021 2.780434491949813 0 0 1
1560 1 43.401598347034025 7.550657144191431 0.8811280933155681 0 0 1
2606 1 45.12983497529822 5.561434674028057 1.8517646883186805 -1 1 0
1519 1 48.38940873610953 7.169770514949768 1.2541852047079978 0 0 1
11 1 0.42661895213395107 8.376548971405361 1.1537123336892292 0 0 0
6 1 1.9269079945248606 11.037772489403208 0.8632425141287403 1 0 0
1575 1 4.111735106288415 10.178313550942756 2.2642942616284807 0 0 1
2339 1 6.751788993504074 11.153640800072274 2.290494725460955 0 1 0
1468 1 6.2108437462676545 24.39223307010489 4.29080019428624 0 0 1
1064 1 13.272734146162664 8.666250058570007 0.5581141720797989 0 0 0
3281 1 6.9062658336402185 7.110020854995663 -0.05781790763897837 0 1 1
560 1 17.72172184247681 10.195850365386821 3.104871402542104 0 0 0
1149 1 15.756391586095003 14.022929099658073 0.1400193929786162 0 0 1
991 1 21.24254879754225 11.632205329169834 0.4241815396499301 0 0 0
1597 1 25.638950145971485 11.373336795342826 3.1136299939513084 -1 0 1
3004 1 33.009364924992965 11.091780024507294 1.07006806128846 1 0 1
4165 1 2.1282497771394437 4.972827437980714 0.01168959584520013 0 1 1
178 1 34.17786029563513 13.687524498831309 2.000475943740945 0 0 0
3390 1 35.579255255680295 10.417104542693822 0.15449454899455461 0 1 0
1544 1 43.19189676553776 10.430299446589231 0.5962588168411185 -1 0 1
2657 1 47.747154826558074 10.87593973265556 0.9748817071679017 -1 1 0
2316 1 48.47040004296403 9.077854306390027 3.591511609230654 -1 1 0
216 1 1.088283259069029 13.547366373874073 1.7738808029574358 0 0 0
2137 1 6.777359667516926 13.79218283386354 0.9979193655757126 1 0 0
2814 1 12.27888171615122 14.375475006754284 0.08370816304030437 0 1 0
298 1 13.602970986064808 12.156685622760705 0.6285163008869079 0 0 0
2413 1 16.976256924220042 13.78975374626896 5.4591022549719 0 0 0
804 1 19.58857131243601 15.035149114716726 2.2771197211872622 0 0 0
3661 1 6.044096593008274 3.1514133686782206 -0.25035242943326474 0 1 0
2232 1 27.133785139054947 13.088443798621745 1.4825900372036553 0 1 0
1299 1 28.71545250849025 14.779860080442855 2.979071468967189 0 0 0
2607 1 30.88174422916053 16.507443603227912 2.419280356862757 0 0 0
2250 1 33.2257284153808 15.722633623031292 3.5041824976110316 -1 0 0
3476 1 39.119330244495146 13.291944846623828 1.2787102251002607 0 0 1
2275 1 39.28668609564404 15.960408108046835 0.6052204154266771 -1 0 0
3313 1 42.05690316583065 15.515375421742092 1.6734506759696002 -1 1 1
135 1 0.3418222982049395 0.026783492535944142 0.09624151963838501 0 0 0
3450 1 23.20301695779494 23.681260821630396 10.408882543317276 0 0 0
314 1 1.2797698734686906 17.893840555242576 1.8012836504070018 1 0 0
1285 1 35.767350536638304 23.86122192286526 0.11804901826377001 0 -1 1
3512 1 5.446615168253939 17.0368015125389 1.7097050966060592 1 1 1
3672 1 10.160055938417809 23.99391098427614 9.333252899841545 0 1 1
1421 1 10.583618675907246 18.511351995244624 1.5620183393814395 0 0 1
1665 1 11.00088301586228 15.801254737657608 2.1462962428949983 0 0 0
1165 1 15.534937423545042 16.702525648907315 0.9602635041643197 1 0 0
15 1 18.15677270783858 17.49669234471579 2.2214897020599063 0 0 0
263 1 22.852684114241846 16.161804496403562 2.202384335253264 -1 0 0
1159 1 25.38029513483108 15.44326532822567 0.9607756137634729 0 0 0
1403 1 26.718300206688703 19.24804605272285 1.086273375945835 0 0 0
97 1 25.944591973352782 15.20159387476425 4.23724224826504 0 0 0
733 1 22.641969013955972 0.62378958927197 7.948934975128083 0 0 0
3172 1 36.53086620892411 16.856212591308637 1.0365102791680996 0 1 1
2738 1 40.81529365083681 18.280791834363118 1.6186246310595176 -1 0 0
2500 1 23.534305079830553 0.5606733419616547 0.2953313533015438 0 1 0
2052 1 48.754820165413975 0.2637628939494747 4.685939184149322 -1 0 1
745 1 46.722751244282264 15.439387094246651 1.486753483897982 0 0 0
2319 1 47.09020294109291 18.24317444590448 1.2124031483121704 0 0 0
81 1 49.898649992880735 19.446940603466413 1.8091081621471794 -1 0 0
2022 1 3.806089708431986 19.072028116679835 0.7967765851851907 0 0 1
359 1 11.176125058274996 20.32476416696666 3.513585371470902 1 0 0
4146 1 15.519222442196767 21.141278537682922 1.230856755428199 0 0 1
315 1 17.366948326375073 18.99109031959644 -0.3285174056830862 0 0 0
2679 1 18.580199255612083 21.006015788184683 0.9946027546069214 0 0 0
1593 1 22.075059949058495 18.650314402404582 2.190264504460572 0 -1 1
4022 1 40.3399342416095 11.01371250635532 0.1682920937445085 0 0 1
1988 1 19.46561976137594 7.786031385682785 0.04143934326878196 0 0 1
3576 1 29.23772312013051 20.48130427823651 0.7395514505956187 0 0 1
1533 1 30.534570857776437 20.513309149827432 2.9120608716725114 0 0 1
3967 1 32.94605359936466 21.816255485862552 3.6661812893417016 0 1 1
1692 1 35.29724968866611 20.712906986868603 2.975492670004253 0 0 1
1761 1 36.22804859432125 19.56327211575228 0.46698989992664763 0 0 1
622 1 38.853759586087705 20.284092925669746 0.7302237368586781 -1 0 0
301 1 25.042706792382333 -0.3991402384233571 5.762149673845117 -1 0 1
238 1 44.75920240045754 19.300147301801253 2.460798683566962 -1 0 0
2714 1 46.00496101818764 21.55281218621462 2.794970334978405 -1 0 0
56 1 -0.44997085160420625 21.879143326081465 0.8124566880430928 1 0 0
1625 1 4.367987286069262 24.142910355109677 8.065298913798376 1 0 1
1860 1 4.137692561245848 22.071139378290468 0.7447186379958421 1 0 1
2461 1 43.001589025321294 -0.02915689080689965 0.6195410946254611 0 1 0
2185 1 7.929242754239834 24.62081306126451 2.0322603261489633 1 0 0
2720 1 10.26880198424711 22.82334661884564 2.2598286213159087 0 1 0
1422 1 10.858083965290499 24.534403687492755 0.06338164636527666 0 0 1
2493 1 50.351230128008446 24.63292373974024 11.645269274290053 0 0 0
3882 1 16.32000058133905 24.06597891861835 1.9843715226011533 1 0 1
1032 1 22.64572727698708 0.975920531806401 16.410223968307672 0 0 0
619 1 18.601815888632924 23.83733267422369 0.5238815391302729 0 0 0
721 1 22.524469139123006 22.67164441289958 1.4529755370549722 0 0 0
1277 1 35.12651530467603 2.096053884676519 -0.28168731983943207 0 0 1
4078 1 18.600077883439088 23.36764704008696 15.423386130784861 0 0 1
2178 1 5.941656597225217 24.228244864370467 0.143354665507048 0 1 0
2023 1 32.45467309796081 24.187030736223267 2.8786638258944954 -1 0 1
1923 1 23.14179428885603 23.81875711434434 16.3404775143896 1 0 1
3965 1 48.17232347231558 22.726092486598066 14.908391804189701 0 1 1
2556 1 40.4250148087546 24.18398710096384 1.324546107080108 -1 0 0
1171 1 22.455504900442683 -0.37653251373874713 4.518617163645905 0 0 0
3069 1 0.515282493623177 0.020739176054285102 4.581011302073287 0 1 1
2293 1 6.6453923354987054 1.521585992647831 4.151305135396816 1 0 0
470 1 10.44533307438534 1.5693434851556445 3.254365638580406 0 0 0
3227 1 13.166450359093483 2.076214640145138 3.768299533424675 0 1 0
173 1 16.874200016918447 1.183078040970506 3.0335856462777677 0 0 0
2442 1 17.645282067630077 2.744664902838379 4.988192878028755 -1 1 0
1219 1 20.435426806918592 1.3927371452990438 5.20643527738099 0 0 0
2106 1 25.200725181070272 21.43875809607989 0.3318347441501459 0 0 1
1669 1 29.751712846803873 1.5562585379463774 3.8687085804694075 0 0 1
2247 1 33.12072396281931 2.77224097948883 6.439903115609257 0 1 0
2591 1 37.489781319648614 0.6482074857606555 2.4056495125552244 -1 1 0
4002 1 39.530168446275326 2.5138441352945593 2.913731668348084 0 0 0
910 1 44.69685101476671 1.3688859967718086 3.0959161491580076 0 0 1
2006 1 24.52949789461624 24.82156070812045 0.4755649695752029 0 0 1
701 1 47.398710431391834 2.4871338030910195 3.562308820427938 -1 0 0
3899 1 0.6844234136185341 2.8726850956842354 3.8227362840816257 0 1 1
3928 1 50.20281340694552 5.4707413125103646 4.64155777884257 -1 1 1
532 1 5.509588127711777 5.498644217569795 3.736429208612159 0 0 0
243 1 8.697627062175965 3.3644157630168596 4.79786017149673 0 0 0
3828 1 8.180843369027343 5.807243842164148 3.489285129512907 0 1 1
1695 1 12.66840639515385 5.244072073743739 4.020627204019891 0 0 1
876 1 17.140697757247118 5.338338072840589 5.271664945862855 0 0 0
467 1 20.61391415822768 3.1762494255009073 2.756158395217916 0 0 0
2303 1 19.303696763814585 5.579719365422602 3.662096914607668 0 1 0
702 1 23.64126455140703 3.8590779784950335 4.464515533503985 1 0 0
1446 1 27.39989771712547 3.0269758924586716 4.698795959886437 0 0 1
4120 1 34.41263989224339 3.6172649681129014 4.076236746065379 0 1 1
2689 1 36.82991349696452 3.3340294089001095 5.014916756496851 -1 1 0
2518 1 39.0119809757216 5.06406804715198 3.4139550344339 0 1 0
3842 1 43.65047506701411 0.7602443384034065 5.63305989711137 0 1 1
3352 1 43.425176489744146 4.4209468612752305 6.145060246922722 0 1 1
1555 1 42.901233014167445 4.461448939692889 3.2726358367316704 0 0 1
2983 1 47.514032373530085 4.862057478908353 4.880466866821719 -1 1 0
2815 1 4.775795929009742 7.555538343879531 5.897375660420717 0 1 0
2792 1 8.042175201938788 7.764210511817424 5.495866373036331 1 0 0
2458 1 10.743927611552373 6.497029638033918 2.4382858141400843 0 1 0
2880 1 10.61057376274116 8.978117601521395 6.243871525464431 0 1 0
2687 1 15.15459138815648 6.335256675874208 3.507448902441097 0 1 0
554 1 15.28083609308699 9.202779876521607 3.4011393071500193 0 0 0
283 1 20.083049246502213 8.459940713399266 3.975247759816411 0 0 0
1661 1 22.44363471582169 8.337813024954043 2.6961254964046595 0 0 1
722 1 24.42000883377455 6.927524578580336 4.630927725359748 0 0 0
1685 1 28.644914264216208 5.683448517536029 4.720505626757288 -1 0 0
2344 1 29.008861844726887 6.3375263564491835 1.9965106416141576 0 0 0
1542 1 30.84856880590046 6.7180763245296635 6.006282648685386 0 0 1
2692 1 32.745220728286014 7.8850059096460665 4.45174931291423 -1 1 0
2439 1 35.107526445975864 8.485693983759852 6.070125826811819 -1 1 0
2664 1 37.53364194709671 7.522151950564988 4.574593804264818 0 1 0
2088 1 46.200139180358235 7.127509948798622 3.9356848449394857 -1 0 1
3926 1 1.508216578796607 9.657050256013525 6.10621722233723 0 0 1
2331 1 -0.3372877925247717 11.808857529343754 5.623037937696269 0 1 0
421 1 4.096576589972961 10.136984569350544 4.883004809481792 0 0 0
183 1 7.2391457478292045 10.710210763139633 5.031525257192037 0 0 0
576 1 9.355978618048773 12.628126718639951 5.053855537077249 0 0 0
4074 1 11.244932497755574 11.181691115775465 4.091863364060967 0 0 0
2100 1 23.0325743584677 11.068201546963278 2.3824463936188702 0 0 1
45 1 25.932512252987973 8.743429392631173 2.9707586697397517 0 0 0
776 1 28.35010571491882 10.604141783123646 4.786906455098653 0 0 0
1180 1 30.225665330279593 12.70481521048905 4.748848107798122 0 0 0
2884 1 31.33280185882753 10.328532552046616 3.238745061935979 0 1 1
160 1 33.2298710906375 11.130294997986724 5.307534774385453 0 0 0
1838 1 35.73467080952956 11.366164021265671 6.780197572068844 0 0 1
3526 1 37.12438379623151 10.759975468480736 4.211942674853239 0 1 1
509 1 36.9106005175322 13.347554049291649 2.7558723809916637 -1 0 0
3438 1 39.47651481186382 9.581995537613864 5.4818947471290045 0 1 0
3503 1 43.42960464814074 11.403095255667937 3.1643212036944526 0 1 1
846 1 41.99472629036633 9.324919221047349 4.207587823187428 -1 0 0
2926 1 45.04472606913457 10.32281320944692 6.999618627146731 0 1 0
2166 1 45.76020016441581 11.786815044479667 4.618129775620663 -1 0 0
1896 1 48.58210488845451 12.05460332033631 3.8818213290828156 -1 0 1
3019 1 1.4520189465121016 13.650191774536967 4.520838910472396 1 1 1
1678 1 4.2966007707674025 13.142325705020445 5.185237171271595 0 0 1
430 1 5.99869211743893 14.86840290525433 3.656838487883193 0 0 0
3870 1 8.80682297493598 15.216664596583573 4.4000386980288955 0 1 1
1431 1 12.54236898860946 16.025085179894464 4.647471860322735 0 0 1
2466 1 13.763015466898016 11.921495807415248 3.30676498948099 0 0 0
607 1 14.085146144403517 13.84138719539684 5.372405100770514 0 0 0
3588 1 17.45132742753953 13.286767484573371 2.2763847192063715 0 1 1
3685 1 21.396950479214315 11.322353153170004 4.76795907199024 0 0 1
1526 1 21.5378681344969 14.366902693423409 4.159699169014576 0 0 1
2021 1 22.674495398266423 14.602779900694589 6.562915371632141 0 0 1
3498 1 25.847619754849553 12.002313724378267 6.053578007947443 0 1 0
1888 1 26.759890605473707 15.151144878164203 7.15364889076147 0 0 1
4119 1 29.75878703159595 13.065105634024999 7.791010195581377 0 0 1
2209 1 32.87099010339412 14.27626237008626 5.985112853923064 0 1 0
647 1 37.2029988929703 14.895514090703049 5.167309647522574 -1 0 0
1516 1 41.23064464132213 13.898320530918516 5.400421848654147 0 0 1
3032 1 41.58284885779533 13.224275372517535 2.757281555750564 0 0 0
1520 1 44.46976129499855 15.945679221849645 3.3784546972814122 -1 0 1
1621 1 49.06214019573132 14.569479067630327 2.789249841461002 0 0 1
3134 1 1.0118419783710453 16.0508436452376 5.85302619957111 1 1 0
1386 1 2.081501430554283 17.954477908198882 4.491438248629595 0 0 1
1718 1 4.724469714323868 17.498890979209524 5.059549210661998 0 0 1
3820 1 8.903410445705283 16.530887417184342 6.864488440410227 0 0 1
193 1 7.043825718304142 18.34100821807681 6.53921439961431 0 0 0
545 1 14.762669365091973 17.453913893341237 3.672172595032926 1 0 0
1002 1 17.16596592239897 16.80570010723627 4.898365547141285 1 0 1
3051 1 26.015629082102212 17.925397942454946 3.4058311784350646 0 0 1
1749 1 30.62013793974718 18.294570897583018 4.379524117452608 0 0 1
1583 1 29.117731750346017 15.775069815091282 5.825005577018866 0 0 1
2109 1 32.82697450697738 18.46028994744462 5.895086764318738 0 1 0
297 1 35.96294145719891 16.791566193822128 3.7672638267314165 -1 0 0
1714 1 35.69495003865819 19.148391902285617 5.303012860690529 0 0 1
1254 1 39.5364819654732 16.171951359676438 5.72698131417783 0 0 0
1656 1 40.94956133650798 18.361606522790783 4.342566724645431 0 0 1
3384 1 43.51341345816002 18.14889121796603 4.7674271741319325 0 1 0
1950 1 49.414322990014156 16.44027719039494 5.048620792570747 -1 0 1
3961 1 0.5471066689262267 20.290824578966998 5.638812502845552 0 0 1
1579 1 4.135495080286281 20.635989092342253 4.66418514702226 0 0 1
2192 1 6.066370129240568 19.92632121558871 2.641647183316935 0 0 0
2210 1 10.31023821901635 20.01411963309517 6.164884216997627 0 0 0
3993 1 14.039623193039557 20.204852650226254 3.3865128817872683 0 0 1
1806 1 14.499460597858214 21.64422177112349 5.632045066829755 -1 0 1
1850 1 19.751650816677778 19.722175086018982 2.9456947463419874 0 0 1
4027 1 19.21227105690017 20.727509926988887 5.506621811791257 0 0 0
1228 1 23.833895906769694 19.316000170524777 4.10330888582866 0 0 0
1494 1 24.071395065383083 22.130070106010898 3.9871914892957907 0 0 1
1859 1 29.04532247450901 21.51587861185093 5.177728169322889 0 0 1
3098 1 32.48214610767515 21.099670989293514 6.690608103589633 0 0 0
3893 1 39.206303756129074 22.173945474564697 2.9200118305041847 0 0 1
995 1 40.512981607213916 20.935513300552632 5.054332846007341 1 -1 0
3952 1 36.84207228006629 20.0449046887681 7.8890984947683425 0 0 1
2979 1 49.3259069150768 19.213418129712082 4.4607623636894385 -1 0 1
391 1 48.15208377199025 21.530783727517107 4.820652969783945 0 0 0
33 1 0.938849283163183 22.856406539079288 4.5355973266668945 0 0 0
2932 1 3.7440787198892247 23.007717677481526 3.401884740299846 0 0 0
1151 1 10.544390477840121 23.82723142601016 4.7782614205846805 0 0 0
3311 1 16.141222826905345 23.901255742222297 4.983070329665724 0 0 1
2163 1 18.61014086111884 23.281757927964048 6.146144581465689 0 0 0
536 1 20.400524179102437 24.72242412643664 4.710873030441064 0 0 0
457 1 22.74030805179179 23.52233777542833 5.793284838412224 0 0 0
2608 1 26.650985185474415 22.69353411607765 5.039289642721482 0 1 0
349 1 31.057072222490937 23.60088790068774 6.037510483477594 0 -1 0
3656 1 43.08490604323798 19.57173569381505 0.5294021731126783 -1 1 1
1946 1 36.55526448221593 23.114239439637917 2.8015620331505646 0 0 1
1084 1 46.74788044808733 22.347233055639485 -0.03634305698170537 -1 0 1
2351 1 42.957786394543945 22.649344959345378 4.958115276026009 0 0 0
2399 1 19.782128290106968 24.84640391074074 13.088089357977395 0 0 0
3287 1 39.924619295562465 -0.13569224199747598 0.39964490350183934 0 1 0
1296 1 49.58117687474696 23.361834643673312 3.455637568074363 0 0 1
785 1 17.95052032880214 0.39783184667982396 8.91082538764863 0 0 0
1045 1 2.960383745146743 0.34288978781048907 7.457512014588886 0 0 0
3767 1 8.171179902201967 1.6890930902441461 7.861267413417293 0 0 1
3115 1 9.950236635547734 0.284778608023738 6.064138119422379 0 1 0
3159 1 7.724971649133581 17.82330595207944 0.02111127998415574 0 0 0
1689 1 12.843966540603699 0.9782123661581026 6.498448772626396 1 0 1
438 1 16.585104552204175 2.5799798414173543 7.636511860089959 0 0 0
578 1 24.802405253449116 2.505052852467412 9.16629574034639 0 0 0
2174 1 26.629628404146334 1.6323683233026296 6.922764840662695 0 1 0
106 1 31.136142881234647 1.2287911409381123 6.271091819933007 0 0 0
2146 1 29.15557258701811 0.728382731865346 7.967095849062241 -1 0 0
164 1 35.132649486742096 1.226446645220245 7.680606679831824 0 0 0
832 1 36.67670670032055 0.43008915003211723 5.42670568512805 0 0 0
3082 1 25.85952666183763 20.180639223979806 15.462132966642175 0 0 0
861 1 40.90311760158194 1.61632299274563 5.4432071051237125 0 0 0
675 1 41.29986709314048 3.1142966391211355 9.347089890443588 0 0 0
3816 1 43.68254773637881 1.8455546020372426 9.722187948382837 -1 1 1
879 1 47.09872476094664 0.3133408640234807 7.021300288362037 0 0 0
2028 1 49.44176876410039 0.5527364774155217 8.455498451875238 0 0 1
1352 1 1.8510122469981796 4.361525653785082 8.375450476881042 0 1 0
816 1 2.2330157467858047 2.745796620976835 6.005210120927417 0 0 1
1200 1 9.536860120756353 4.327228449157959 7.596379337608816 0 0 0
4161 1 13.772670964491686 2.839131635847708 8.246370368634254 0 1 1
2394 1 12.272151733477118 4.966124822698452 6.98705560267284 1 0 0
50 1 17.399027156526444 4.755390065016766 9.17978488190644 0 0 0
223 1 22.189881505300058 3.0568209705049116 6.580416502209205 0 0 0
2723 1 21.88284251590288 4.946086838523445 8.615073281231993 0 0 0
1594 1 24.717039796920606 5.287660433478613 9.782066183633587 0 0 1
3786 1 27.472591933794007 4.236461834447507 10.379287223765221 0 1 1
2153 1 29.982610811754512 4.978607688380283 9.15395079664062 0 1 0
1823 1 32.29975116470369 5.04485484847341 7.372350838304258 0 0 1
1552 1 37.06792393511992 5.354463876680181 9.180932016912934 0 0 1
546 1 38.38854030714862 5.4447709962468105 6.689372541267559 -1 0 0
3359 1 40.58626315982083 3.806874066530731 6.846148388912754 0 0 0
3622 1 45.15431837296978 2.091038536520954 7.490051269900501 -1 1 1
2318 1 46.432803578374305 4.597638831935396 7.277093486146968 0 1 0
1109 1 50.24123072562065 5.550801630250209 7.668696110406316 0 0 1
1909 1 2.597435652589388 8.21842443412235 8.219480302168336 0 0 1
380 1 4.876984098902231 3.3174391960400293 5.4964871942128095 0 0 0
3614 1 7.752277611761794 6.360538827732399 7.837956247869256 0 1 1
1261 1 12.991797217685656 7.492815206956716 7.1258297716745975 0 0 0
1595 1 17.37188992332965 6.8524541170148145 7.3520899287869375 0 0 1
3391 1 19.598433670773158 8.798432198578555 6.782927860641366 0 0 0
2059 1 21.59023294511779 7.657273911567856 8.44036282420563 0 0 1
1757 1 23.790499038482032 8.349841869090826 6.935962461416601 0 0 1
3265 1 26.35574524070135 7.290643996216181 8.535598496832778 0 0 0
2091 1 27.08344291143907 7.821882845171325 5.833375926613217 0 0 1
117 1 29.56910699591671 8.776265456621827 7.072386780205341 0 0 0
2781 1 34.57846493642661 6.501104496006716 8.458406835453689 0 0 0
4145 1 30.57651445021425 7.911377358288641 10.03925830274635 0 1 1
1887 1 39.796776522093495 7.706470020550851 7.4142737586142875 0 0 1
130 1 42.3925005881638 6.779188992572935 7.244757274388406 0 0 0
1652 1 44.128591091013334 8.303412457154272 5.556161986625976 0 0 1
2526 1 46.2080574045942 6.661719750302291 9.1398176878068 0 1 0
2215 1 -0.01978591003674096 7.932304386246853 9.033796869895472 0 1 0
1830 1 50.47435383327307 12.330595064776999 8.361686743089626 -1 0 0
871 1 3.473976319603781 10.584947272622918 9.512101715090036 1 0 0
923 1 6.5309713884009355 12.081533305724994 7.512867401154542 1 0 1
2642 1 10.893910003233671 12.594431432197178 9.389300157701369 0 1 0
822 1 10.379244071649051 9.693232429475744 9.08780489647372 0 0 0
2578 1 15.411032645591387 8.317543048352874 6.306766011227603 0 1 0
4052 1 15.261909278375427 11.147221028030565 7.6835699718040065 0 1 1
2363 1 18.808017817005382 11.567284206717403 5.460704016156997 0 1 0
989 1 22.14442607421143 11.341079688160333 9.604206454400536 0 0 0
1316 1 23.028180565202607 11.345411754788666 6.837633005623514 0 0 0
3462 1 28.515174314535464 9.694697681229982 9.79206846081185 0 0 0
1684 1 31.57360183501569 10.832637726646588 7.621924459213041 0 0 0
2071 1 39.040400289851846 8.935274767364062 9.86613272275454 0 0 1
3381 1 38.35995738006591 11.616933113075559 8.876887011445138 0 1 1
1130 1 41.80216236081738 9.269350611355563 10.168000056135092 0 0 0
732 1 42.725435456297745 11.271769479642643 8.638323782624704 -1 0 0
3600 1 46.84592596398841 9.542959685029299 8.854410210732812 0 1 1
2338 1 49.32475964445723 10.217455167714979 9.895605730737682 0 0 0
4035 1 2.1295437931109578 13.173218273757964 9.030721164609785 0 1 1
3648 1 4.396261184322234 13.812810561452745 7.833900290185774 -1 0 1
2952 1 8.664254750158918 13.690778455409571 7.666717433722157 0 1 0
2514 1 13.41820633686847 13.076796666126448 8.112900517641839 0 1 0
2554 1 18.090008995659318 11.157450956165981 8.060700305124048 0 1 0
67 1 17.576339142460895 14.369540648982051 8.141424343062258 0 0 0
1265 1 15.29577718151781 14.793778000853225 9.577751165073739 0 0 0
3804 1 27.224676543435013 12.187896405263064 8.269943988952612 0 1 1
3849 1 30.325096005964703 15.17511629673918 9.661251449313179 -1 0 0
151 1 35.34447706061803 14.091615685886138 6.963577641683542 0 1 0
2172 1 40.638985330883514 11.627317890145203 6.989348246680642 0 0 0
2421 1 43.06446091536314 15.45575132985412 7.200151229827611 0 1 0
1049 1 45.21800063328054 14.411189567806703 5.5133876877535615 -1 0 1
1332 1 48.88693067354299 14.45198370072322 9.098125755740046 0 0 0
1161 1 1.3802877676638001 17.467756016228947 8.348779261292504 0 0 0
2528 1 4.226319670323081 16.619965946279425 7.857797662202701 0 1 0
3177 1 11.397474338187399 17.392604071132418 6.541175500515968 0 0 0
3607 1 12.71818278345746 16.199976085335834 8.723127562506567 0 0 1
3034 1 18.90312105377277 16.773084697415396 8.794390618240524 0 0 0
3846 1 24.36477429007216 16.612204361280664 7.623986410288623 1 1 1
468 1 26.370383061584292 13.939112544072687 10.443349704128785 -1 0 0
2105 1 25.2389283903871 16.70543643852276 10.495039498985765 -1 0 0
1126 1 31.48655152757434 16.145538868726632 7.230269196788136 0 0 0
3563 1 27.734958362534602 19.180667590980327 7.787837646519824 0 0 1
940 1 32.94847738201811 16.990775124768994 10.20790021584525 -1 0 0
4142 1 35.37395215659389 15.889504067279322 9.254758488622326 -1 1 1
900 1 37.25673678078162 17.801989894239046 9.240908002328752 0 0 1
1994 1 39.76838504696593 16.512708223906195 8.579034480319716 0 0 1
147 1 42.26280777930545 17.76691742586483 9.184201051688746 0 0 0
527 1 46.70528351653449 18.107656457147204 8.360910653848267 -1 0 0
282 1 44.19575516256705 19.041525784994796 7.449032189658408 -1 0 0
1368 1 47.433718980094866 15.554621534572096 7.0550686975448285 0 0 0
1901 1 -0.12143844601544374 19.91665995585285 8.250532613246843 0 0 1
2420 1 1.8125553400424121 21.812445509301686 9.272556465177978 0 0 0
2750 1 3.645996208756512 19.475371839617637 9.358390611750538 1 1 0
1655 1 7.822111982660164 20.333463824423802 4.967520703589234 0 -1 1
3606 1 6.6183955842768 19.226659339637568 9.174472913005385 1 1 1
316 1 14.34856827920712 18.484839701712243 9.353228507256492 0 0 0
400 1 15.77098120226297 20.230855880467928 7.764947896961404 0 0 0
3535 1 17.859387718934762 18.80636568604665 6.7800666431659105 0 0 1
4111 1 21.480818847762222 21.098773607375833 6.8103301088165065 0 0 0
40 1 23.569884093498807 19.156556874295955 6.768109081848529 0 0 0
111 1 27.917031043874047 18.585667300453306 5.150725720686215 -1 0 0
3123 1 25.346829980311306 20.317784297833704 8.562931653495767 0 0 0
1044 1 29.615441058223208 20.924734252736858 8.114012722368292 0 0 0
236 1 34.860854033223745 22.168639196699875 8.082112719002785 0 0 0
3577 1 39.377011623454166 21.361627535490616 7.619018439095004 0 0 1
3740 1 44.724834523715515 21.93329248392625 7.147075504946566 -1 0 1
3711 1 48.40202305091533 20.241964852171545 8.839372327965359 0 0 1
464 1 1.6968707394422453 24.04519468442138 7.16229111722708 1 0 0
1311 1 5.3261014292202615 21.268178783755733 7.116065233879892 0 0 0
3702 1 32.23361999894662 24.724297436397418 11.982358430102213 -1 0 1
628 1 7.954706143890121 22.921608136607137 5.7720586768750355 0 0 0
2225 1 7.226754191702832 23.35753262641325 8.684191417571355 1 1 0
2498 1 10.26861205744933 21.10248462038383 8.971010804486344 0 0 0
1423 1 12.041539436123369 22.594846379882217 6.562825753680766 1 0 0
211 1 39.39233972897141 23.582765820212728 13.459437280392843 -1 0 0
1992 1 16.742092417048852 22.111703674158452 9.500071300390525 0 0 0
3047 1 19.060656701628616 23.388307576530774 8.92584306323632 0 0 0
1142 1 11.120116820037117 -0.16455605418625746 16.03616690560448 0 0 0
1877 1 26.537334470375992 22.972987925696142 7.8617089353030565 0 0 1
1217 1 19.115299921546374 -0.2022876832928283 15.748670664209836 0 0 0
1268 1 28.761131182831484 23.88205050308222 9.378981009233556 0 0 0
2628 1 33.45136761914567 24.559550086051093 9.135604403207537 0 0 0
3857 1 37.55363010590642 23.48651271711999 7.541523433977293 0 0 1
3325 1 40.42622569974503 24.002967665770562 8.94187627035017 -1 0 0
1582 1 42.80271165988992 22.423546646243704 8.974022519811589 -1 0 1
685 1 47.51288328292199 22.338280946180515 7.389874365669932 0 0 0
246 1 15.7741192794346 23.2125703269059 15.353699250783086 0 0 0
1260 1 3.498112964071574 0.3559501163309159 9.951019640123574 0 0 0
1257 1 6.208592460034878 0.11288344364347425 10.70751862670161 -1 0 0
343 1 7.028818380014977 23.462497067695907 14.372928892353858 0 0 0
2564 1 12.586155497793348 1.6122101610558062 10.585452140698424 0 1 0
2126 1 16.323373812603094 -0.11150534532540912 13.26575293940089 0 1 0
998 1 2.759032489337003 7.459089045122482 -0.17621196040313225 0 0 0
2460 1 19.19802269257283 1.7022351708992165 10.783815398134251 0 1 0
200 1 23.11293204711454 1.355321644202864 12.286354024914841 1 0 0
2190 1 1.6060197375258354 15.653931238990197 0.12112874462120793 0 0 0
1743 1 27.559169490254472 1.9572598254454494 11.839141998288424 1 0 1
738 1 30.007530744438565 1.3293175222213423 10.629631807339397 0 0 1