
# Create simulation box of size 50 x 50 x 50 Angstrom
#
lattice	            sc 1
Lattice spacing in x,y,z = 1.0000000 1.0000000 1.0000000
region 	            all block 0 50 0 50 0 50 units box
create_box          1 all
Created orthogonal box = (0.0000000 0.0000000 0.0000000) to (50.000000 50.000000 50.000000)
  1 by 2 by 3 MPI processor grid

# fill box with 4175 randomly distributed atoms
#
create_atoms        1 random 4175 63782 all
Created 4175 atoms
  create_atoms CPU = 0.001 seconds
mass                1 18.015

# Define potential
#
pair_style          sw
pair_coeff          * * ML_mW.sw mW
Reading sw potential file ML_mW.sw with DATE: 2019-02-27

# Run minimization
#
minimize            1.0e-8 1.0e-8 10000 1000
WARNING: Using 'neigh_modify every 1 delay 0 check yes' setting during minimization (../min.cpp:187)
Neighbor list info ...
  update every 1 steps, delay 0 steps, check yes
  max neighbors/atom: 2000, page size: 100000
  master list distance cutoff = 6.0032907
  ghost atom cutoff = 6.0032907
  binsize = 3.0016454, bins = 17 17 17
  1 neighbor lists, perpetual/occasional/extra = 1 0 0
  (1) pair sw, perpetual
      attributes: full, newton on
      pair build: full/bin/atomonly
      stencil: full/bin/3d
      bin: standard
Per MPI rank memory allocation (min/avg/max) = 4.255 | 4.258 | 4.261 Mbytes
Step Temp E_pair E_mol TotEng Press 
       0            0    7792709.3            0    7792709.3    5898794.3 
     630            0   -45180.336            0   -45180.336   -154.07449 
Loop time of 1.15105 on 6 procs for 630 steps with 4175 atoms

99.3% CPU use with 6 MPI tasks x no OpenMP threads

Minimization stats:
  Stopping criterion = max force evaluations
  Energy initial, next-to-last, final = 
      7792709.32924461  -45180.0188663597   -45180.336116598
  Force two-norm initial, final = 2.0191930e+08 4.9721331
  Force max component initial, final = 1.0948746e+08 0.73126211
  Final line search alpha, max atom move = 0.053306038 0.038980685
  Iterations, force evaluations = 630 1000

MPI task timing breakdown:
Section |  min time  |  avg time  |  max time  |%varavg| %total
---------------------------------------------------------------
Pair    | 0.8744     | 0.97945    | 1.074      |   6.3 | 85.09
Neigh   | 0.023838   | 0.024366   | 0.024702   |   0.2 |  2.12
Comm    | 0.03313    | 0.12784    | 0.23377    |  17.5 | 11.11
Output  | 0          | 0          | 0          |   0.0 |  0.00
Modify  | 0          | 0          | 0          |   0.0 |  0.00
Other   |            | 0.01939    |            |       |  1.68

Nlocal:        695.833 ave         704 max         685 min
Histogram: 1 1 0 0 1 0 0 1 0 2
Nghost:        1494.17 ave        1515 max        1468 min
Histogram: 1 1 0 0 0 0 1 1 1 1
Neighs:        0.00000 ave           0 max           0 min
Histogram: 6 0 0 0 0 0 0 0 0 0
FullNghs:      19997.0 ave       20462 max       19320 min
Histogram: 1 1 0 0 0 0 0 2 0 2

Total # of neighbors = 119982
Ave neighs/atom = 28.738204
Neighbor list builds = 26
Dangerous builds = 0

# Add velocity/set timestep
#
velocity            all create ${TEMP} 120598 rot yes dist gaussian
velocity            all create 225 120598 rot yes dist gaussian
timestep            5.0

# Define output
#
compute	            1 all msd
thermo	            100
thermo_style        custom step temp press vol etotal ke pe c_1[4] density

# Neighbor lists
#
neigh_modify        delay 0 every 1 check yes

# Set fixes
#
fix                 1 all momentum 10 linear 1 1 1 rescale
fix                 2 all nve
fix                 3 all temp/csvr ${TEMP} ${TEMP} 500.0 928347
fix                 3 all temp/csvr 225 ${TEMP} 500.0 928347
fix                 3 all temp/csvr 225 225 500.0 928347
fix                 4 all press/berendsen iso ${PRES} ${PRES} 1000.0 modulus 20000
fix                 4 all press/berendsen iso -400 ${PRES} 1000.0 modulus 20000
fix                 4 all press/berendsen iso -400 -400 1000.0 modulus 20000

# Run 0.5 ns equilibration
#
dump                1 all custom 1000 eq.${NAME}.dump id type x y z vx vy vz
dump                1 all custom 1000 eq.liquid_density_MLmW.dump id type x y z vx vy vz
run                 100000
Per MPI rank memory allocation (min/avg/max) = 3.506 | 3.508 | 3.511 Mbytes
Step Temp Press Volume TotEng KinEng PotEng c_1[4] Density 
     630          225    869.67124       125000   -42380.908    2799.4278   -45180.336 2.7295415e-33   0.99914793 
     700    143.25688   -340.89805    125845.81   -41516.745     1782.388   -43299.133   0.26721997   0.99243266 
     800     177.7662   -547.64523     126013.4    -40730.02    2211.7495   -42941.769     0.621291   0.99111275 
     900    194.85085   -194.67777    126111.85   -40301.377    2424.3151   -42725.692    1.0507909    0.9903391 
    1000    210.15273   -184.00297    126313.82   -40018.849    2614.6995   -42633.548    1.4104996   0.98875559 
    1100    216.91187   -414.68723    126497.64   -39839.465    2698.7961   -42538.261    1.8463898   0.98731875 
    1200     217.4768   -425.19247    126609.78   -39881.739    2705.8248   -42587.564    2.3072828   0.98644428 
    1300    215.23212   -297.35926    126709.84   -39854.877    2677.8968   -42532.774    2.7798937   0.98566527 
    1400    220.70746   -394.60793    126836.82   -39873.062    2746.0204   -42619.083     3.150471    0.9846785 
    1500    219.94864   -557.82758     126718.9   -39816.687    2736.5793   -42553.266    3.4662294   0.98559483 
    1600    225.02877   -402.21406    126906.14    -39720.37    2799.7857   -42520.155    3.8835369   0.98414068 
    1700    224.21151    -149.9295    126940.09   -39745.428    2789.6175   -42535.046     4.231011   0.98387747 
    1800    224.16274   -450.50859    127169.65   -39835.928    2789.0107   -42624.939    4.5150596   0.98210143 
    1900    224.99619   -390.30871    127385.03   -39833.989    2799.3804   -42633.369    4.8719897   0.98044088 
    2000    224.35155     -273.847    127334.97   -39796.938    2791.3598   -42588.298    5.3465909   0.98082634 
    2100    231.89441   -312.33728    127824.33   -39740.464    2885.2073   -42625.671    5.7502996   0.97707134 
    2200     226.7156   -428.27502    127939.02   -39778.608     2820.773   -42599.381    6.0414141   0.97619544 
    2300    227.68002   -243.60711    128050.79   -39776.332    2832.7723   -42609.104    6.4525476   0.97534335 
    2400    228.34581   -218.38725    128320.28   -39796.512    2841.0559   -42637.567    6.7934273   0.97329501 
    2500    232.62938    -332.3849    128437.46   -39765.638    2894.3517   -42659.989    7.1475121   0.97240702 
    2600    233.99248   -259.07158    128675.98   -39716.518    2911.3113   -42627.829    7.3901425   0.97060454 
    2700    231.19241   -262.88272    128817.87   -39762.593    2876.4731   -42639.066     7.732856   0.96953542 
    2800    229.74032   -403.93739    128546.69   -39768.682    2858.4064   -42627.089    8.0829805   0.97158079 
    2900    231.16069    -452.3393    128699.45    -39856.23    2876.0785   -42732.308    8.2870446   0.97042752 
    3000     229.6237   -582.23269    128309.33   -39913.703    2856.9553   -42770.658    8.6021317   0.97337808 
    3100    232.18054   -291.49375    128298.22    -39892.59    2888.7673   -42781.358    8.8919457   0.97346237 
    3200    228.79917   -390.80154    128383.03    -39947.56    2846.6967   -42794.257    9.2417216   0.97281931 
    3300    223.97963   -415.74728    128630.28    -39942.64    2786.7324   -42729.372    9.4077676   0.97094936 
    3400    226.28374   -384.08535    128603.51   -39991.865    2815.3999   -42807.265    9.7757983   0.97115151 
    3500    224.64328   -371.33284    128446.59   -40020.344    2794.9895   -42815.334     10.21511   0.97233792 
    3600    221.72455   -522.63086    128562.38   -40047.642     2758.675   -42806.317    10.293524    0.9714622 
    3700    221.62609   -326.30381    128518.78    -40124.16      2757.45    -42881.61    10.485944   0.97179177 
    3800    220.47434   -361.45304     128507.3   -40062.903    2743.1199   -42806.023    10.873535   0.97187859 
    3900     223.1942   -355.96459    128434.16   -40097.147    2776.9602   -42874.108    10.998781   0.97243203 
    4000    222.14216   -467.11673    128422.67    -40099.15    2763.8708   -42863.021    11.269437   0.97251907 
    4100    228.18588   -395.50514    128277.47   -40105.199    2839.0661   -42944.265     11.63684   0.97361984 
    4200    222.04403   -376.46877    128090.64    -40112.68    2762.6499    -42875.33    11.867223   0.97503996 
    4300    224.88731   -392.06275     128282.9   -40102.848    2798.0256   -42900.873    12.000269   0.97357862 
    4400    226.33723   -379.27048    128475.48   -40085.295    2816.0654    -42901.36    12.035749   0.97211925 
    4500    223.96856   -383.35983     128716.5   -40087.858    2786.5946   -42874.452      12.3023   0.97029901 
    4600    227.17831    -440.8929     128859.7   -40147.809      2826.53   -42974.339    12.502974   0.96922072 
    4700    227.31264   -234.62884    128973.56   -40079.194    2828.2014   -42907.396    12.883269   0.96836508 
    4800     225.1032   -506.57695    129053.39   -40148.925    2800.7117   -42949.637    13.040203   0.96776607 
    4900    226.68291   -497.25287    129022.14   -40041.032    2820.3664   -42861.398    13.177327   0.96800048 
    5000    227.43296   -410.34203    129057.68   -39984.885    2829.6984   -42814.583    13.421745   0.96773389 
    5100    226.88095   -220.89335    128840.27   -40047.862    2822.8303   -42870.693    13.719608    0.9693669 
    5200    225.86997   -400.40035     128868.4   -40120.588    2810.2518   -42930.839     13.88735   0.96915525 
    5300    225.04081   -653.05363    128912.94   -40096.381    2799.9355   -42896.317    14.099512   0.96882044 
    5400    225.35435   -374.87355    128801.28   -40135.337    2803.8366   -42939.174    14.198511   0.96966032 
    5500    227.06152   -343.84968    128906.44    -40140.51     2825.077   -42965.587    14.315049   0.96886927 
    5600    226.52505   -420.54376    129038.96   -40150.436    2818.4023   -42968.838    14.485238   0.96787427 
    5700    224.18882   -514.81715    129019.28   -40148.726    2789.3351   -42938.061    14.682704   0.96802191 
    5800    228.18259   -396.63318    129036.38   -40172.918    2839.0252   -43011.943    14.966419   0.96789361 
    5900    222.93426   -472.88976    129291.91   -40223.337     2773.726   -42997.063    15.190899   0.96598074 
    6000    221.28761    -297.4916       129326   -40225.264    2753.2386   -42978.503     15.41408   0.96572606 
    6100    224.93607   -456.24877    129467.66   -40159.355    2798.6323   -42957.988    15.625516   0.96466939 
    6200    224.68954   -444.39957    129337.01   -40243.056     2795.565   -43038.621    15.877275   0.96564387 
    6300    227.60484   -414.54985    129510.78   -40204.858    2831.8369   -43036.695    16.042925    0.9643482 
    6400    228.70212   -445.29948    129851.13   -40183.331    2845.4892    -43028.82    16.279544   0.96182061 
    6500    230.49228   -406.59296    130047.88   -40158.091    2867.7621   -43025.853    16.546063   0.96036547 
    6600    225.06075   -529.38958    130070.92   -40262.653    2800.1836   -43062.837    16.747418   0.96019533 
    6700    218.17824    -359.6677    129924.28   -40337.811    2714.5521   -43052.363    16.871149   0.96127909 
    6800     222.9782   -315.38451    129867.72    -40257.52    2774.2727   -43031.793    17.185798   0.96169775 
    6900    229.19575   -200.57313    130105.09   -40193.285    2851.6309   -43044.916     17.36039   0.95994314 
    7000    230.47504   -400.59296    130217.14   -40203.812    2867.5477    -43071.36    17.648817   0.95911713 
    7100    228.15625   -275.12802    130235.43   -40245.712    2838.6976   -43084.409     17.72276   0.95898247 
    7200    226.23126   -284.99617    130227.27   -40303.405    2814.7469   -43118.152    17.944146   0.95904254 
    7300    223.08299   -494.95363    130247.15   -40369.563    2775.5765   -43145.139    18.066283   0.95889612 
    7400    223.69943   -388.64413    130189.84   -40406.986    2783.2462   -43190.233    18.204007   0.95931823 
    7500    221.49285   -341.70206    130152.21   -40381.093    2755.7922   -43136.885    18.166346   0.95959566 
    7600    222.57935   -479.56564    130278.85   -40459.668    2769.3103   -43228.978     18.34821   0.95866283 
    7700    221.83846     -378.124       130530   -40352.645    2760.0921   -43112.737    18.684584    0.9568183 
    7800    225.79804   -392.53782    130472.96   -40341.726    2809.3569   -43151.083    18.965436   0.95723659 
    7900    223.34524   -292.40329    130613.18   -40428.861    2778.8394   -43207.701     19.16184   0.95620898 
    8000    223.57274   -586.76662    130623.73   -40405.367    2781.6699   -43187.037     19.09265   0.95613174 
    8100     220.2523   -367.76759    130442.57   -40480.389    2740.3574   -43220.746    19.105176   0.95745961 
    8200    221.65513   -333.20883    130667.57   -40498.339    2757.8113    -43256.15    19.268188   0.95581092 
    8300    222.49132   -600.47404    130612.36    -40485.96     2768.215   -43254.175    19.420526   0.95621495 
    8400    223.02602   -360.65052    130844.68    -40431.39    2774.8677   -43206.257    19.655157   0.95451718 
    8500    222.47222   -277.69382    130827.37   -40361.454    2767.9773   -43129.431    19.931081   0.95464343 
    8600    229.13667   -495.78066    130929.38   -40384.265    2850.8958    -43235.16    19.878688   0.95389969 
    8700    224.09071    -312.4965    130869.39   -40353.617    2788.1145   -43141.731    20.104348   0.95433692 
    8800    226.81778   -562.77009    130990.55   -40387.685    2822.0444   -43209.729    20.245497   0.95345418 
    8900    217.35381    -558.8947    130797.55   -40468.858    2704.2947   -43173.153    20.404774   0.95486111 
    9000    221.69999   -349.42652    130774.98   -40423.196    2758.3693   -43181.565    20.454676    0.9550259 
    9100    221.37721   -476.84633    130677.39   -40504.858    2754.3533   -43259.212     20.68612   0.95573908 
    9200    221.85298   -520.75304    130534.39   -40408.918    2760.2728   -43169.191    20.850237   0.95678609 
    9300    222.76317   -379.79076     130242.7   -40448.983    2771.5974   -43220.581    21.093395   0.95892895 
    9400    223.23215   -462.31461    130262.33   -40409.661    2777.4324   -43187.093    21.076107   0.95878441 
    9500    222.55222   -398.67318    130494.95   -40419.002    2768.9727   -43187.975    21.104924   0.95707532 
    9600    228.82958   -444.03491    130528.39   -40384.435     2847.075    -43231.51    21.185844   0.95683006 
    9700    222.28865   -382.07197    130689.75   -40306.857    2765.6934    -43072.55    21.508435   0.95564873 
    9800    224.37621   -370.71861       130725    -40392.12    2791.6666   -43183.787    21.650201   0.95539099 
    9900    220.93541   -465.52654    130373.08   -40471.117    2748.8565   -43219.973    21.900386   0.95796992 
   10000    220.21126   -369.85731    130430.47   -40449.082    2739.8468   -43188.929    22.038377    0.9575484 
   10100    222.20949   -421.32737    130561.51   -40403.616    2764.7086   -43168.324    22.243349   0.95658738 
   10200    220.56842   -406.35969    130661.64   -40445.395    2744.2905   -43189.686    22.383166   0.95585433 
   10300    223.12181   -477.71227    130844.52   -40429.078    2776.0595   -43205.137    22.584091   0.95451828 
   10400    225.67304   -288.18897     130988.6   -40365.049    2807.8017   -43172.851    22.632412   0.95346837 
   10500     223.3913   -521.26631    130973.25    -40338.04    2779.4124   -43117.452    22.667916   0.95358016 
   10600    225.47089   -495.05763    131083.75   -40291.767    2805.2865   -43097.054    22.951529   0.95277633 
   10700    225.20291    -464.9367    131056.41   -40286.109    2801.9524   -43088.062    23.158869   0.95297503 
   10800    230.30839   -340.22604    130970.85   -40273.167    2865.4742   -43138.641    23.117296   0.95359763 
   10900    227.37837   -402.04281    130710.47   -40305.666    2829.0192   -43134.685    23.310694   0.95549725 
   11000    225.29041   -441.21475    130961.36   -40297.544     2803.041   -43100.585    23.501782   0.95366674 
   11100     224.6994   -285.08411    131046.91    -40327.53    2795.6877   -43123.218    23.696321   0.95304418 
   11200    225.01245   -505.60676    130957.14   -40340.329    2799.5826   -43139.912    24.019476   0.95369747 
   11300    226.67782   -475.56778    130863.34   -40360.196     2820.303   -43180.499    24.230762   0.95438102 
   11400    225.33361   -384.06291    130897.01    -40381.56    2803.5785   -43185.139    24.473719   0.95413555 
   11500    224.47737   -495.25133    130850.53    -40397.44    2792.9253   -43190.366    24.446965   0.95447447 
   11600    220.80971   -334.47798    130875.27   -40400.783    2747.2925   -43148.076     24.84502   0.95429404 
   11700     225.8139    -490.4627    130680.91   -40283.313    2809.5542   -43092.867    24.924561   0.95571336 
   11800    223.78251   -238.90476    130751.91   -40350.852    2784.2798   -43135.131    24.871822   0.95519436 
   11900    224.33171   -497.09678    130739.69   -40361.218    2791.1129   -43152.331    24.848637   0.95528369 
   12000    224.40478   -395.21198    130810.69   -40361.031    2792.0221   -43153.053    24.854823   0.95476514 
   12100    225.53528    -381.1325    130883.57   -40318.927    2806.0876   -43125.015    25.136728    0.9542335 
   12200    227.07363   -528.24256     130886.9   -40312.998    2825.2276   -43138.225    25.465569   0.95420922 
   12300    225.02258   -536.78292    130830.34   -40329.885    2799.7087   -43129.593    25.569326   0.95462177 
   12400    224.04168   -483.88293    130939.94   -40300.147    2787.5044   -43087.651    25.447776   0.95382276 
   12500    223.58122    -339.4519    130845.33    -40405.96    2781.7755   -43187.735    25.828925   0.95451238 
   12600     226.6091   -316.70804    130950.55   -40322.882    2819.4481    -43142.33    25.869859   0.95374542 
   12700    228.03527   -199.68165    130977.45    -40305.04    2837.1923   -43142.233    25.975685   0.95354955 
   12800    226.79225    -436.3478    130898.13   -40275.168    2821.7268   -43096.894    26.180774   0.95412743 
   12900    226.35699    -429.3438    130751.72   -40330.374    2816.3113   -43146.685    26.263972   0.95519578 
   13000    224.89592   -329.31772     130796.5   -40269.973    2798.1328   -43068.106    26.425753   0.95486878 
   13100    226.09839   -461.52677    130649.74   -40281.178    2813.0938   -43094.271    26.551848   0.95594139 
   13200      231.593   -451.67004    130648.77   -40197.097    2881.4572   -43078.555    26.687645   0.95594849 
   13300    226.25815   -647.07982    130547.36   -40234.165    2815.0816   -43049.247    26.721351   0.95669102 
   13400    226.84217   -439.15274    130558.23   -40332.139    2822.3479   -43154.487    26.866877   0.95661137 
   13500    226.33897   -436.89328    130509.96   -40373.938    2816.0871   -43190.025    26.953098   0.95696525 
   13600    225.74242   -385.76786    130493.02   -40401.076    2808.6648   -43209.741    27.400269   0.95708947 
   13700    223.44873   -362.84806    130605.81   -40400.287     2780.127   -43180.414     27.57346   0.95626288 
   13800    228.42632   -216.33966    130534.04   -40311.491    2842.0577   -43153.549    27.905479   0.95678869 
   13900    225.75376   -333.94099    130478.67   -40354.145     2808.806   -43162.951    28.001675   0.95719466 
   14000    229.34734   -403.41081    130611.59   -40338.371    2853.5169   -43191.888    28.096338   0.95622055 
   14100    225.38632   -410.08152    130670.27   -40348.572    2804.2343   -43152.806    28.303325   0.95579115 
   14200    220.89312   -335.49826     130616.5   -40384.776    2748.3303   -43133.106    28.406077   0.95618465 
   14300     221.9431   -251.43275    130586.41    -40436.13    2761.3941   -43197.525    28.815767     0.956405 
   14400    221.93456   -491.80028    130550.11   -40404.479    2761.2879   -43165.767    28.883464   0.95667087 
   14500    225.16065   -215.36265    130749.45   -40363.404    2801.4265    -43164.83    28.862419   0.95521235 
   14600    229.14938   -307.92595    130866.96   -40381.196    2851.0539    -43232.25    29.040028   0.95435461 
   14700    225.35018   -394.28433     130873.8   -40432.162    2803.7847   -43235.947    29.282893   0.95430474 
   14800    224.02788   -540.77243    130786.77   -40473.888    2787.3327   -43261.221    29.627296   0.95493981 
   14900    218.97235   -312.94328    130922.29   -40553.616    2724.4324   -43278.048    29.694335   0.95395132 
   15000    219.54776   -374.85703    130893.59   -40557.313    2731.5915   -43288.905    29.663117   0.95416052 
   15100    219.80439    -339.2788    130724.15   -40590.574    2734.7845   -43325.359     30.00822   0.95539723 
   15200    223.58636   -531.83456    130741.98   -40514.047    2781.8394   -43295.887    30.250555   0.95526694 
   15300    223.46141   -401.43794     130785.8   -40526.055    2780.2848    -43306.34    30.331211   0.95494685 
   15400    222.47286   -364.05548    130785.36   -40506.627    2767.9853   -43274.612    30.463652    0.9549501 
   15500    221.49153   -283.12288    130910.11   -40481.064    2755.7757   -43236.839    30.577425   0.95404011 
   15600    224.02734   -526.73375     131081.4   -40410.136     2787.326   -43197.462    30.767548    0.9527934 
   15700    221.15707   -553.89905    130983.24   -40492.594    2751.6144   -43244.208    30.893311   0.95350741 
   15800    219.33636   -420.65018    130907.35    -40480.84    2728.9613   -43209.801    31.099796   0.95406015 
   15900    222.46792   -470.48519    131035.35   -40526.149    2767.9239   -43294.073     31.39643   0.95312824 
   16000    226.62245   -481.86042    130974.39   -40460.035    2819.6141   -43279.649    31.321745   0.95357184 
   16100    224.90873   -321.79735    130844.89   -40417.404    2798.2922   -43215.697    31.610279    0.9545156 
   16200    223.94291   -451.79237    130852.53   -40463.679    2786.2756   -43249.955    31.607985   0.95445988 
   16300    223.48012    -127.6193    130906.93   -40477.141    2780.5176   -43257.658    31.869993   0.95406324 
   16400    227.43741   -479.78235    130811.23   -40389.502    2829.7538   -43219.256    31.997158   0.95476121 
   16500    228.19105   -359.01218    130815.96   -40385.211    2839.1305   -43224.342    32.312635   0.95472668 
   16600    222.76564   -332.86043     130963.8   -40363.916    2771.6281   -43135.544    32.546368   0.95364894 
   16700    226.54684   -418.09623     131090.7   -40382.337    2818.6734   -43201.011    32.586857    0.9527258 
   16800    226.64855   -508.07926    131342.27   -40376.068    2819.9388   -43196.007    32.850352   0.95090093 
   16900    227.84348   -342.62804    131432.79   -40342.538     2834.806   -43177.344    32.919399   0.95024606 
   17000    228.13683   -453.39407    131454.63    -40355.37    2838.4558   -43193.825    33.065797   0.95008821 
   17100    228.23771   -499.01249    131375.43   -40276.521    2839.7111   -43116.232    32.860862   0.95066096 
   17200    227.38287   -579.10261    131445.91   -40279.668    2829.0752   -43108.743    33.207677    0.9501512 
   17300    225.26848   -519.34674    130921.68   -40346.834    2802.7681   -43149.602     33.43501   0.95395579 
   17400     224.6858   -289.14486     130892.1   -40378.495    2795.5185   -43174.013     33.74401   0.95417133 
   17500    225.29088   -253.78219    131004.72   -40362.776    2803.0468   -43165.823    34.102537   0.95335108 
   17600     227.5013   -432.15558    131024.68   -40338.329    2830.5487   -43168.878    34.368554   0.95320587 
   17700    225.65159   -412.82036    131061.53   -40359.527    2807.5348   -43167.061     34.42116   0.95293788 
   17800    222.86759   -306.91251    131035.11   -40375.551    2772.8966   -43148.448     34.56511   0.95312999 
   17900    228.92107   -273.93568    131016.55   -40347.631    2848.2133   -43195.844    34.676708   0.95326503 
   18000    228.76619   -413.77751    131056.47   -40298.346    2846.2863   -43144.632      34.8735   0.95297463 
   18100    222.37244   -458.31314    130846.14   -40407.683     2766.736   -43174.419    34.781962   0.95450648 
   18200    229.84359   -358.52506    131101.48   -40401.598    2859.6912    -43261.29    35.022451   0.95264748 
   18300    226.99855   -394.33886    131146.16   -40313.098    2824.2936   -43137.392    35.329667   0.95232293 
   18400    227.39435   -362.78919    131006.53   -40379.941    2829.2181   -43209.159    35.412727   0.95333794 
   18500    225.33358   -339.00611    130894.64   -40338.227    2803.5781   -43141.805    35.660402   0.95415283 
   18600    225.02335   -178.53999     130824.8   -40394.937    2799.7183   -43194.655    35.755653   0.95466217 
   18700    225.26827   -487.95897    130968.55   -40354.007    2802.7656   -43156.773    36.034764    0.9536144 
   18800    227.18106   -250.14685    131004.36   -40326.022    2826.5643   -43152.587    36.048026   0.95335373 
   18900    224.88278   -480.95069    130901.23   -40355.723    2797.9693   -43153.692    35.907326    0.9541048 
   19000    226.52162   -480.99643    130820.85   -40343.258    2818.3597   -43161.618     35.93829   0.95469101 
   19100    222.47737   -481.21719    130676.35   -40408.705    2768.0414   -43176.747    36.282426   0.95574674 
   19200      223.931    -398.2881    130829.94   -40375.122    2786.1273    -43161.25    36.371075   0.95462466 
   19300    224.72744   -293.75252    130920.53   -40315.926    2796.0366   -43111.962    36.720706   0.95396411 
   19400    225.58244   -366.09904    130906.94   -40324.439    2806.6744   -43131.113    36.898973   0.95406321 
   19500    227.41399   -329.20168    130870.83   -40318.013    2829.4624   -43147.476    37.110211   0.95432641 
   19600    229.55288   -433.88628    130804.41   -40355.385    2856.0742   -43211.459    37.262621   0.95481104 
   19700    226.95593   -346.84737    130881.79   -40333.762    2823.7632   -43157.525     37.06039   0.95424653 
   19800    223.92352   -367.19885    130928.64   -40368.872    2786.0343   -43154.906    37.393542   0.95390506 
   19900     225.2803   -281.66985    131217.58   -40359.255    2802.9153    -43162.17     37.79875   0.95180457 
   20000    224.70481   -496.33119    131156.13   -40409.711    2795.7551   -43205.466    37.861005   0.95225048 
   20100    226.52505   -394.08257    131077.65   -40365.242    2818.4022   -43183.644    37.975567   0.95282065 
   20200    225.30572   -511.88622    131148.77   -40426.449    2803.2315    -43229.68    38.226749   0.95230393 
   20300    226.61659    -384.2815    130942.65    -40469.33    2819.5413   -43288.871    38.154242   0.95380302 
   20400    222.94682   -409.52634    130879.12    -40464.77    2773.8823   -43238.653    38.044256   0.95426595 
   20500    223.66164   -416.08081    130786.26    -40436.36     2782.776   -43219.135    38.320923   0.95494349 
   20600    225.67958   -240.61864    130851.23   -40468.784     2807.883   -43276.667    38.625105   0.95446939 
   20700    222.87021   -431.17824    130919.98   -40408.437    2772.9291   -43181.366     38.45332   0.95396813 
   20800     227.0222   -342.02572    130818.47   -40409.161    2824.5877   -43233.748    38.469288   0.95470843 
   20900    220.54783   -510.41696    130839.23   -40435.516    2744.0343    -43179.55     38.49329   0.95455692 
   21000    220.36282   -485.18005    130864.38    -40513.13    2741.7324   -43254.863    38.591807   0.95437344 
   21100    220.76807   -468.22975    130804.08    -40536.62    2746.7746   -43283.394     38.87343   0.95481343 
   21200    216.26671   -430.99494    130779.14   -40505.383    2690.7691   -43196.152    39.254059   0.95499554 
   21300    220.73458   -366.61571    130566.26   -40507.748    2746.3579   -43254.106    39.220655   0.95655255 
   21400    222.40439   -477.60719    130765.13   -40463.454    2767.1334   -43230.588    39.174498   0.95509783 
   21500     225.4995   -212.06247    130736.71   -40455.896    2805.6425   -43261.539    38.981142   0.95530547 
   21600    226.93856   -545.30291    130610.12   -40401.571    2823.5471   -43225.118    39.159727   0.95623137 
   21700    222.66753   -304.66035    130514.52   -40379.872    2770.4074   -43150.279    39.317809   0.95693178 
   21800    226.98458   -520.03482    130324.55   -40371.754    2824.1196   -43195.874    39.237844   0.95832668 
   21900    223.83883   -241.78641     130530.2   -40385.144    2784.9806   -43170.125    39.409016   0.95681685 
   22000    224.76413   -465.64653    130604.92   -40432.939     2796.493   -43229.432    39.564062   0.95626938 
   22100    230.20755   -384.50662     130647.3   -40366.216    2864.2196   -43230.435    39.850565   0.95595925 
   22200    224.27731   -215.36219    130755.26   -40399.858    2790.4361   -43190.294     39.97817   0.95516992 
   22300    227.06112   -479.24085    130877.07   -40386.012     2825.072   -43211.084    40.153457   0.95428092 
   22400    224.57103   -377.90571    130933.36   -40362.141    2794.0905   -43156.231    40.572388   0.95387069 
   22500    228.23283   -494.64647    130912.13   -40375.808    2839.6503   -43215.458    40.827469   0.95402535 
   22600    228.66043   -531.97007    130833.07   -40337.652    2844.9705   -43182.622    40.908822   0.95460187 
   22700    228.37965   -475.62774    130880.35   -40335.872     2841.477   -43177.349    41.197467   0.95425704 
   22800    230.59657   -373.56008    131041.89   -40316.337    2869.0597   -43185.397    41.180299   0.95308065 
   22900    224.84769   -559.05669    131146.43   -40362.867    2797.5327     -43160.4    41.178584   0.95232092 
   23000    226.42989   -333.73041    131008.39   -40350.876    2817.2183   -43168.095    41.551131   0.95332435 
   23100    218.78769   -495.08038    130987.09   -40450.473    2722.1348   -43172.607    41.586346   0.95347938 
   23200    225.58357   -441.71919    130986.45   -40397.557    2806.6884   -43204.246    41.616256   0.95348408 
   23300    223.04543   -251.31871    131334.24   -40445.744    2775.1091   -43220.853    41.910471   0.95095908 
   23400    229.54738   -437.55811    131159.49   -40391.328    2856.0058   -43247.334    42.057855   0.95222608 
   23500    226.73169   -490.84887     131172.4   -40436.204    2820.9733   -43257.178    42.145686   0.95213238 
   23600     221.2266    -316.9738    130989.84   -40426.401    2752.4795   -43178.881     42.17512   0.95345935 
   23700    222.99793   -312.62191    131176.08   -40482.979    2774.5183   -43257.497    42.509031   0.95210569 
   23800    219.36817   -361.99169    131153.76   -40551.851     2729.357   -43281.208    42.463725   0.95226771 
   23900    223.51156   -436.97034    131161.46   -40579.719    2780.9088   -43360.627    42.665633    0.9522118 
   24000    225.89441   -394.71524    131114.58    -40501.48    2810.5559   -43312.036    42.939543   0.95255225 
   24100    221.90014   -290.48566    131238.62   -40509.023    2760.8596   -43269.883    42.913365   0.95165198 
   24200    219.46807   -325.58228    131308.83   -40559.434       2730.6   -43290.034    43.154888   0.95114311 
   24300    226.13068   -372.68081    131338.05   -40529.599    2813.4956   -43343.094    43.429403   0.95093153 
   24400     222.5872   -355.55161    131293.78   -40572.826    2769.4079   -43342.234    43.562064   0.95125217 
   24500    224.47432   -464.41665    131406.51   -40525.285    2792.8873   -43318.172    43.706461   0.95043609 
   24600    224.65636   -355.58361    131312.97   -40509.712    2795.1523   -43304.864    43.815162    0.9511131 
   24700    222.31834   -525.44807    131154.81   -40525.318    2766.0627   -43291.381    43.729589   0.95226012 
   24800    222.86911   -398.73049    131316.98   -40519.592    2772.9154   -43292.507     44.11158   0.95108411 
   24900    223.02472   -451.56518    131368.54   -40468.106    2774.8515   -43242.957     44.15771   0.95071079 
   25000    229.60631    -372.3737    131155.76   -40460.788     2856.739   -43317.527    43.952548    0.9522532 
   25100    226.17433   -248.34622    131236.23   -40458.208    2814.0386   -43272.246    43.962555   0.95166928 
   25200    219.66673   -470.88075    131322.92   -40491.897    2733.0718   -43224.968    44.314005   0.95104111 
   25300    223.30122   -315.07624    131212.25   -40496.909    2778.2917     -43275.2    44.290979   0.95184323 
   25400    223.71223   -538.98171    131136.06   -40481.823    2783.4055   -43265.229    44.524153   0.95239627 
   25500    228.51284   -282.87083    131164.04    -40437.81    2843.1341   -43280.945    44.809134   0.95219311 
   25600    223.37962    -376.5792    131144.55   -40519.639    2779.2672   -43298.906    44.939147   0.95233456 
   25700    226.11699   -463.76753    131129.76   -40535.899    2813.3253   -43349.224    44.952009   0.95244199 
   25800    223.85229   -291.83492    131283.53   -40514.537     2785.148   -43299.685    45.125979   0.95132641 
   25900    228.81343   -308.71037    131546.16   -40454.127    2846.8741   -43301.001    45.407918   0.94942713 
   26000    226.80166    -243.2548    131434.17   -40381.762    2821.8438   -43203.606    45.348096   0.95023607 
   26100    222.83749   -391.86797     131463.4   -40465.014    2772.5221   -43237.536    45.586945   0.95002481 
   26200    224.38103   -373.50761    131347.86   -40452.255    2791.7266   -43243.981    45.660979   0.95086051 
   26300    226.77959   -552.67829    131359.39   -40431.964    2821.5693   -43253.533    45.897257   0.95077701 
   26400    228.45457   -358.26202    131416.78   -40411.591    2842.4092       -43254    46.043535   0.95036186 
   26500    223.55396   -332.42867    131335.38    -40467.06    2781.4363   -43248.496    46.006451   0.95095081 
   26600    222.71637    -326.8451     131287.1   -40510.161     2771.015   -43281.176    46.213796   0.95130054 
   26700    224.24088   -490.68719    131373.75    -40542.27    2789.9828   -43332.253    46.368309   0.95067314 
   26800    226.14609   -350.96491    131517.49   -40473.466    2813.6874   -43287.153    46.649568   0.94963409 
   26900    226.17308   -290.62636    131496.16   -40473.722     2814.023   -43287.745    46.706792   0.94978813 
   27000    220.05666   -336.38282    131520.34   -40521.665    2737.9232   -43259.588    46.622997   0.94961352 
   27100    223.71872    -456.1602     131585.6   -40538.024    2783.4862    -43321.51    46.748313   0.94914257 
   27200    221.55301   -306.98819    131676.45   -40544.335    2756.5407   -43300.876    46.812809   0.94848771 
   27300    222.55886   -421.25935    131685.03   -40556.965    2769.0553   -43326.021    46.927846   0.94842587 
   27400    224.09578   -564.03701    131686.92    -40491.62    2788.1775   -43279.797    46.886104   0.94841228 
   27500    226.61448   -471.82475    131611.77   -40410.742     2819.515   -43230.257    47.251856   0.94895383 
   27600    225.22665   -321.57165    131637.98   -40432.393    2802.2478   -43234.641    47.290666   0.94876489 
   27700    227.64043   -439.94465    131512.98   -40444.465    2832.2798   -43276.745    47.758589   0.94966667 
   27800    224.73063   -390.16712    131608.97   -40384.022    2796.0763   -43180.099    47.636512   0.94897401 
   27900    224.43097   -340.59334    131536.76   -40419.845     2792.348   -43212.193    47.688547   0.94949497 
   28000    224.19423   -472.77954    131557.22   -40467.529    2789.4025   -43256.932    47.671022   0.94934727 
   28100    227.78207   -337.77927    131823.77   -40454.354    2834.0419   -43288.396     47.78832   0.94742773 
   28200    226.84209   -594.44842    131763.58   -40517.568    2822.3469   -43339.915    48.058024   0.94786049 
   28300    224.68051   -307.09238    131614.26   -40523.147    2795.4527     -43318.6    48.455741   0.94893588 
   28400    221.07398   -526.13859    131535.68   -40564.721    2750.5806   -43315.301    48.411504   0.94950279 
   28500    221.95061   -424.31972    131428.67   -40588.304    2761.4875   -43349.791    48.210898   0.95027587 
   28600     223.5856   -290.67492    131431.47   -40533.969    2781.8299   -43315.799    48.541633    0.9502556 
   28700    225.46125   -310.08059    131770.36    -40535.56    2805.1666   -43340.726     48.83936   0.94781169 
   28800    225.55495   -502.18657    131752.89   -40510.449    2806.3324   -43316.781    48.992075   0.94793742 
   28900    224.03166   -489.97236    131842.39   -40483.838    2787.3798   -43271.217    49.051308   0.94729386 
   29000    225.18061    -495.7184     131782.5     -40563.8    2801.6749   -43365.475    48.970253   0.94772443 
   29100    223.39199   -217.62686    131848.93   -40503.189    2779.4211   -43282.611    49.141821    0.9472469 
   29200    229.63586   -434.31787    131981.53   -40474.812    2857.1067   -43331.918    49.225283   0.94629519 
   29300    223.72232   -557.38496    132096.85   -40540.071    2783.5309   -43323.602    49.379765   0.94546911 
   29400    223.95386   -444.11738    132191.82   -40580.497    2786.4117   -43366.909    49.794495   0.94478989 
   29500    223.81232   -502.31754    132020.72   -40608.266    2784.6508   -43392.917    49.674892   0.94601428 
   29600    225.65457   -428.27698    131976.92   -40528.407    2807.5718   -43335.978    49.858426   0.94632826 
   29700    221.94235   -508.32448    131999.09   -40575.123    2761.3848   -43336.508    49.652341   0.94616931 
   29800    226.16418    -194.6058     132049.1   -40555.462    2813.9124   -43369.374    49.899833   0.94581101 
   29900    224.82659   -415.90392    132295.61   -40598.996    2797.2702   -43396.266    50.132791   0.94404865 
   30000     223.5897   -418.79475     131988.5   -40588.852    2781.8809   -43370.733    50.112964   0.94624523 
   30100    223.89255   -500.95198    131999.12   -40588.325    2785.6489   -43373.974    50.161276   0.94616914 
   30200    222.33402   -356.97698    132024.73   -40603.953    2766.2579   -43370.211    50.181556   0.94598556 
   30300    223.62905   -366.03806    131773.77   -40567.129    2782.3706     -43349.5    50.344826   0.94778719 
   30400    224.09982   -312.67565    131843.27   -40529.433    2788.2278   -43317.661    50.789605   0.94728754 
   30500    223.76299   -416.07982    131772.27    -40518.87     2784.037   -43302.907    50.915334   0.94779799 
   30600    228.38848   -469.71851    131939.97    -40517.65    2841.5869   -43359.237    50.969895   0.94659331 
   30700    222.53338   -372.35832    131895.86   -40540.185    2768.7383   -43308.923    51.053293   0.94690984 
   30800    229.08211   -537.03073    131818.85   -40467.339     2850.217   -43317.556    50.831293   0.94746308 
   30900    223.79256   -293.38282    131943.94    -40580.71    2784.4049   -43365.115    50.746794   0.94656483 
   31000    218.80311   -477.95784    131893.85   -40615.729    2722.3266   -43338.055    50.638681   0.94692432 
   31100    225.89007   -496.16257    131724.36   -40617.432     2810.502   -43427.934    50.818649    0.9481427 
   31200    222.57764   -342.09398    131752.47   -40632.849    2769.2889   -43402.138    51.121525    0.9479404 
   31300    228.18872   -466.05037    131861.76   -40586.545    2839.1015   -43425.647    51.425166   0.94715474 
   31400    221.99621   -384.47978    131899.07    -40550.31    2762.0548   -43312.365    51.934705   0.94688685 
   31500    220.73447   -466.67014    131805.06   -40600.078    2746.3565   -43346.434    51.956618   0.94756216 
   31600    227.20122   -408.16793    131636.96   -40535.728    2826.8151   -43362.543    52.030231    0.9487722 
   31700    226.93789   -242.71083    131848.84   -40563.648    2823.5388   -43387.187    52.193229   0.94724754 
   31800     226.0822   -391.87954     132081.4   -40503.808    2812.8923     -43316.7    52.191817   0.94557972 
   31900    227.66939   -394.54947    131890.61   -40510.417    2832.6401   -43343.057    52.178344   0.94694755 
   32000    229.11101     -478.157    131806.09   -40494.195    2850.5765   -43344.771    52.259293   0.94755477 
   32100    226.16872    -425.3545    131908.55   -40502.424    2813.9689   -43316.393    52.566443   0.94681875 
   32200    227.50535     -323.232    131801.22   -40504.292    2830.5991   -43334.891    52.460165   0.94758983 
   32300    227.43638    -256.9813    131799.82   -40498.599    2829.7409    -43328.34    52.563664   0.94759989 
   32400    228.32458   -370.53802    131659.76   -40564.534    2840.7918   -43405.326    52.580564   0.94860793 
   32500    222.10171   -423.99766    131431.94   -40574.185    2763.3676   -43337.552    52.566414   0.95025217 
   32600    227.45742   -550.11763    131494.13   -40508.684    2830.0027   -43338.687    52.476957   0.94980275 
   32700    224.39183   -382.66001    131476.86   -40570.734     2791.861   -43362.595    52.731447   0.94992752 
   32800    223.92471   -305.30365    131694.21   -40606.386    2786.0491   -43392.436    53.266038   0.94835977 
   32900    222.46431   -375.57595    131748.53   -40613.097    2767.8789   -43380.975    53.287368   0.94796875 
   33000    225.43809   -208.33092    131755.56   -40669.155    2804.8785   -43474.034    53.429991   0.94791819 
   33100    224.35187   -460.56018    131764.63   -40592.301    2791.3637   -43383.665    53.539105   0.94785296 
   33200    219.76529   -431.65613    131681.09   -40629.775     2734.298   -43364.073    53.537108   0.94845423 
   33300    224.16804   -348.65987    131737.97   -40556.555    2789.0766   -43345.631    53.569942   0.94804475 
   33400     226.5087    -458.2746    131635.94   -40646.119    2818.1988   -43464.318    53.487854   0.94877956 
   33500    219.30471   -371.79747     131542.3   -40606.846    2728.5675   -43335.414    53.656563   0.94945495 
   33600    225.63153   -239.91265    131703.82   -40574.412    2807.2852   -43381.697    53.999732    0.9482906 
   33700    224.27845   -370.42917    131761.68   -40569.758    2790.4503   -43360.208     54.02947   0.94787413 
   33800    222.66458   -435.65759    131732.62   -40561.677    2770.3708   -43332.048    54.165962   0.94808324 
   33900    225.03248   -338.26167    131756.52   -40582.668    2799.8319     -43382.5    54.341847   0.94791131 
   34000    228.23612   -514.81229    131864.89    -40552.41    2839.6913   -43392.102    54.417403   0.94713227 
   34100    226.04893   -423.53182    131662.29   -40601.554    2812.4784   -43414.032     54.18431   0.94858972 
   34200     221.2376   -669.20366     131621.6   -40606.512    2752.6163   -43359.128    54.115132   0.94888297 
   34300    224.07946   -285.51395    131556.12   -40652.178    2787.9745   -43440.153    54.279053   0.94935527 
   34400    226.26132    -308.8383    131797.21   -40569.135     2815.121   -43384.256    54.312773   0.94761864 
   34500     225.8614   -407.71703    131710.83   -40596.184    2810.1453    -43406.33    54.407227   0.94824013 
   34600    224.22139    -263.8147    131707.14   -40579.991    2789.7403   -43369.731    54.565809   0.94826666 
   34700    220.10284   -359.93563    131754.23   -40658.092    2738.4978    -43396.59    54.878991   0.94792773 
   34800    225.67959   -356.78036    131875.89   -40657.618    2807.8832   -43465.502    55.036471   0.94705325 
   34900    222.01227   -254.88327     131906.4   -40677.023    2762.2548   -43439.278    55.263791   0.94683421 
   35000    219.18114    -498.8518    131686.53   -40760.738    2727.0301   -43487.768    54.960472   0.94841507 
   35100    224.32679   -569.89399    131490.25    -40699.94    2791.0517   -43490.992    54.956237   0.94983081 
   35200    224.71352   -289.80322    131602.42   -40706.065    2795.8634   -43501.929    54.894098   0.94902121 
   35300    225.90247    -518.6627    131702.47    -40686.99    2810.6562   -43497.646    55.225588   0.94830033 
   35400    220.44826   -262.62988    131737.33   -40697.768    2742.7955   -43440.563    55.368874   0.94804934 
   35500    225.47687   -414.93381     131916.6    -40579.65     2805.361   -43385.011    55.715239     0.946761 
   35600    228.07002    -407.8086    131926.66   -40622.391    2837.6246   -43460.015    55.640894   0.94668878 
   35700    228.28509   -287.64173    132104.87   -40580.903    2840.3005   -43421.204    55.688819   0.94541168 
   35800    225.71174   -347.10078    132098.14   -40614.169    2808.2832   -43422.452    55.781243    0.9454599 
   35900     225.7728   -360.65239    131954.45   -40553.459    2809.0429   -43362.502    56.101883   0.94648943 
   36000    222.89403   -431.82104    131989.03    -40504.85    2773.2255   -43278.076    56.172309   0.94624143 
   36100    223.19885   -388.83613     131921.9   -40519.533     2777.018   -43296.551    56.384313   0.94672295 
   36200    226.98734   -230.96848     132123.2   -40545.165    2824.1541   -43369.319    56.674545   0.94528057 
   36300    225.17357   -649.78264    132012.02   -40595.055    2801.5873   -43396.642    56.506219   0.94607669 
   36400    225.40266   -503.73309    131855.79   -40529.942    2804.4376   -43334.379    56.507804    0.9471976 
   36500    225.67532   -416.91734    131770.73    -40522.81      2807.83    -43330.64    56.439811   0.94780903 
   36600    217.51768   -492.42693    131905.28   -40632.031    2706.3334   -43338.365    56.497494   0.94684224 
   36700    224.43665   -512.85902     131837.7   -40571.777    2792.4187   -43364.196    56.459537   0.94732762 
   36800    220.74518   -535.61292    131969.27    -40545.31    2746.4897     -43291.8    56.706366   0.94638311 
   36900    221.90736   -417.26175    131753.11   -40565.806    2760.9495   -43326.755    56.653583   0.94793581 
   37000    225.68135   -370.20772    131702.55   -40497.043    2807.9051   -43304.948    56.556275   0.94829969 
   37100    226.28303   -524.57369     131575.2   -40484.317    2815.3911   -43299.708    56.740661   0.94921754 
   37200     222.0921    -403.9612    131487.45   -40533.399     2763.248   -43296.647      56.9758   0.94985106 
   37300    220.69864   -544.82095    131620.15   -40530.919    2745.9106   -43276.829    57.220143    0.9488934 
   37400    222.41179   -326.24561    131706.04   -40560.548    2767.2255   -43327.773    57.027984   0.94827461 
   37500    222.55382    -289.5362    131813.17   -40571.962    2768.9926   -43340.955    57.074692   0.94750392 
   37600    228.38879   -362.63922    131925.46   -40517.095    2841.5908   -43358.686      57.1195   0.94669742 
   37700    221.15448   -416.73793    132061.63   -40532.751    2751.5821   -43284.333    57.303338   0.94572127 
   37800    220.43922   -390.06284     131962.2   -40633.054    2742.6829   -43375.737    57.517027   0.94643383 
   37900    224.36517   -520.84617     131752.7   -40605.123    2791.5293   -43396.652    57.488742   0.94793879 
   38000    221.47289   -480.71192    131717.84   -40587.016    2755.5438    -43342.56     57.62167   0.94818964 
   38100    224.85267   -276.30352    131877.04   -40535.939    2797.5947   -43333.533    57.539146   0.94704499 
   38200    218.68038   -449.11266     131748.3   -40543.326    2720.7996   -43264.125    57.477837   0.94797042 
   38300    228.85226   -425.46162    131675.88   -40473.923    2847.3572    -43321.28    57.515484   0.94849177 
   38400    222.69464   -526.49857    131775.78    -40518.35    2770.7447   -43289.095    57.834073   0.94777272 
   38500    221.57595   -282.62536    131573.52   -40525.344    2756.8261    -43282.17    57.944041   0.94922968 
   38600    225.49429    -486.9724    131534.37   -40468.474    2805.5777   -43274.052    57.981667   0.94951219 
   38700    223.84093   -409.95981    131376.04   -40468.309    2785.0067   -43253.316    58.054302   0.95065653 
   38800    220.28009   -398.66475    131359.69   -40485.751    2740.7032   -43226.454    58.233268   0.95077484 
   38900    224.27859    -359.3887    131460.28    -40444.46    2790.4521   -43234.912    58.073257   0.95004735 
   39000    223.64274   -545.00724    131414.32   -40483.023    2782.5409   -43265.564     58.37647   0.95037962 
   39100    224.45285   -315.98218     131411.8   -40452.069    2792.6202   -43244.689    58.473316   0.95039787 
   39200    225.14763   -460.40906    131223.76   -40470.879    2801.2645   -43272.144    58.764316   0.95175977 
   39300    223.39344   -157.30368     131225.8   -40476.318    2779.4391   -43255.757    58.804165   0.95174496 
   39400    226.76107   -419.67086    131122.07   -40451.159    2821.3388   -43272.498    58.662372   0.95249787 
   39500          230   -343.26898    131045.66   -40446.031    2861.6372   -43307.668    58.616849   0.95305325 
   39600    225.76819   -285.77963    131092.88   -40497.979    2808.9855   -43306.965    58.936866   0.95270994 
   39700    228.46669   -286.81841    131164.57   -40457.637    2842.5599   -43300.197    59.136241   0.95218926 
   39800    226.14736   -420.64937    131295.44    -40519.49    2813.7031   -43333.193    59.320069   0.95124012 
   39900    222.00597   -368.09328    131487.24   -40560.076    2762.1763   -43322.252    59.251703   0.94985254 
   40000    218.96864   -415.58132    131371.02   -40589.855    2724.3861   -43314.241    59.449992   0.95069286 
   40100    225.84295   -444.27953    131319.51   -40479.981    2809.9157   -43289.897    59.689831   0.95106574 
   40200    224.61459   -431.14995    131222.34   -40498.198    2794.6325    -43292.83    59.500031   0.95177004 
   40300    227.27604    -269.6151    131208.41   -40465.278    2827.7461   -43293.024    59.835836   0.95187106 
   40400     233.0037    -344.1736    131317.02   -40353.635     2899.009   -43252.644    60.044823   0.95108381 
   40500     228.0299   -398.04564    131055.85   -40387.666    2837.1255   -43224.792    60.127869   0.95297916 
   40600    225.78811   -233.03799    130978.87    -40418.55    2809.2333   -43227.783    60.294653   0.95353924 
   40700    223.72696    -620.7854    131029.58    -40451.79    2783.5887   -43235.379    60.349377   0.95317019 
   40800    224.60362   -407.78217    131172.89   -40497.742     2794.496   -43292.238    60.553727   0.95212885 
   40900    220.03491   -316.59171    131405.24   -40519.241    2737.6526   -43256.894    60.899188    0.9504453 
   41000    225.31877   -556.97776    131158.01   -40428.923    2803.3938   -43232.317    60.654803   0.95223687 
   41100    227.98221   -488.67685    131051.45   -40412.256    2836.5321   -43248.788    60.828993   0.95301116 
   41200    227.37951   -433.46563    131015.34   -40430.652    2829.0334   -43259.685    60.853368    0.9532738 
   41300    218.35298   -590.12251    130953.08   -40585.498    2716.7262   -43302.224    61.087496   0.95372702 
   41400    224.23117   -389.96299    131051.98   -40529.113    2789.8621   -43318.975    61.244261   0.95300731 
   41500    228.50387   -661.82978    131150.47   -40541.176    2843.0226   -43384.199    61.635761   0.95229157 
   41600    222.31441   -336.75675    131132.56   -40523.101    2766.0139   -43289.115    61.832061   0.95242168 
   41700    220.67265   -358.23564    131218.17   -40493.458    2745.5872   -43239.045    61.936024   0.95180025 
   41800    223.59469   -586.16797    131100.54   -40521.576     2781.943   -43303.519    62.051052   0.95265426 
   41900    229.64199   -562.88814    131120.51   -40509.239    2857.1829   -43366.422    62.169988   0.95250921 
   42000     226.2754   -427.79454    131151.56   -40516.904    2815.2962     -43332.2    62.266855   0.95228369 
   42100    219.86477   -398.67536    130981.98    -40512.73    2735.5358   -43248.266    62.286383   0.95351659 
   42200    225.62751    -341.2437    131150.87   -40467.126    2807.2352   -43274.361    62.525827   0.95228871 
   42300    224.86808   -386.04797    131090.05   -40450.577    2797.7864   -43248.363    62.711112    0.9527305 
   42400    227.34794   -183.35215    131380.08   -40482.376    2828.6406   -43311.016    63.122105   0.95062727 
   42500    225.65911   -275.85138    131501.26    -40465.48    2807.6284   -43273.108    63.508776   0.94975126 
   42600    225.97098   -472.11726    131457.19   -40461.134    2811.5086   -43272.643    63.589567   0.95006971 
   42700    226.89991   -411.09253    131416.46   -40482.201    2823.0662   -43305.267    63.746379   0.95036413 
   42800    229.40667   -345.59536    131178.74   -40448.519    2854.2551   -43302.774    63.615482   0.95208638 
   42900    226.25175    -444.4631    131176.67   -40511.283    2815.0019   -43326.285    63.853852   0.95210138 
   43000    220.77537   -363.75691    131027.29   -40535.164    2746.8653   -43282.029    63.860603   0.95318684 
   43100    223.04228   -277.76357    131042.39    -40513.96      2775.07    -43289.03    63.815502   0.95307705 
   43200    227.37005   -647.94545    130911.73   -40478.711    2828.9156   -43307.627    64.276157   0.95402825 
   43300    227.16314   -464.21136    130909.06   -40501.951    2826.3414   -43328.292    64.331811   0.95404775 
   43400    224.54078   -298.99253    131115.15   -40455.757    2793.7142   -43249.471     64.60366   0.95254812 
   43500    226.97459   -318.60671    131162.06   -40463.369    2823.9954   -43287.364    64.770067   0.95220742 
   43600    228.96257   -371.20596    131093.56   -40368.071    2848.7297   -43216.801    64.602925   0.95270501 
   43700    229.98985     -612.076     131055.6   -40401.566    2861.5109   -43263.077    64.546764   0.95298096 
   43800    228.89584   -225.38891    131291.28   -40408.613    2847.8994   -43256.513    64.924221    0.9512703 
   43900    229.02878   -395.16651    131288.27   -40449.468    2849.5534   -43299.021    65.099188   0.95129207 
   44000     228.2077   -520.45669    131199.41   -40481.302    2839.3377    -43320.64     65.42743   0.95193639 
   44100    222.81867   -315.64156    131098.66   -40503.886    2772.2878   -43276.174    65.354819   0.95266795 
   44200    221.33858   -399.28289    131267.74   -40527.229    2753.8727   -43281.102    65.449403   0.95144087 
   44300    220.93019   -357.65608    131324.09   -40526.726    2748.7916   -43275.518    65.480821   0.95103259 
   44400    227.54776   -424.02776     131240.9    -40488.94    2831.1267   -43320.067    65.521167   0.95163547 
   44500    224.40992   -484.20581    131375.17   -40527.099    2792.0861   -43319.185    65.861155    0.9506628 
   44600    221.20477   -386.48022    131349.73   -40597.082    2752.2079   -43349.289    65.821027   0.95084693 
   44700    225.16315   -464.93142    131327.62   -40573.633    2801.4576   -43375.091    66.127392   0.95100704 
   44800    224.93999   -424.94206    131142.09   -40533.731    2798.6811   -43332.412    66.271172   0.95235246 
   44900    227.55375   -401.99223     131221.6   -40477.491    2831.2012   -43308.692    66.180225   0.95177539 
   45000    223.88278   -385.52468    131217.88   -40475.361    2785.5274   -43260.888    66.526248   0.95180236 
   45100    221.70434   -501.56694    131253.22   -40409.436    2758.4234   -43167.859    66.729653   0.95154614 
   45200    222.03079   -615.81777     131190.2   -40456.896    2762.4851   -43219.381    66.685147   0.95200318 
   45300    227.53835   -247.40847    131487.13    -40459.76    2831.0097   -43290.769    66.953447   0.94985334 
   45400    228.33005   -558.48525    131466.14   -40430.653      2840.86   -43271.513    66.707869   0.95000501 
   45500    224.30586   -309.96518    131394.48   -40436.849    2790.7913    -43227.64    66.920389   0.95052314 
   45600    227.50977   -404.70871    131229.53   -40430.369    2830.6541   -43261.023    67.061519   0.95171788 
   45700    221.79598   -233.41244    131343.57   -40458.526    2759.5637    -43218.09    67.398222   0.95089158 
   45800    230.52502    -545.5132    131376.34   -40406.479    2868.1696   -43274.648    67.754037   0.95065437 
   45900    226.34806   -487.48147    131123.94   -40338.627    2816.2002   -43154.828    67.706762   0.95248429 
   46000    228.78644   -352.23661    131262.72   -40318.252    2846.5382   -43164.791    67.826265   0.95147728 
   46100    231.07658   -369.79699    131188.24   -40274.852     2875.032   -43149.884    67.790954   0.95201745 
   46200    231.83661   -534.92391    131108.55   -40268.417    2884.4882   -43152.905    67.811356   0.95259606 
   46300    229.61396   -362.34137    131033.96   -40295.146    2856.8342   -43151.981    68.179568   0.95313834 
   46400    227.87744   -402.20224    130991.07   -40319.972    2835.2286   -43155.201    68.798535   0.95345045 
   46500    227.49426   -367.81784    131033.13   -40331.837    2830.4611   -43162.298    69.115265   0.95314435 
   46600    224.63809   -302.82429    130973.09   -40313.689    2794.9249   -43108.614    69.328478   0.95358132 
   46700    223.86429    -421.2344    130792.12   -40406.665    2785.2974   -43191.963    69.206175    0.9549007 
   46800    224.21593   -528.87173    130715.59   -40463.358    2789.6724    -43253.03    69.329926   0.95545981 
   46900    223.89164   -246.24897    130600.91   -40388.955    2785.6377   -43174.593    69.510323   0.95629881 
   47000    228.21076     -255.781    130685.21   -40372.857    2839.3757   -43212.233    69.645108    0.9556819 
   47100    228.25946   -292.92576       130896   -40353.793    2839.9816   -43193.774    69.961592   0.95414289 
   47200     223.1328   -568.80324    130956.75   -40418.761    2776.1962   -43194.958    70.184456   0.95370032 
   47300    224.08877   -491.55379    130668.29   -40434.368    2788.0904   -43222.458    70.409836   0.95580567 
   47400    228.57646    -282.1978    130836.39   -40387.088    2843.9257   -43231.014    70.724086   0.95457764 
   47500    229.85172   -387.20088    130828.67   -40336.673    2859.7924   -43196.465    70.577372   0.95463393 
   47600    230.81492   -327.12645     130651.4   -40304.295    2871.7764   -43176.071    70.498323   0.95592919 
   47700    230.57499   -396.85399    130821.23   -40343.738    2868.7912   -43212.529    70.652892   0.95468825 
   47800    229.88328   -527.15717     130733.9    -40355.16    2860.1851   -43215.345     70.63265   0.95532595 
   47900    222.92711   -334.42893    130646.88   -40446.693     2773.637    -43220.33    70.588626   0.95596227 
   48000      224.518   -505.33628    130761.17   -40471.299    2793.4308    -43264.73    70.717524   0.95512675 
   48100    224.89857   -254.37182    130762.46   -40439.627    2798.1658   -43237.793    70.872671   0.95511734 
   48200    221.92297   -267.80774    130690.26   -40471.717    2761.1437   -43232.861    71.116885   0.95564501 
   48300     223.9975   -436.82392    130599.33   -40443.533    2786.9548   -43230.488    71.221611   0.95631035 
   48400    227.74367   -313.78872    130697.13   -40353.974    2833.5642   -43187.538    71.599341   0.95559474 
   48500    223.32126   -562.89689    130959.17   -40400.648     2778.541   -43179.189    71.682261   0.95368268 
   48600     223.8707   -391.38106    131021.42   -40408.107    2785.3771   -43193.484    71.915379   0.95322956 
   48700    224.74195   -269.28163       130784   -40352.386    2796.2171   -43148.603    72.193943   0.95496003 
   48800    223.49747   -508.77124    131065.35   -40383.061    2780.7335   -43163.794    72.265587   0.95291008 
   48900    231.26258   -385.52247    130953.99   -40369.437    2877.3461   -43246.784    72.643501   0.95372037 
   49000     228.3128   -484.44057    130721.97   -40417.163    2840.6453   -43257.808    72.739361   0.95541314 
   49100    223.16776   -610.24845    130712.14   -40416.374    2776.6312   -43193.005    73.074265   0.95548498 
   49200    219.27377   -327.19472     130584.6   -40424.502    2728.1826   -43152.684    72.919406   0.95641825 
   49300    228.04902    -278.3414    130721.58   -40369.817    2837.3633    -43207.18    72.853241   0.95541602 
   49400    231.17845   -132.79896    131001.94   -40355.969    2876.2994   -43232.268    73.078373   0.95337128 
   49500    228.35793   -462.80222    131187.88   -40372.937    2841.2068   -43214.144    73.256804   0.95202003 
   49600    224.21443   -369.36381    131177.02   -40367.388    2789.6538   -43157.042     73.48392   0.95209885 
   49700    226.15282    -421.4771    131080.34   -40383.508     2813.771   -43197.279    73.826653   0.95280107 
   49800    221.94187   -341.60571    131018.26   -40439.378    2761.3788   -43200.757    74.001341   0.95325252 
   49900    228.66239   -447.32919    131122.87   -40325.163    2844.9949   -43170.158    74.040833   0.95249201 
   50000    226.27776   -338.03426    131147.52   -40382.617    2815.3255   -43197.942    73.909564   0.95231305 
   50100    228.08433   -235.63708    131067.36   -40405.924    2837.8027   -43243.727    74.078205   0.95289546 
   50200    222.70757   -318.89608    131009.28   -40451.347    2770.9055   -43222.252    74.396602   0.95331789 
   50300    227.78885   -247.10154    130879.03   -40419.336    2834.1263   -43253.463    74.389328   0.95426661 
   50400    223.25214   -417.22259    130939.77   -40455.192     2777.681   -43232.873     74.47593   0.95382396 
   50500    223.02655   -323.89289    130931.67   -40503.303    2774.8743   -43278.178     74.75364   0.95388296 
   50600    217.56422   -484.13404    131177.48    -40516.05    2706.9126   -43222.962    74.729781   0.95209553 
   50700    224.05577    -261.1956    131228.22   -40525.287    2787.6797   -43312.967    74.918861   0.95172737 
   50800    223.31644   -458.77325    131267.38   -40521.595    2778.4811   -43300.076    75.085238    0.9514435 
   50900    227.49466   -482.11269    131354.96   -40440.073    2830.4661   -43270.539    75.171697   0.95080913 
   51000    223.73758   -453.82261    131343.99   -40485.639    2783.7208    -43269.36    75.308722   0.95088853 
   51100    226.79159   -292.00937    131392.05    -40538.91    2821.7186   -43360.628    75.463698   0.95054069 
   51200    226.91187   -357.40686    131475.36   -40525.143    2823.2151   -43348.358    75.673893   0.94993841 
   51300    224.52808   -332.54501    131456.38   -40588.606    2793.5562   -43382.162    76.051806   0.95007556 
   51400    216.61536   -499.73969    131266.17   -40577.428    2695.1069   -43272.535    75.683335   0.95145224 
   51500    223.36647   -408.32643    131294.31   -40570.342    2779.1035   -43349.445    75.981155   0.95124831 
   51600    225.71651   -472.46096    131213.31   -40526.018    2808.3425   -43334.361    76.066734   0.95183551 
   51700    225.80871   -384.75976    131398.71   -40525.093    2809.4896   -43334.583    76.373417   0.95049249 
   51800    224.74785   -344.50074    131469.12   -40566.165    2796.2905   -43362.456    76.687698   0.94998345 
   51900    223.16808   -314.53405    131538.43   -40607.399    2776.6351   -43384.034    76.774581   0.94948294 
   52000    224.06644   -369.16806    131322.78   -40646.901    2787.8125   -43434.714    77.055865   0.95104206 
   52100    223.21424   -350.72378    131577.46   -40596.345    2777.2096   -43373.555    76.947521   0.94920128 
   52200    223.04866   -394.89195    131834.36   -40606.252    2775.1493   -43381.402    77.195181   0.94735158 
   52300    223.94281   -465.77405    131711.31   -40598.454    2786.2743   -43384.729    77.189303   0.94823668 
   52400     222.6551    -376.2365    131594.06   -40552.554    2770.2528   -43322.806    77.400244   0.94908152 
   52500    229.45843   -503.43387     131604.7   -40550.099    2854.8992   -43404.998    77.475884   0.94900481 
   52600    223.96193    -390.7279     131470.7   -40567.214    2786.5122   -43353.726    77.817088   0.94997206 
   52700    221.04327   -590.77234    131445.07   -40593.326    2750.1985   -43343.525    77.878356    0.9501573 
   52800    224.73735   -456.18671    131339.88    -40548.07    2796.1599    -43344.23    77.968917   0.95091823 
   52900    227.51299   -394.64017    131291.38   -40535.711    2830.6941   -43366.405    77.988899   0.95126953 
   53000    225.50343   -421.68856    131138.98   -40523.201    2805.6914   -43328.893    77.904458   0.95237503 
   53100     221.6676   -360.50391    130977.72   -40565.411    2757.9664   -43323.377     78.02697   0.95354763 
   53200    222.27655   -512.69728    130891.15   -40562.035    2765.5428   -43327.578    78.038594   0.95417825 
   53300    229.75991   -402.01011    131092.99   -40556.169    2858.6501   -43414.819    78.349401   0.95270916 
   53400    222.86856   -450.18369    131144.96   -40644.096    2772.9086   -43417.005    78.427273   0.95233163 
   53500    224.97051   -278.18296    131203.24   -40663.336    2799.0608   -43462.397    78.148588   0.95190861 
   53600    219.73696   -432.16904    131286.03   -40662.342    2733.9456   -43396.288    78.386474   0.95130831 
   53700    220.76849   -386.61756    131485.49   -40681.574    2746.7798   -43428.354     78.52695   0.94986517 
   53800    226.76296   -424.72779    131399.39   -40582.918    2821.3623   -43404.281    78.713446   0.95048762 
   53900    220.05093   -558.41989    131323.79   -40624.003    2737.8519   -43361.854     78.73052   0.95103479 
   54000    227.35694    -396.1501    131272.16   -40601.639    2828.7526   -43430.392    78.919011   0.95140884 
   54100    227.64701   -390.85256    131333.42   -40621.846    2832.3616   -43454.208    79.255688   0.95096501 
   54200    225.10492   -294.92727    131347.44   -40609.799    2800.7332   -43410.532    79.187421   0.95086351 
   54300    224.85956   -404.37637     131355.1   -40592.834    2797.6804   -43390.514    79.127987   0.95080809 
   54400    226.02378   -326.79811    131485.16   -40630.114    2812.1655   -43442.279    79.066636   0.94986758 
   54500    228.69422   -503.91212    131458.95   -40621.294    2845.3909   -43466.685    79.297065   0.95005693 
   54600    229.31291   -386.48004       131405    -40518.71    2853.0886   -43371.798    79.591873     0.950447 
   54700    224.21299   -367.76682    131420.19   -40525.748    2789.6359   -43315.384    79.932456   0.95033715 
   54800    228.19483   -308.53417    131478.81   -40583.326    2839.1775   -43422.503     79.74045   0.94991343 
   54900    222.91067   -331.46937    131585.12   -40622.438    2773.4325    -43395.87    79.932324   0.94914601 
   55000    220.46811   -573.55492    131770.58   -40675.258    2743.0424   -43418.301     80.03119   0.94781012 
   55100    222.14488   -220.05648    131761.04   -40627.159    2763.9046   -43391.064    80.164844   0.94787877 
   55200    222.81793    -209.7211    131723.33   -40633.537    2772.2786   -43405.816    80.522418   0.94815012 
   55300    223.32187   -322.83655    131695.09   -40574.808    2778.5486   -43353.356     80.64758   0.94835343 
   55400    227.32575   -532.50272    131792.03   -40555.512    2828.3645   -43383.876    80.518368   0.94765589 
   55500    228.99445   -581.37739    131892.66   -40500.811    2849.1263   -43349.937    80.560549   0.94693281 
   55600    226.14325   -412.61184     131614.4   -40557.606    2813.6519   -43371.258    80.645886   0.94893488 
   55700    223.48034   -195.33346    131771.74   -40571.298    2780.5203   -43351.819    80.827346   0.94780178 
   55800     223.5392   -340.99928    131872.19   -40580.328    2781.2526   -43361.581     80.68672   0.94707986 
   55900    228.25914   -403.72982    131945.96   -40549.816    2839.9776   -43389.794    80.999663   0.94655034 
   56000     225.9118   -699.40673    131952.47   -40543.645    2810.7722   -43354.417    80.831267   0.94650362 
   56100    226.17991   -312.70259     131784.2   -40510.104    2814.1081   -43324.213    80.932216   0.94771218 
   56200    230.04418   -207.37414    131716.68   -40528.581     2862.187   -43390.768    81.073039   0.94819799 
   56300    227.82931    -369.4862    131660.11   -40573.414    2834.6297   -43408.043    81.327121   0.94860542 
   56400    226.25456   -392.97187     131765.5   -40560.321    2815.0369   -43375.358    81.426718    0.9478467 
   56500    221.16327   -223.18579    131709.65   -40646.467    2751.6915   -43398.159    81.756281   0.94824857 
   56600    224.00826   -380.46973    131793.29   -40657.007    2787.0887   -43444.096    81.674531   0.94764678 
   56700    224.40012   -553.43494    131826.65   -40702.094    2791.9642   -43494.058    81.656585   0.94740702 
   56800    224.94671   -476.74174    131763.44   -40631.714    2798.7647   -43430.479    81.779499   0.94786151 
   56900    223.20932    -401.1115    131840.94   -40619.517    2777.1483   -43396.665    81.830568   0.94730434 
   57000    229.45791    -352.5992    131778.39   -40563.497    2854.8926   -43418.389    82.001599   0.94775393 
   57100    228.78374   -326.58233     131989.8   -40622.373    2846.5047   -43468.878    81.942962    0.9462359 
   57200    222.22555   -291.70109    131772.56   -40673.129    2764.9083   -43438.037    81.852384   0.94779589 
   57300    219.47776   -298.66205    131759.99   -40723.255    2730.7206   -43453.976    82.243463   0.94788632 
   57400    223.12694   -633.28043    131830.54   -40741.911    2776.1234   -43518.034    81.936796   0.94737906 
   57500    220.20606   -311.76838    131903.91   -40800.037    2739.7821   -43539.819    82.170133   0.94685209 
   57600    218.28444   -279.14317    131782.39   -40764.602    2715.8734   -43480.476    82.343384   0.94772522 
   57700    217.10351    -414.5232    131668.57   -40810.303    2701.1804   -43511.483    82.427188   0.94854445 
   57800    219.42547   -466.79893    131591.24   -40827.707      2730.07   -43557.777    82.189213   0.94910185 
   57900    218.54375   -450.77418     131502.8   -40783.853    2719.0998   -43502.952    82.333968   0.94974017 
   58000    221.48079    -261.9323       131489   -40786.307    2755.6421   -43541.949    82.348688   0.94983983 
   58100    222.37177   -217.31546    131605.12   -40711.173    2766.7276   -43477.901    82.367316   0.94900178 
   58200    223.48749   -246.58206    131734.87   -40654.668    2780.6092   -43435.277    82.679953   0.94806707 
   58300    225.93051   -539.85586    131885.53   -40587.834     2811.005   -43398.839     82.68877   0.94698403 
   58400    226.81477   -316.19705    131845.97   -40581.123    2822.0069    -43403.13    82.931122   0.94726817 
   58500    225.54952   -353.21419    131969.74   -40600.738    2806.2649   -43407.003    83.124115   0.94637973 
   58600    225.55129   -409.16922    131896.96   -40562.976    2806.2869   -43369.263    82.943479   0.94690195 
   58700    230.59115   -265.30333    131879.43   -40573.994    2868.9923   -43442.986    82.768561   0.94702784 
   58800    227.60726   -387.62708    132091.24    -40638.46    2831.8671   -43470.327    82.941978   0.94550929 
   58900    220.65217   -421.53191    132081.49   -40682.202    2745.3325   -43427.534    83.123906   0.94557909 
   59000    220.85197   -397.83974    131943.56   -40659.084    2747.8184   -43406.903    83.279308   0.94656753 
   59100    222.14517   -447.96559     131959.6   -40652.494    2763.9083   -43416.402     83.58633   0.94645246 
   59200    224.17288   -454.03006    132170.99   -40668.356    2789.1368   -43457.493    83.845692   0.94493874 
   59300    223.39949   -315.07123    132315.45    -40665.46    2779.5143   -43444.974    83.793482   0.94390705 
   59400    221.47742   -619.26079    132188.55   -40720.306    2755.6001   -43475.906     83.75465   0.94481321 
   59500    222.31164   -365.75426    131948.85   -40684.721    2765.9795   -43450.701     83.63998   0.94652958 
   59600    225.84913   -346.52658    132053.73   -40658.268    2809.9926    -43468.26    83.844317   0.94577785 
   59700    225.57691    -450.0507    131993.07   -40685.515    2806.6056    -43492.12    83.925114   0.94621248 
   59800    224.55935   -448.96581    131848.37   -40693.002    2793.9452   -43486.948    83.960947   0.94725092 
   59900    229.34787    -385.7882    131899.49   -40662.264    2853.5235   -43515.787    84.348137   0.94688384 
   60000    223.27234   -428.19075    131917.64    -40705.73    2777.9323   -43483.662     84.45583    0.9467535 
   60100     223.3695   -361.30098    131793.72   -40686.976    2779.1412   -43466.117    84.075321   0.94764369 
   60200    225.43406   -403.49805    131667.54   -40671.522    2804.8283    -43476.35    83.968726   0.94855184 
   60300    228.54111   -533.54808    131760.89   -40626.248    2843.4859   -43469.733     84.14234   0.94787981 
   60400    229.76016   -358.55883    131861.19   -40582.892    2858.6532   -43441.545    84.115104   0.94715883 
   60500    225.00354   -420.33631    131857.21   -40616.676    2799.4718   -43416.148    84.218779   0.94718741 
   60600    222.99694    -280.3832    131877.47   -40671.274    2774.5059    -43445.78     84.52282   0.94704191 
   60700    225.26294   -479.24939    131792.34   -40698.086    2802.6992   -43500.785    84.612301   0.94765365 
   60800    226.69174   -502.43359    131801.05   -40654.626    2820.4762   -43475.102    84.905109   0.94759103 
   60900    225.42323   -321.47117    131893.09   -40641.452    2804.6935   -43446.146    84.783951   0.94692976 
   61000     226.3342   -500.87001    131900.66   -40661.133    2816.0277   -43477.161    84.922409    0.9468754 
   61100    223.96718   -464.79161    131763.74   -40701.597    2786.5775   -43488.174    85.055814   0.94785935 
   61200    224.42918   -171.05364    131629.13   -40709.442    2792.3257   -43501.768    84.998547   0.94882864 
   61300    222.60457   -297.19932    131814.97   -40699.667     2769.624   -43469.291    85.106017   0.94749097 
   61400     223.0066   -414.74222    131898.84   -40736.779     2774.626   -43511.406    85.061625   0.94688844 
   61500    224.44368    -457.7758    131835.14   -40747.887    2792.5061   -43540.393    85.384679   0.94734598 
   61600    228.02715   -387.13557    132045.86   -40701.535    2837.0912   -43538.626    85.769733   0.94583424 
   61700     224.4345   -393.31916    131727.98   -40781.484    2792.3919   -43573.876    85.595268   0.94811667 
   61800    224.05768   -464.66296    131845.37   -40836.407    2787.7035    -43624.11    85.518305   0.94727248 
   61900    218.30143   -511.38181    131874.67   -40755.877    2716.0848   -43471.962    85.633099   0.94706202 
   62000    222.60193   -525.58063    131876.16    -40700.03    2769.5912   -43469.621    85.729963    0.9470513 
   62100    224.98017   -431.75849    131668.65   -40716.486    2799.1811   -43515.667    85.734643   0.94854391 
   62200    223.00206   -394.20579    131723.17   -40667.585    2774.5696   -43442.154    86.149872   0.94815126 
   62300    223.29511   -438.77268    131845.01   -40698.886    2778.2156   -43477.101    86.176114   0.94727508 
   62400    226.09305   -454.62833    131817.45   -40626.718    2813.0274   -43439.746    86.174958   0.94747313 
   62500    224.59687   -238.61452    131889.78   -40628.453     2794.412   -43422.865    86.384885   0.94695354 
   62600    223.67341   -285.34642    131925.34   -40634.499    2782.9225   -43417.422    86.534817   0.94669827 
   62700    220.88312   -400.09338    132093.69   -40656.413    2748.2059   -43404.619    86.713068   0.94549175 
   62800    225.31593   -501.66696    132092.63   -40653.665    2803.3585   -43457.023    86.708694    0.9454993 
   62900    226.94851    -497.8633    131880.83   -40608.948    2823.6709   -43432.619    86.600254   0.94701781 
   63000    226.43297   -577.11389    131818.66   -40576.362    2817.2566   -43393.619    86.927256   0.94746446 
   63100    227.64862   -395.72975    131562.06    -40558.22    2832.3816   -43390.602     86.92149   0.94931234 
   63200    223.99342   -291.72827    131850.77   -40584.185     2786.904   -43371.089    87.016139   0.94723371 
   63300    222.56264   -441.14104    131943.29   -40603.151    2769.1024   -43372.253    87.029508    0.9465695 
   63400    226.38527    -430.5107    131894.59   -40528.538    2816.6631   -43345.201    87.029994   0.94691896 
   63500    228.29981   -498.21059    131891.87   -40635.294    2840.4837   -43475.778    87.049597   0.94693853 
   63600    224.45834   -408.57035    131833.07   -40636.663    2792.6885   -43429.351    87.570949    0.9473609 
   63700      226.613   -283.46116    132091.85   -40625.729    2819.4966   -43445.225    87.699698   0.94550489 
   63800    220.43729   -592.18715    132072.91   -40724.361     2742.659    -43467.02     87.88315    0.9456405 
   63900    221.87183   -550.81523    131906.57   -40716.039    2760.5074   -43476.546    87.889793     0.946833 
   64000    223.46306   -399.89033    131679.96   -40696.635    2780.3053    -43476.94    87.728732   0.94846243 
   64100     227.4303   -469.74888    131809.96   -40614.547    2829.6653   -43444.213    87.924288   0.94752696 
   64200    226.61897   -449.18858    131705.58   -40604.245    2819.5708   -43423.816    87.957207   0.94827792 
   64300    230.68436   -251.59913    131761.13   -40511.431     2870.152   -43381.583    88.002951    0.9478781 
   64400    226.68962   -367.73927    131917.77    -40546.77    2820.4498   -43367.219    88.080981   0.94675262 
   64500     231.1773   -296.94457    131849.59   -40537.184    2876.2851   -43413.469    88.209752   0.94724219 
   64600    225.50652   -443.45976    131640.48   -40586.782    2805.7298   -43392.512     88.04086   0.94874684 
   64700    226.23937   -299.71856    131602.86   -40616.086    2814.8479   -43430.934     88.24902   0.94901805 
   64800    229.02514    -431.2867    131762.79    -40636.44    2849.5081   -43485.948    88.862211   0.94786615 
   64900    223.62795   -456.24826    131813.93   -40611.015    2782.3569   -43393.372    89.101199   0.94749842 
   65000    224.94317   -378.94528    131856.94    -40562.94    2798.7207   -43361.661    89.139896   0.94718934 
   65100    224.91388   -401.91778    131756.48   -40574.515    2798.3562   -43372.872    89.419448   0.94791159 
   65200    226.11555   -444.10904    131785.81   -40552.671    2813.3073   -43365.979     89.57507    0.9477006 
   65300    220.64893   -321.57439    131711.73   -40537.618    2745.2922    -43282.91    89.464902   0.94823365 
   65400    230.91731   -434.70784     131794.6   -40466.994    2873.0503   -43340.044    89.745254   0.94763742 
   65500    224.66996   -357.58519    131803.11   -40528.533    2795.3215   -43323.855     89.80145   0.94757617 
   65600     223.1414   -257.58741    132007.07   -40560.868    2776.3033   -43337.171    89.875635   0.94611216 
   65700    225.01582   -251.59675    131967.25    -40611.01    2799.6245   -43410.634    89.931886   0.94639765 
   65800    220.51952   -273.41014    132016.17   -40629.924    2743.6821   -43373.607    90.036021    0.9460469 
   65900    225.29612   -344.55984    131919.59   -40608.152    2803.1121   -43411.264    90.075889   0.94673955 
   66000    227.51248   -275.21968     132057.3   -40513.318    2830.6878   -43344.006    90.381006   0.94575228 
   66100    228.61706   -434.66603       131881    -40443.82    2844.4309   -43288.251    90.429286   0.94701659 
   66200    228.76475   -374.96374    131942.35   -40408.279    2846.2684   -43254.547    90.557268   0.94657619 
   66300    229.53247   -207.34175    132067.29   -40436.348    2855.8203   -43292.169    90.550009    0.9456807 
   66400    227.01287   -441.32487    131814.45   -40502.953    2824.4717   -43327.425    90.254216   0.94749472 
   66500    223.56667   -334.54544    131608.37   -40520.654    2781.5944   -43302.248    90.361267   0.94897834 
   66600    226.74448   -357.69968    131777.92   -40534.535    2821.1324   -43355.667    90.806891   0.94775736 
   66700    221.30728   -495.52209    131729.41   -40574.563    2753.4833   -43328.046    91.028166   0.94810638 
   66800     228.1674   -377.74156    131797.56   -40511.205    2838.8363   -43350.041    91.213272   0.94761611 
[...]
   84600    220.68473   -173.97583    132017.79   -40721.579    2745.7376   -43467.317    109.81176   0.94603528 
   84700    218.85142   -389.64291     132064.2   -40729.363    2722.9278   -43452.291    109.78521   0.94570283 
   84800    225.74668   -387.94987    132179.95   -40699.662    2808.7178   -43508.379    109.85564    0.9448747 
   84900    227.70625    -285.1633    132276.18   -40679.112    2833.0987   -43512.211    109.97318    0.9441873 
   85000    228.69313   -273.90199    132183.59   -40639.225    2845.3774   -43484.602    110.10474   0.94484868 
   85100    223.42412   -357.02143     132290.7   -40637.973    2779.8208   -43417.794    110.49437   0.94408366 
   85200    226.01715   -341.41946    132243.65   -40640.847     2812.083    -43452.93    110.95994    0.9444196 
   85300    222.54283   -607.10379    132239.49   -40682.124    2768.8559    -43450.98    111.04539    0.9444493 
   85400    223.54226   -529.52153    132282.05   -40666.916    2781.2907   -43448.206    110.78761   0.94414541 
   85500    223.94075   -473.70699    132145.23   -40630.941    2786.2487   -43417.189    111.11161   0.94512295 
   85600    225.19953   -470.23095    132165.03   -40609.663    2801.9102   -43411.574    111.19911   0.94498134 
   85700    221.96599   -264.09802    132084.05   -40651.243    2761.6789   -43412.922    111.49372   0.94556077 
   85800    220.97059   -482.66203     132084.5    -40650.43    2749.2943   -43399.725    111.48582   0.94555748 
   85900    227.94461   -363.16067    132036.64   -40549.314    2836.0644   -43385.378    111.39564   0.94590024 
   86000    225.77427   -344.77034    132216.54   -40607.987    2809.0611   -43417.048    111.74097   0.94461321 
   86100    226.43892   -487.12014    132129.87   -40610.282    2817.3306   -43427.612    111.45736   0.94523285 
   86200    226.72326   -448.80826    132045.38   -40586.611    2820.8683   -43407.479    111.67741   0.94583764 
   86300    227.55137   -445.45048    132045.57   -40636.462    2831.1716   -43467.633    111.88318   0.94583628 
   86400    226.41157   -198.69932    132021.43   -40656.596    2816.9904   -43473.586    111.81881   0.94600921 
   86500    227.35974   -439.97164    132025.92   -40640.673    2828.7874    -43469.46    111.91703   0.94597702 
   86600     226.9566   -401.73224    132017.74   -40588.974    2823.7716   -43412.746    111.93123   0.94603567 
   86700     228.3662    -422.1781    132126.95   -40580.827    2841.3097   -43422.137    112.38872   0.94525369 
   86800    226.85336   -369.94285    132115.14   -40649.814    2822.4871   -43472.301    112.51015    0.9453382 
   86900    226.60558   -283.39081    131951.25   -40627.808    2819.4042   -43447.212    112.57314   0.94651235 
   87000    227.21217   -223.45745    132176.24    -40637.68    2826.9513   -43464.631     112.8084   0.94490123 
   87100     224.5875   -218.75678    132204.08   -40680.534    2794.2955   -43474.829    112.94415   0.94470227 
   87200    223.82679   -359.22505    132327.62   -40661.658    2784.8308   -43446.489    113.01529   0.94382031 
   87300    223.65838   -386.00179    132248.31   -40673.724    2782.7355   -43456.459    112.95527   0.94438631 
   87400    225.82691   -374.98216    132254.73    -40684.26     2809.716   -43493.976    113.38302   0.94434043 
   87500    227.08322   -429.07749    132185.09   -40694.438     2825.347   -43519.785    113.27708   0.94483793 
   87600    222.17474   -347.46818    132206.41   -40699.725    2764.2761   -43464.001    113.34966    0.9446856 
   87700    224.35726   -442.95784    132032.14   -40708.896    2791.4309   -43500.327    113.48241   0.94593251 
   87800    220.97336   -490.03275    132029.46   -40682.594    2749.3287   -43431.923    113.42789    0.9459517 
   87900     223.0097   -297.08126    132081.52   -40696.938    2774.6646   -43471.603     113.3321   0.94557883 
   88000     223.5708   -382.61934    132093.67    -40721.17    2781.6458   -43502.816    113.08052   0.94549189 
   88100    225.83676    -487.0335    132140.68   -40655.353    2809.8386   -43465.192     113.1927   0.94515549 
   88200    223.02813   -294.70042    132219.14    -40646.96    2774.8939   -43421.853    113.27464   0.94459461 
   88300    223.98946   -353.46621     132160.1   -40693.258    2786.8547   -43480.113     113.5064   0.94501663 
   88400    220.78361   -516.95303    132378.39   -40792.849    2746.9679   -43539.817     113.8073   0.94345832 
   88500    223.76812   -344.37296    132414.94   -40684.669    2784.1008    -43468.77    113.55037    0.9431979 
   88600    227.60381   -460.39413    132383.74   -40641.885    2831.8241   -43473.709    113.65131   0.94342018 
   88700    228.15049   -421.86846    132388.71   -40613.356    2838.6258   -43451.982    113.80437   0.94338472 
   88800    232.46013    -430.4083       132276   -40539.095    2892.2459   -43431.341    113.65156   0.94418857 
   88900    226.74214    -357.8564    132395.94   -40598.281    2821.1033   -43419.384    113.87772   0.94333325 
   89000    222.69744   -513.56326    132344.82   -40582.805    2770.7795   -43353.584    113.97803   0.94369764 
   89100    224.52487   -422.55844    132320.82   -40680.266    2793.5162   -43473.782    113.89099   0.94386879 
   89200    223.31746   -568.10289    132240.18   -40706.226    2778.4938    -43484.72    113.96877   0.94444433 
   89300    224.02807   -380.31946    132097.07   -40719.099    2787.3352   -43506.434    114.07466   0.94546756 
   89400    223.48271   -215.41758    132175.73    -40744.27    2780.5498   -43524.819     114.1379   0.94490488 
   89500    220.64936   -325.09846    132203.98   -40779.994    2745.2975   -43525.292    114.30945   0.94470298 
   89600    215.85065   -390.89322    132130.39   -40825.526    2685.5925   -43511.119    114.18862   0.94522911 
   89700    217.96662   -376.21163    132285.74   -40775.505    2711.9191   -43487.424    114.24033   0.94411909 
   89800     220.9998    -380.9978    132255.79   -40733.781    2749.6576   -43483.439    114.47173   0.94433286 
   89900    220.60829   -339.44429    132331.62   -40783.983    2744.7866   -43528.769    114.72225   0.94379176 
   90000    226.15625   -279.36426    132358.49   -40679.076    2813.8138    -43492.89    115.30279   0.94360017 
   90100    220.18991    -265.4335    132256.14   -40688.791    2739.5811   -43428.372    115.15197   0.94433039 
   90200    221.74354    -398.8635    132425.65   -40725.327    2758.9112   -43484.239    115.61826   0.94312157 
   90300    219.89148    -282.3008    132500.66   -40744.597    2735.8681   -43480.465    115.40074   0.94258767 
   90400    218.98794   -313.07793    132395.75   -40730.836    2724.6263   -43455.463    115.25564   0.94333462 
   90500    220.09603   -353.12365     132302.9   -40690.245     2738.413   -43428.658    115.08108   0.94399663 
   90600     228.3351   -75.293482    132377.49   -40606.765    2840.9228   -43447.688    115.35652   0.94346474 
   90700    224.32085   -442.09445    132358.23   -40620.386    2790.9778   -43411.364    115.40121   0.94360203 
   90800     224.3599   -391.89807    132397.48   -40658.218    2791.4637   -43449.682    115.71313   0.94332225 
   90900    220.20662   -328.81483    132348.76   -40753.542     2739.789   -43493.331    115.93704   0.94366951 
   91000    219.80445   -422.25306    132419.63   -40745.787    2734.7852   -43480.572    116.02671   0.94316449 
   91100    222.86888   -409.66972    132300.45   -40715.101    2772.9125   -43488.014     116.0779   0.94401413 
   91200    223.65009    -438.5787    132380.74   -40663.835    2782.6323   -43446.468    115.94404   0.94344154 
   91300    229.50301   -557.73426    132528.75    -40570.05    2855.4537   -43425.504    115.75421    0.9423879 
   91400    227.03204   -270.04706    132459.65   -40556.534    2824.7102   -43381.244    115.70865    0.9428795 
   91500    228.61873   -417.85616    132482.05   -40575.427    2844.4516   -43419.878    116.07842   0.94272011 
   91600    226.69021   -337.97929    132445.36   -40608.726    2820.4572   -43429.183    116.06144   0.94298124 
   91700    222.10608   -360.68221    132326.85   -40686.275    2763.4219   -43449.697    116.03904   0.94382579 
   91800    227.38777   -404.49032     132156.5   -40656.787    2829.1362   -43485.923    116.10238   0.94504234 
   91900    227.35666   -444.46585    132273.35    -40660.78    2828.7491   -43489.529    116.45198    0.9442075 
   92000    223.54646   -276.34911    132301.64   -40675.517    2781.3429    -43456.86    116.68865   0.94400562 
   92100    223.41254    -298.4025    132495.33   -40719.838    2779.6767   -43499.515    116.82548   0.94262557 
   92200    224.70758   -517.37361    132448.31   -40648.085    2795.7895   -43443.874    116.86119   0.94296025 
   92300    228.84871   -309.98257    132426.71   -40564.662    2847.3131   -43411.975    117.20864   0.94311406 
   92400    225.95996   -364.34041    132471.73   -40578.206    2811.3715   -43389.577    117.25094   0.94279353 
   92500    225.72871   -416.42124    132393.55   -40621.566    2808.4943    -43430.06    117.46349   0.94335025 
   92600     227.4351   -373.38533     132214.1   -40601.797     2829.725   -43431.522    117.39926   0.94463062 
   92700    224.00159   -403.27445    132359.77    -40595.79    2787.0057   -43382.796    117.57557   0.94359105 
   92800    227.72012   -481.58226    132426.08   -40644.765    2833.2712   -43478.036    117.82843   0.94311854 
   92900    222.25234   -346.08062    132358.26   -40613.292    2765.2417   -43378.534    118.03604   0.94360182 
   93000    223.91507   -419.97193    132408.46   -40642.786    2785.9292   -43428.716    118.25746   0.94324403 
   93100    222.19029   -463.31185    132432.07   -40579.742    2764.4696   -43344.212    118.07073    0.9430759 
   93200    226.44849   -427.88817    132435.54   -40608.703    2817.4497   -43426.153      118.382    0.9430512 
   93300    228.21395   -354.45929    132329.76   -40645.139    2839.4154   -43484.554    118.12204   0.94380499 
   93400     224.3795   -429.09682    132230.35   -40692.379    2791.7076   -43484.087    118.24812    0.9445146 
   93500    223.02943   -370.03465    132192.25   -40725.171    2774.9101   -43500.082     118.3923   0.94478679 
   93600    222.68029   -391.57363    132247.62   -40799.414    2770.5662    -43569.98    118.50171   0.94439123 
   93700    221.34169   -533.41424    132227.66   -40756.691    2753.9114   -43510.603    118.35327   0.94453378 
   93800    228.55457   -390.28659    132141.28   -40717.447    2843.6533     -43561.1    118.44323   0.94515122 
   93900    223.26034   -468.09942    131916.68   -40702.891     2777.783   -43480.674    118.58274   0.94676042 
   94000    225.74348   -444.46889    132029.66   -40714.203    2808.6781   -43522.881    118.78862   0.94595027 
   94100    224.04511    -246.8506    132159.39   -40712.693    2787.5471    -43500.24     118.7042    0.9450217 
   94200    224.08515   -276.79425    132213.49   -40710.123    2788.0452   -43498.168    119.18283     0.944635 
   94300    223.78075   -577.29699    132123.15   -40658.592     2784.258    -43442.85    119.12103   0.94528091 
   94400    222.21114   -418.14264    131960.41   -40630.622     2764.729   -43395.351    119.26744    0.9464467 
   94500    225.60058    -370.4415    131947.54   -40561.169    2806.9001   -43368.069    119.27041   0.94653895 
   94600    226.46551   -395.27855    131926.76   -40597.414    2817.6614   -43415.076    119.41461   0.94668811 
   94700    229.04416   -546.06614    131788.06   -40652.904    2849.7448   -43502.649    119.17277   0.94768444 
   94800    222.94793   -421.96548    131746.37   -40649.909    2773.8961   -43423.806    119.32143   0.94798433 
   94900    224.27037   -507.03577    131644.27   -40623.603    2790.3498   -43413.952    119.27203   0.94871957 
   95000    223.88342   -293.23146    131827.81   -40600.889    2785.5354   -43386.425    119.66379   0.94739866 
   95100    226.78835    -403.8781    131801.92   -40602.927    2821.6783   -43424.606    119.64085   0.94758473 
   95200    225.74699   -429.96794    131757.78   -40634.288    2808.7217    -43443.01    119.79784   0.94790224 
   95300    225.74404   -340.84418    131584.65   -40528.962     2808.685   -43337.647    119.86354   0.94914936 
   95400    229.63655   -401.01129    131777.96   -40572.823    2857.1153   -43429.938     120.1252   0.94775702 
   95500    230.23273   -453.60559     132003.4   -40584.797    2864.5328    -43449.33    120.37054   0.94613844 
   95600    224.91469   -440.49909    131902.67   -40586.947    2798.3664   -43385.313    120.53712   0.94686097 
   95700    227.95277   -313.85354    132016.62   -40655.323    2836.1658   -43491.489    120.47392   0.94604371 
   95800    225.42994   -370.42561     132034.8   -40699.713    2804.7771    -43504.49    120.55096   0.94591347 
   95900    226.85127   -495.46554    132202.41    -40652.79    2822.4611   -43475.251    120.87535   0.94471417 
   96000    224.51324   -357.50132     132171.2   -40737.475    2793.3715   -43530.847    121.01617   0.94493725 
   96100    228.03806   -270.39324     132282.8   -40693.981    2837.2269   -43531.208     121.1494   0.94414009 
   96200    225.40134   -319.27167     132460.3   -40733.959    2804.4211   -43538.381    121.24774   0.94287488 
   96300    223.36627    -376.5414    132509.42   -40681.433    2779.1011   -43460.534    121.20496   0.94252537 
   96400    223.09527    -428.8914    132391.99   -40661.628    2775.7293   -43437.357    121.36335   0.94336139 
   96500     223.5403   -443.40778    132360.37   -40694.014    2781.2664    -43475.28    121.56669   0.94358674 
   96600    226.74569    -198.9248    132452.21   -40677.113    2821.1474   -43498.261    122.03952   0.94293247 
   96700    220.61016   -396.58673    132341.47   -40761.752    2744.8098   -43506.562    121.80678   0.94372151 
   96800    221.83826   -445.62958     132437.1   -40813.827    2760.0897   -43573.917    121.97271   0.94304007 
   96900    226.54881   -430.08475    132306.59   -40754.097    2818.6979   -43572.795    121.86108   0.94397031 
   97000    221.09077   -553.70398    132264.02   -40759.354    2750.7895   -43510.144    121.95059   0.94427414 
   97100    224.50615   -185.06629    132376.17   -40768.224    2793.2833   -43561.507     121.8303    0.9434741 
   97200    222.56668   -466.56348    132136.52   -40786.872    2769.1526   -43556.024    121.68401   0.94518529 
   97300    222.61771   -452.05418    132486.29   -40785.491    2769.7876   -43555.279    121.99945   0.94268991 
   97400    219.91872   -313.56361     132308.8   -40798.343     2736.207    -43534.55    122.05735   0.94395455 
   97500    228.45839   -452.10709     132265.5   -40699.681    2842.4567   -43542.138    122.41902   0.94426356 
   97600    221.46045   -367.34289    132307.89   -40773.143    2755.3891   -43528.532    122.45687   0.94396102 
   97700    226.23754   -362.31204    132370.55   -40699.335    2814.8251    -43514.16    122.50869   0.94351418 
   97800     227.2192   -354.06411    132293.89   -40686.885    2827.0388   -43513.924    122.57521   0.94406095 
   97900    227.83672   -543.27858    132518.12   -40664.871    2834.7219   -43499.593    122.64603   0.94246348 
   98000    227.19765   -481.29578    132319.01   -40685.523    2826.7707   -43512.294    122.50923   0.94388169 
   98100    223.30005    -455.8322    132266.99   -40765.172    2778.2772   -43543.449    122.73481   0.94425292 
   98200    221.86162   -409.91619    132420.35   -40746.652    2760.3804   -43507.032    123.07587   0.94315934 
   98300    221.52348   -363.52323    132122.52   -40769.204    2756.1732   -43525.377    122.85953   0.94528543 
   98400    224.12196   -530.94125    132162.17   -40779.518    2788.5032   -43568.021    122.85293   0.94500179 
   98500    222.07588   -421.69934    132236.63   -40771.546    2763.0462   -43534.592    122.91399   0.94446971 
   98600    224.86257   -449.56221    132321.27   -40789.936    2797.7179   -43587.654    123.08771   0.94386555 
   98700    219.85802   -335.37124    132195.68   -40848.684    2735.4518   -43584.135    123.23366    0.9447623 
   98800    222.38843   -320.21746    132209.07   -40821.208    2766.9349   -43588.143    123.37827   0.94466659 
   98900    225.53441   -381.57563    132358.43   -40831.074    2806.0768   -43637.151    123.64503   0.94360056 
   99000    218.75669   -274.25696    132648.45   -40867.656    2721.7491   -43589.405       123.88    0.9415375 
   99100    222.30982   -354.37097    132484.43    -40791.43    2765.9568   -43557.386    123.62294    0.9427032 
   99200    224.35411   -379.38741    132548.87    -40774.67    2791.3916   -43566.062    123.30571   0.94224483 
   99300    226.21437   -324.53123    132517.64   -40715.739    2814.5369   -43530.275    123.55869   0.94246689 
   99400    219.48852   -416.04214    132377.08   -40672.718    2730.8545   -43403.573    123.56985   0.94346764 
   99500    230.48513   -411.45101    132508.54   -40537.126    2867.6732   -43404.799    123.79318   0.94253164 
   99600    232.56834   -231.01894    132551.52   -40564.158    2893.5924   -43457.751    123.72692   0.94222603 
   99700    228.93565   -357.43078    132322.63   -40587.856    2848.3947   -43436.251    123.75348   0.94385584 
   99800    222.48991   -401.41266    132405.67   -40602.957    2768.1974   -43371.154    124.02138   0.94326391 
   99900    222.60389   -435.84527    132272.92   -40661.098    2769.6156   -43430.714    124.29144   0.94421061 
  100000    222.08957   -299.87522    132287.48   -40671.702    2763.2164   -43434.918    124.19671   0.94410663 
  100100    228.14114   -410.20459     132474.4   -40593.595    2838.5096   -43432.105    124.02416   0.94277456 
  100200    228.65285   -335.39646    132592.66   -40604.071    2844.8761   -43448.947    124.14255   0.94193371 
  100300    230.03919   -417.22647    132449.23   -40596.807    2862.1248   -43458.932    124.21565   0.94295367 
  100400     229.3269   -364.64694    132508.13   -40655.112    2853.2626   -43508.375    124.61618   0.94253455 
  100500    231.37798   -378.64634    132569.15   -40594.886     2878.782   -43473.668    124.89963   0.94210069 
  100600    225.75231   -368.76583     132752.6   -40685.478    2808.7879   -43494.266    124.92064   0.94079885 
  100630    231.05365   -429.48518    132719.43    -40676.83    2874.7467   -43551.576    125.01634   0.94103399 
Loop time of 82.787 on 6 procs for 100000 steps with 4175 atoms

Performance: 521.821 ns/day, 0.046 hours/ns, 1207.919 timesteps/s
98.6% CPU use with 6 MPI tasks x no OpenMP threads

MPI task timing breakdown:
Section |  min time  |  avg time  |  max time  |%varavg| %total
---------------------------------------------------------------
Pair    | 63.934     | 67.27      | 68.775     |  21.0 | 81.26
Neigh   | 5.2008     | 5.2323     | 5.2516     |   0.8 |  6.32
Comm    | 6.2144     | 7.7325     | 11.055     |  61.9 |  9.34
Output  | 0.15933    | 0.16015    | 0.16356    |   0.4 |  0.19
Modify  | 1.7594     | 1.7741     | 1.7845     |   0.7 |  2.14
Other   |            | 0.6182     |            |       |  0.75

Nlocal:        695.833 ave         703 max         687 min
Histogram: 1 0 0 2 0 0 0 1 1 1
Nghost:        1462.33 ave        1477 max        1444 min
Histogram: 1 0 0 1 1 0 1 0 0 2
Neighs:        0.00000 ave           0 max           0 min
Histogram: 6 0 0 0 0 0 0 0 0 0
FullNghs:      19096.0 ave       19325 max       18852 min
Histogram: 1 0 2 0 0 0 0 1 1 1

Total # of neighbors = 114576
Ave neighs/atom = 27.443353
Neighbor list builds = 5618
Dangerous builds = 0

undump              1
unfix               2
unfix               3
unfix               4


################################################
#######         Run Simulation         #########
################################################

reset_timestep      0
log                 log.run_${NAME}
log                 log.run_liquid_density_MLmW
