LAMMPS data file via write_data, version 29 Oct 2020, timestep = 800000

4175 atoms
1 atom types

-0.07598115390013405 50.07598115389786 xlo xhi
-0.07598115390013405 50.07598115389786 ylo yhi
-0.07598115390013405 50.07598115389786 zlo zhi

Masses

1 18.015

Atoms # atomic

3470 1 47.34713382386845 24.986271590074598 1.9330301798579876 -1 0 1
2868 1 4.874464182862154 3.305206766813885 1.6233531580172036 1 1 1
1025 1 7.4617389412313955 2.650956633081627 2.4751158774077693 1 0 0
290 1 8.87628603996033 3.875900120162525 0.4177620065516876 0 -1 0
600 1 25.97961456902093 20.955300084708405 0.4278121270102808 0 0 0
545 1 12.220919749577092 1.82734670803921 2.547745671369768 1 1 1
1536 1 31.05683180569679 24.035887788355343 3.030079452969491 0 0 1
2361 1 18.646693498412393 2.275608013740272 4.3823602588197685 0 0 0
815 1 48.917704487332855 21.450830957683166 13.365670316568362 0 0 0
2703 1 49.50753148932368 23.404237220742484 11.451314976639589 -1 0 0
4106 1 33.82878306142187 4.113969738287816 1.9722025892291488 0 0 0
345 1 8.22939366920924 6.276127994040998 0.7890398439526237 0 0 0
2132 1 29.070797734635164 2.3904103891856567 2.2159650942552642 0 1 0
595 1 35.6405941693785 0.8832095463116219 4.63517499795217 -1 0 0
328 1 49.15973510886009 2.087541212938345 1.830562668193391 0 0 1
1192 1 42.9174395601965 1.682055085255022 2.566266373868357 0 0 0
589 1 30.644143044150635 24.222932605428625 12.48432998553167 1 0 -1
3075 1 12.093589712995133 24.886552202073656 9.755423735878958 1 0 1
2806 1 28.44355446136162 -0.0630795756369622 10.212592137950535 0 0 0
2332 1 1.2258561463256015 4.870882721308913 2.837873727558006 0 1 0
1063 1 4.036390581688662 5.945504204164192 2.560390064554362 1 0 1
476 1 3.638568576484854 6.5573620634464636 5.205468674645981 0 0 0
3390 1 8.473525512819167 24.047105615024783 1.7251422313573643 0 1 1
1218 1 20.079676607419167 4.337104358355893 1.6348942881584585 0 0 0
2687 1 22.51956789340623 2.7829287306259403 2.3508281976885375 1 2 0
870 1 16.142350933286 1.1452115417062845 16.309194682477163 0 1 0
3106 1 33.92025896874729 3.044700546345801 4.361928562715182 0 1 1
3047 1 38.60401146253675 2.2073542002823103 1.5374191989807744 0 1 0
570 1 42.13223300698476 4.409718373190152 2.7963134572596555 -1 0 0
287 1 43.00647004315785 6.057674597240939 0.574238074233478 0 0 0
2996 1 40.655111644421666 24.9962878979361 15.704237335179522 0 1 0
240 1 49.45412569474742 8.319620410669899 0.8450732687860344 -1 0 0
2426 1 3.320160158376284 9.32994584654473 3.183771928377032 1 1 0
2757 1 6.004886342436046 8.985361340883925 1.97404081963488 0 0 -1
1754 1 7.271663126381367 7.10903681688371 3.4731553363467196 0 0 1
2860 1 43.57221957710571 0.33932279487275885 15.601293996197217 0 1 0
2165 1 16.84374648206787 8.364926125143311 0.7192273232766694 1 0 0
2224 1 17.600368727509807 10.714783350483184 2.6129840007097074 1 0 0
3992 1 21.53721892060644 7.985171191978569 3.0578282409640516 -1 1 1
3327 1 21.01734771422386 6.696940753012311 0.7349078798333287 0 1 0
1785 1 25.915601223157584 8.182482031584234 3.3801868117573526 1 0 1
3248 1 28.698729523978418 7.199414638188147 3.1167041247739506 0 0 0
2537 1 0.34931477577981085 0.5686816574665031 8.50354448931316 0 1 0
1668 1 33.71464341208264 9.427351208269318 0.644543639197771 0 0 1
756 1 35.70281439048654 6.3471226249364765 2.750431297861322 0 0 1
2057 1 38.62533054197476 6.266115703010542 2.140228691297354 0 0 1
1734 1 39.671482004696756 9.01778203131674 2.2993095911558377 0 0 0
3699 1 42.34756555677261 8.079583810302564 2.2733455851700763 -1 1 0
3035 1 47.01346012989859 6.799416224953209 3.657885273597966 0 0 1
2294 1 3.4553901515161694 1.2489409221076337 2.4152225500288567 0 1 0
663 1 3.054662136964234 11.300384865527764 1.2956248551302756 0 0 0
1337 1 38.16461125615295 24.17818969111683 1.4302825386522064 0 0 0
3042 1 5.172921651221422 13.368040348486002 0.7885345780842423 1 1 1
1030 1 10.985484792597711 9.94740056098213 1.0721977393777355 1 -1 2
1646 1 10.869540850143956 24.426178946208545 15.282085369777914 1 -2 0
2433 1 14.956256416376375 12.087581343811637 2.7001885265963392 1 1 0
1691 1 19.770847209942488 12.372527675360901 2.5806617982946 0 0 0
2275 1 21.785852767175133 10.602057443662126 1.4702756811518736 0 0 0
4030 1 27.26002925434356 14.073545152899701 0.7368531131067145 0 0 0
1886 1 25.931636316172238 14.511157987127163 4.204106006004849 -1 -1 1
2337 1 26.673479142756964 11.738476047839326 1.917525014420917 0 1 0
2194 1 35.922876287744444 10.92123481721194 2.21151268900795 0 1 0
171 1 35.8870095356377 9.240056675287876 4.817705493339284 -1 0 0
1722 1 39.234712847440406 11.641431418617362 1.810200978591934 0 0 0
1553 1 43.97339561005302 10.071542748135347 1.3779709031811258 0 0 2
2226 1 45.91569823156695 11.074525950298026 3.1673571611189084 1 0 -1
1940 1 36.02816194769959 2.5867681066680763 0.541581325544359 0 -1 0
3864 1 4.9662773606176716 23.91403532790123 7.220018854272739 1 0 1
840 1 32.36113586125414 2.0762929174788467 16.558401545040823 0 0 0
3619 1 2.3249183866110115 15.995814886340987 4.107297256684358 0 1 0
2882 1 33.70575981810231 23.289140765490682 0.45239119312272447 0 0 0
978 1 15.316421701214669 22.787683608678616 16.06996326032988 2 -1 1
1366 1 9.354001320672934 13.600760787687536 2.7058420905817906 1 0 1
1443 1 36.24809061281144 20.292915106361363 2.5995572918382646 0 0 0
876 1 10.532687246043892 -0.07242749941184456 1.2750901962770533 0 0 0
550 1 18.11120796991319 16.20472562140611 1.5267351105824507 1 1 0
3986 1 16.786001432902147 0.8993658170749695 6.244658911884807 -1 1 1
3138 1 19.54918538183891 14.157858862863982 0.25181644174589923 0 0 0
924 1 23.43473606704966 14.933665878948233 2.605023306237173 1 1 1
79 1 32.66257371185603 0.4075062455029217 8.708798832110775 0 0 0
2253 1 36.133237398127335 13.632149145254903 0.8278449880158235 1 0 -1
2568 1 30.313799512903 10.668456599169945 1.6520758546755745 0 1 0
285 1 30.158353241094634 13.573340988846391 1.2163868929983614 1 0 1
549 1 33.417074745409664 13.744372071462122 0.9093662480407728 -1 0 0
3073 1 37.46665572439032 16.07249948832713 1.516205694515519 -1 1 0
244 1 41.90982022576176 12.268558570242385 2.1640264025666007 0 0 1
2417 1 42.556228369903124 14.983719590923304 1.2390658818237286 1 0 0
3869 1 46.894872831774364 14.021841016404442 1.0464967801381904 -1 1 1
217 1 44.58972011801208 13.810014534491845 2.8911805556113865 0 -1 1
384 1 48.246691241513915 11.922020847913474 1.9934282619388113 0 0 0
3939 1 0.8520033607522092 16.259385342498632 1.3707149216632653 0 0 1
3730 1 5.860341405550159 16.609945262617213 1.5836936397689982 0 0 1
1018 1 6.1840464118128935 20.030693023801472 0.36978471121266476 0 0 1
403 1 9.929394902955586 16.811418362941314 1.253149933656892 0 0 0
2380 1 14.953401291967925 18.007470398427632 0.9183703629182 0 1 1
768 1 19.610660762828257 18.6585917392771 1.1624279892207785 1 0 0
2761 1 25.53557902763386 16.580394487848103 1.5871703829406634 0 -1 0
3763 1 26.49147856394703 19.598487755975473 2.571096507482639 0 0 1
614 1 31.551707124767947 17.159675852786844 5.934792372991876 0 0 0
1402 1 33.639953386615886 18.943058683948415 2.02955007661218 -1 0 1
4001 1 35.29653819232283 17.873875484171606 -0.030366887362879444 0 1 1
2255 1 38.87044120565133 16.936953205883373 3.6045958983704907 1 1 0
3399 1 25.353928129840217 7.691519309448591 0.7551352399457288 0 1 0
1736 1 41.69844965769033 16.71297958702817 3.1880241128212385 0 0 0
1028 1 48.12239035035449 16.65277293488191 1.0952102802599113 0 0 1
2781 1 46.37884192062016 18.915283760053374 2.681247819818233 -1 1 0
1819 1 2.2056226790696485 20.64400791067944 2.5574307463412707 0 0 1
1521 1 30.204030188321493 23.56254864025226 0.5495169132737328 0 0 1
2503 1 4.742587199879087 21.786103310743805 1.4557242358668359 1 0 0
3623 1 9.357867553695407 21.632205030152765 0.8457550718896176 0 0 1
728 1 12.161287487257832 21.054916934025915 1.5713189084526498 1 0 0
420 1 29.61512923651665 6.456961214428803 0.26881604183217184 0 1 0
2601 1 17.13624846840055 19.576577708104224 0.6084039819230002 0 1 0
3205 1 0.10460613749839395 0.20244285535476209 13.336167106601751 0 1 0
2296 1 32.06115740844153 16.512187505381437 2.758370022076447 0 1 0
2934 1 33.882065769994085 24.85197318085365 2.9152914961979945 0 1 1
2697 1 46.25768976763065 0.21998440049870405 5.984007029218914 -1 0 -1
1377 1 38.38102775529181 19.662966524405302 4.327991701722952 -1 0 0
176 1 32.33797760835709 24.196249161703417 7.417501559503702 0 0 0
221 1 38.155184408027026 19.134456209725673 0.458509651144564 -1 0 -1
658 1 42.05412376241648 19.215259350826916 2.0260551052194744 -1 0 0
966 1 46.31549051248102 23.89879858925993 13.65811853641527 0 0 0
488 1 43.64813168518536 21.32766018171673 3.09661397267238 -1 0 -1
3830 1 48.315041748879764 21.029346172866852 3.162286109409144 0 1 0
3172 1 1.2532859818511655 22.835713413488484 1.0038717892322881 0 1 1
2215 1 21.207571197038025 1.3699081702638707 4.66884455956652 0 1 0
3200 1 5.739303448187822 24.4476288756433 1.5390527101168476 0 0 0
425 1 12.002901932961427 23.98892284259731 0.8827181306120528 0 -1 0
4053 1 16.697160290458246 22.069926789312536 1.5030016590159536 0 0 1
2609 1 19.014023382111798 23.137234933570518 0.9337900434270443 -1 0 -1
3899 1 23.294807416878424 22.454186517076415 1.8863903943278282 0 1 1
1115 1 27.296550162932615 23.5674940912464 0.6043842566219833 0 0 0
3712 1 25.07400007256101 24.470716721182278 2.7492671170663603 0 0 0
844 1 20.670688185127524 0.987403623094413 14.402754928019979 0 0 0
3673 1 29.09623765069788 19.731186398059595 2.389794187278644 0 1 1
4166 1 30.182045156197987 0.15121977972336756 15.18606995464155 0 1 1
3060 1 45.90058041853888 9.99411825380866 16.18680078823781 1 0 0
3995 1 49.9929755587285 1.0442012868195796 4.386098458998298 0 1 0
3507 1 39.971252390047425 21.270775127593325 1.5560663027055064 0 0 1
275 1 30.33090488408838 8.372582431298449 15.696361879578017 0 0 0
2070 1 43.83708595438661 21.984038585386855 0.2531718210342431 -1 0 1
680 1 48.80857147110146 22.570026125922933 0.9719918459014172 -1 -1 1
1823 1 37.612665172184734 18.221444155241024 16.480848372074007 0 0 1
2039 1 25.185454769889308 3.369741022313374 0.14067619179942717 1 0 0
989 1 6.448445853698285 3.0429785540850474 6.174850012358746 1 1 1
2619 1 10.503582730058099 0.9582018403674322 4.9075400561310785 0 1 0
3333 1 47.8449726190766 23.01221883906708 15.611478040587164 0 0 0
422 1 14.945222194786025 1.7685068654121348 2.9340619107988775 0 0 0
1238 1 29.478797667462775 16.630968189127234 2.212183161712574 0 0 1
3235 1 8.668278942461837 1.0153837980767364 16.17630243779389 0 1 0
351 1 31.534979094638004 2.941204020375754 0.7772218618675355 -1 0 0
406 1 22.084057437800432 3.072528181569001 6.577259286967468 0 0 0
3273 1 0.6758757434975705 24.576383198787614 14.235146378578685 0 0 0
2743 1 31.41113058430996 1.408895759312565 3.956000019769446 0 1 -1
674 1 39.485543810698545 3.567808774624555 6.038489910850604 0 0 0
3954 1 38.455685362731344 1.0547765753616507 5.485055905994088 1 0 1
2161 1 41.980192446302524 3.277209697235504 7.3057322557642745 -1 1 1
3775 1 45.52295752576089 1.8193600113053667 3.4756978591489633 0 0 1
1185 1 48.69112127937386 1.6878923542414108 6.903811397118004 0 0 0
1310 1 2.0848603571558404 2.6414871250494683 4.298151309981911 -1 0 0
3964 1 8.065173067393873 4.603973362526623 4.426928852886865 0 1 0
2971 1 10.889275916635084 4.017857374214235 4.376878225271258 0 0 0
552 1 11.05967376152274 5.000647323483489 7.118849834434614 1 -1 0
4020 1 15.505490223755828 4.302400309893281 4.305730511678718 1 0 1
3503 1 18.506026633540642 5.012423132160611 3.891575800008073 0 1 1
2141 1 24.91916008807383 4.54668872022939 2.650485376675545 1 1 0
2257 1 25.684496153967263 4.437583447787689 6.528734534027512 0 0 0
2115 1 27.83308492701367 4.458829888070324 3.591482143449069 0 1 0
2565 1 28.323002581355713 4.1527866871092485 6.666575100293045 0 0 0
1228 1 32.48958151849385 4.563392751041271 6.385715149291403 1 1 1
1103 1 35.57660455193269 5.426234798201266 5.222749635257358 0 0 1
1003 1 39.57458214501568 3.946897209301559 3.26325106900617 -1 0 0
1874 1 42.97840795054144 5.310273438660218 5.319891486476169 0 0 1
44 1 45.654303630956946 4.762893741443462 4.748933207352353 0 0 0
1303 1 49.76370974237457 6.75206910672179 4.382073061986881 -1 0 0
3544 1 0.33924016152197134 9.4454656469706 3.3087812997466446 1 0 0
2228 1 8.312896803236596 10.685064412056546 2.411474544846545 1 0 0
618 1 5.840560792206848 8.050044309386017 5.977279823127438 0 1 1
2739 1 8.254522064408969 9.687688325191838 5.249244723413293 0 0 1
1556 1 44.51057468244761 18.256722964184736 0.641349107190069 -1 -1 1
2869 1 13.043795421034869 5.774061135886622 3.114496393231031 1 1 0
2534 1 17.42286998421512 8.895842684169805 4.748167831246893 0 1 0
917 1 19.90436583576766 7.570396952341821 5.191303503583171 1 0 0
3781 1 25.872258293705244 8.884767704751706 7.239070415871084 0 0 1
1436 1 23.79101843323574 6.701233343424748 4.218816905073947 1 0 1
1698 1 25.411079785330998 10.46678130586898 5.086249115759841 1 -1 1
1132 1 30.039776181990284 9.260334301038256 4.49110833052746 -1 0 0
3148 1 30.120012800148203 6.240596018923495 5.82852244910356 0 1 0
1787 1 32.56416255028323 9.45778483695526 3.598937359677374 0 0 0
1930 1 34.77696963150872 7.5508586369008635 6.577792425113345 0 0 0
875 1 38.445800173696796 8.26915424658298 4.858386980426159 -1 0 0
1625 1 42.133242704112476 7.994786910878547 5.130217282555587 0 0 0
3026 1 40.85832111741604 9.071990662164557 7.771977964365095 0 1 0
1738 1 46.93688153177486 8.487914805104705 5.995502780068578 -1 0 0
1320 1 4.24884630575968 10.843273647468816 5.21619063362018 1 0 0
3606 1 4.6004004193561885 14.52135031751994 3.226702201246788 1 1 0
3887 1 10.399822869494384 11.94853953265291 4.769886317363459 1 0 0
3987 1 7.111729908264411 14.253873785469276 4.765203659851827 0 1 0
305 1 12.392804706682195 10.909440048337775 3.296730510144947 0 0 0
4105 1 15.104249496683105 8.296804799576462 6.20280293937576 0 0 1
2086 1 20.122929515704463 12.303880115244162 5.200792767524817 1 0 1
2374 1 23.816041957444178 12.239189270255984 2.6552605598281724 0 0 -1
3827 1 28.117946040281787 11.542984456012519 4.225629832013945 0 0 0
1156 1 34.09373141128583 11.580537622984371 4.753738657574979 0 1 1
1817 1 36.60105940057112 11.79963426656004 6.435108662840484 -1 0 1
734 1 41.22181187499132 12.30319541298279 5.048548146145017 0 0 0
3812 1 37.681399437639456 13.35022156458501 3.794850732929281 0 0 1
1565 1 44.475958657776104 9.489028908217833 5.324711739605549 -1 0 1
1745 1 48.84686353901061 10.561082160190539 6.642175622009047 -1 -1 0
2815 1 49.762960887399245 11.862580033287719 4.432181716273109 0 1 0
3630 1 2.33620406393592 12.746801088663487 4.309005657773891 1 1 0
3738 1 15.487662523500303 14.196681152530633 4.620773681618097 0 0 0
3081 1 15.654442727449586 12.44043444230778 6.699603876422435 -1 0 1
2277 1 19.621622894362208 14.972700399526419 5.742811055873035 0 0 0
563 1 29.04918140372204 14.146401638625703 3.8835026938187807 0 0 0
2023 1 29.49321051497887 12.29990426118064 6.677834187538518 -1 0 0
3571 1 31.134485673928687 14.441821123919729 5.612512050662659 0 2 1
205 1 33.5280439158299 14.10673896431031 3.7716678936919106 -1 0 1
1963 1 36.32966286792734 14.6999893611276 6.61563333748897 1 -1 1
102 1 39.61347762792421 14.705324927267906 5.134085735517241 -1 0 0
4093 1 44.81160160951437 14.922650935198577 5.413179724217117 0 0 0
2711 1 49.39796396649946 14.935209909245387 4.840808993575614 1 1 1
2736 1 4.098228865462364 17.724221276290564 5.378387041340986 0 0 1
2801 1 5.126007877991087 15.248140463820535 6.636859514646508 1 0 1
4101 1 8.048855393422635 17.353628030922696 5.884880395436944 1 1 0
1282 1 11.828050114157199 15.005441093908505 2.005449388460791 0 0 0
4015 1 13.383020747483103 15.838229971877135 4.018956686555159 1 0 1
1806 1 14.41402624860553 18.30444683439863 3.731922072068546 0 0 1
2504 1 17.628499885289976 15.649834028867605 4.190419781311814 0 1 0
1538 1 16.859385558202852 18.243232390558482 5.129100010578622 -1 0 1
2866 1 20.882323833262767 18.687737760735445 3.5881506500676865 1 0 0
2063 1 21.711246340019443 16.227388620310553 4.75290816203916 1 0 0
2413 1 24.619462401494268 18.76962121337473 5.175331627580043 -1 1 -1
2556 1 26.972660589104933 17.076105477891684 4.425572789788212 0 0 0
2169 1 32.450494165397174 16.836558267544785 8.44268404053804 0 0 0
3801 1 35.74285416229485 15.874347724554354 4.09510343701358 0 1 0
679 1 42.02249321381902 16.725444451757948 7.759959209746323 -1 -1 0
362 1 43.16909257462726 16.957938444086906 5.42274649741469 0 0 0
360 1 45.05748361736019 18.881922856786616 5.154268358755348 0 0 1
1747 1 49.458678231518334 17.928257742216726 3.830515554500582 -1 0 1
3171 1 0.7096234976139257 21.728359792413187 4.558605166540076 0 0 1
4014 1 3.399322428941896 20.79016785978726 6.006985627507795 1 1 1
648 1 6.84383203028532 18.454135736721607 3.74192042070678 0 0 0
2387 1 9.715966392376856 19.327896780708603 2.5747491287848385 -1 1 0
759 1 5.419813833699362 21.026689366808874 4.17933839671299 1 0 1
1988 1 10.709345962606204 19.07916273700799 5.13320892027757 0 0 1
3257 1 12.987362992057001 20.440795766910693 4.077172373442417 0 1 0
4005 1 19.061194915135 19.923181590078165 5.609061320195372 0 0 0
3277 1 22.884892969124433 20.51964884675898 3.9134358015251713 0 0 0
254 1 28.733184574279885 20.65995673255825 6.639730066260542 0 0 -1
175 1 29.844991498644173 21.60665495852031 4.472623209224114 0 1 1
3477 1 36.23090128725444 18.27094611496795 5.447672412396133 -1 1 1
4092 1 33.53068731497493 19.074466285330484 5.26789406076959 1 0 1
3298 1 39.37541659895105 20.994117424010582 6.371472089292178 0 0 0
1145 1 41.136006514236854 21.97994520412165 4.0998699414168565 0 0 0
1420 1 43.13060294072646 21.371453672557625 6.107242962885335 -1 -1 0
388 1 25.06161604204408 1.229064548392695 16.610264844513605 1 0 -1
1755 1 2.6004458367605303 23.719049041812113 5.678928444782642 0 0 1
1273 1 48.26683315865117 0.5658950399073324 11.09376053064374 -1 0 1
1113 1 6.90870074255735 23.071310129882768 5.1721948930934944 1 0 1
1651 1 14.168979548646814 22.252397763355404 5.756067651726142 0 0 0
702 1 16.642198427726747 23.07000026981957 4.335909858694385 0 0 0
1175 1 19.38807820487093 22.70927452203776 5.149304935086385 0 0 0
2056 1 20.841704081981586 23.622595634430226 2.7520997748069567 0 0 1
640 1 33.11566634746444 22.53171007436615 16.239929266303765 0 0 1
1855 1 22.233979304192538 22.54135212513491 5.9643427050132045 -1 0 0
2198 1 27.487277137554106 23.239715151684333 3.871173293461297 1 1 0
655 1 35.74492004747496 22.72078902655488 4.14086951839857 0 0 0
247 1 37.09834559370961 22.57906476131639 6.6703934312420365 -1 0 0
3331 1 17.89999316336937 0.8493522413443868 1.8375672163495318 0 1 0
1882 1 46.41451594052941 22.656424392582203 3.7979650244891645 -1 -1 1
3366 1 43.83729243763986 24.399213762249804 3.874471934902869 0 0 1
1609 1 32.58745640213316 7.07894461509365 1.8179995424824482 0 0 1
4125 1 3.4247837446086975 3.9532694036112614 6.231907995438025 0 1 0
2952 1 21.966848513565047 1.3528428823453749 8.927480404952878 0 1 1
158 1 8.570510398655479 4.380137580788279 7.956867024422138 1 0 0
3320 1 38.34630155895536 0.5772014046074543 8.337493106444294 0 1 0
4048 1 22.697693618980786 0.1445977057417238 0.7793867759726522 0 1 0
159 1 18.014855730303328 3.140914284718169 7.728688633289825 0 1 0
585 1 24.320129497396913 2.4038429379328274 5.014240338457189 0 0 0
3928 1 29.25513129668282 1.2802052337556662 5.737007889990548 0 1 0
939 1 42.10457486689134 22.65249639928082 14.520544329441222 0 0 0
431 1 31.345290507234132 2.274162373954192 7.251067456633609 0 1 0
2321 1 34.76092002655447 2.942296330290026 10.658216261360584 0 0 0
179 1 35.60130921952148 0.4642821517858382 9.72886372030748 0 -1 0
3874 1 42.28757614518939 0.6228559742705941 7.160702837208477 -1 1 2
2581 1 44.92988136191727 0.4412289932564567 8.226987155219545 0 1 1
2245 1 45.78075493389281 2.9971484445128405 9.224614541473944 0 1 0
3478 1 0.06826266841995804 4.902309643690498 9.209678904136169 1 0 1
3835 1 2.8430458728381405 4.422109727994226 8.739279838356257 1 1 0
2901 1 1.194521356387249 6.743261686159411 6.773322578561649 1 0 0
603 1 5.533609542074113 3.0651114460959312 8.899793568817019 0 0 0
2011 1 6.374508982718717 4.942982321118205 10.723415164103539 1 0 1
1067 1 13.461330719444708 1.5664464666712077 9.629245711147185 0 1 0
3517 1 15.377592577735237 5.265207910613776 7.039683507005971 0 1 0
1878 1 19.90842674602453 4.909941702738957 6.367687591639848 0 0 1
2452 1 29.155251540652767 6.758661132757634 8.623817673825927 1 0 0
526 1 31.952827663266188 6.609128930377998 9.988973466616725 -1 0 0
426 1 38.013098298060214 5.828794268158137 6.647936446391898 -1 1 -1
1533 1 33.945152739788426 5.085023207875703 8.702005377542095 -1 1 1
903 1 41.821115146027935 4.12908132045543 9.811525936988518 -1 1 1
298 1 46.67616345078558 4.565417888883463 7.2936766615945805 1 1 0
2571 1 49.35532633453599 4.216025439364875 6.510023459614987 -1 0 0
1418 1 0.6305002320869157 9.29017145121369 8.139318062032439 0 1 0
3949 1 4.772012047937974 8.547108346400941 8.469731707003705 1 1 2
2653 1 8.358445547053925 6.979782708434161 9.61295390041241 1 1 0
2357 1 6.993339630130639 9.55423689667941 9.85410226468729 0 1 0
3326 1 9.379937724981469 9.093270716618495 7.740591817981716 1 1 1
57 1 11.8089530402816 7.735250748082443 7.0082409084906105 0 1 0
3502 1 12.787778816575669 8.264963303500368 4.454681917385196 1 1 0
2776 1 16.113712826337757 7.643791546896309 9.09494178236132 0 1 -1
3746 1 18.989125599570972 10.523261948145493 8.425781106816581 0 1 0
2738 1 21.149512923534243 9.381342771306384 7.050253817740348 0 1 0
2219 1 28.71489933988217 9.360839403261867 7.142660954894433 1 0 0
1887 1 24.31982545050699 6.634618780466277 6.822168359913147 0 1 0
499 1 32.17315419827547 7.942898055655478 7.378405943331867 -1 0 0
3776 1 33.89036829343182 8.464075611145773 11.041455316400347 1 1 1
1487 1 36.2579119266469 7.181616590834894 8.712288606061716 0 1 1
2196 1 40.51174428858829 6.6465594363478635 9.98311277065873 0 1 0
3141 1 46.993043653262674 7.102234045363682 8.499326800102411 0 1 1
2936 1 49.57052306863815 7.671731357438656 9.82778541285149 0 0 1
2773 1 3.071732577252894 10.467440672191346 7.662566920160047 1 1 0
3456 1 6.042522827180811 12.619104175938112 8.938746765730723 1 1 1
4155 1 9.460564945672964 11.5217654446432 9.08055366430818 1 1 1
13 1 13.80408576292903 10.505037713659501 7.542763599853795 0 0 -1
1214 1 17.88016188648022 11.094527241639286 6.023754440246344 1 0 0
853 1 22.435350962355056 9.542393738662453 9.632872549251998 0 0 0
3030 1 22.549397131537862 10.68816285966386 4.732109926263921 0 1 0
3786 1 24.825428268712038 10.883733560191788 8.633475219044824 0 1 1
1656 1 31.88076485598983 10.640772515571895 6.765151232719416 0 0 2
1165 1 37.090984095902286 10.013512898097073 8.791324069974438 0 1 1
1986 1 34.91209680765536 10.907008637263365 10.313567802692003 1 0 1
1 1 39.27668400556804 11.225204847474936 10.171549569376234 0 1 0
3622 1 39.30087404805697 10.594512759746317 6.259723439709849 0 0 0
806 1 42.32692663535502 10.47947938353566 9.880273224271749 0 0 1
1807 1 44.065006290990695 11.216649006440806 7.49568955432884 0 0 0
1449 1 46.830222724439736 11.45595186058887 8.329617301269485 -2 0 0
3014 1 0.6786192101496231 15.72344201072829 7.171155444027763 1 0 1
2003 1 49.74910103291204 15.352401466451036 10.009799540289514 0 0 0
4133 1 2.7153260113740982 13.735497431100429 6.880936522911853 1 1 1
2412 1 6.877959022959049 11.755808024684391 6.16098626082672 0 1 0
2636 1 3.3953928726645413 12.527395603863283 9.642832621078666 1 0 1
3521 1 8.355021308852326 14.217434214708666 9.147128221275837 0 1 1
143 1 9.529564538213574 14.820455822906816 6.300610904975977 1 0 0
691 1 11.43326001434797 12.455844666910357 7.39349060838698 0 0 0
3049 1 13.275491060109847 14.271707722577318 8.46000415287277 0 0 0
3398 1 16.27350289987725 13.859911181670784 9.040118128770903 1 1 0
2969 1 21.071566027870258 12.589862259628099 8.380736776635871 0 0 1
662 1 23.271696487123133 12.496187833879215 6.755264368324014 0 0 0
3729 1 25.066883466333074 14.726806474368406 7.293246542669762 0 1 1
1523 1 27.04379881930103 12.718043602322727 8.37098879834444 0 0 0
1985 1 28.42876968284072 14.434209303847497 9.895082925339258 -1 0 1
101 1 30.409777006923544 12.493021231481283 10.366339670335176 0 1 0
331 1 32.838963810664865 12.31603463210983 8.787960700346558 -1 0 -1
2408 1 34.43153482506847 14.867164203772292 8.486891580417062 1 1 0
3866 1 38.56141159651844 14.054592257046911 10.523557693923234 -1 0 0
3526 1 43.01258197423708 13.635225132528454 7.054094192578441 0 0 1
1777 1 47.39525106849052 15.099087157391 6.551921401292708 0 0 1
2707 1 47.395204390397524 14.13436199347255 9.091942801384354 0 1 0
1518 1 2.0253588842295023 18.13325305001748 7.733180409678853 0 0 1
1263 1 6.757835441658683 16.732772065799026 8.487914766303597 0 -1 0
1635 1 11.481763340231586 16.673785592672274 5.838205206258623 0 0 1
1809 1 13.353500671856684 16.86623557069095 7.842518824071944 0 0 0
462 1 15.829409173164189 18.349214971743255 7.689836228218695 1 0 -1
1387 1 17.76753989559009 18.121278751588157 9.780034381814097 1 1 1
1393 1 19.20691382560851 14.735438132883067 8.513566638153751 0 -1 0
1242 1 23.13581596804928 16.9540662742464 6.899400077055309 -1 0 0
807 1 28.987713345156493 17.937091192526115 6.150645487784509 0 0 0
916 1 28.8402595064636 17.023568594863324 8.741921340904321 0 0 -1
1075 1 33.97338059963185 18.732345764332486 11.58133901916584 0 1 1
2311 1 36.69604912403477 17.648920073970704 7.998060823363257 -1 1 0
2058 1 39.02000478642668 15.238461968469478 7.758326971419405 -1 0 1
3256 1 39.704344749169834 18.35385541557534 7.850196075950693 -1 0 1
3963 1 47.44926597001172 17.938775915674192 6.611462714719058 0 0 0
3254 1 3.2184827492265846 20.043088375961528 9.971506070092596 1 0 0
3791 1 5.435895489845345 21.169257766536116 8.228824140611671 1 1 1
4059 1 7.867794970765821 19.641722937220763 7.819992350738324 1 0 1
3848 1 10.176929434469086 20.751677410232272 7.056300879684339 0 0 0
2631 1 12.152956288505127 20.59920517595122 9.046091367656077 0 1 0
3198 1 14.559292629789876 20.931340643615574 7.879657529773392 0 0 0
1534 1 20.364920710306773 19.735756164817296 8.053327056440992 0 0 0
1718 1 20.810556897363835 17.121235068542422 8.845132022013509 0 0 0
2813 1 22.839129846672268 21.094842394189907 8.468972861779235 0 1 1
1398 1 25.299892405568784 19.844137645965922 7.557199948387355 1 -1 0
348 1 30.41426416099447 21.309136806135847 8.768076486429159 -1 0 0
3420 1 33.27202113286904 21.29591198021081 7.964025350265759 0 0 1
529 1 34.00367630147872 18.835569578836346 8.679612350754953 0 1 1
2363 1 35.80709179786382 22.739235156987707 9.008685872835812 0 1 1
261 1 37.181564620639534 18.911471535648765 10.31714385628806 0 0 0
63 1 41.84022516424709 20.541837629492544 8.339050679047112 0 0 0
1346 1 46.488000264296176 21.664351831049977 6.4454991195475255 0 -1 1
4095 1 50.043544256583345 19.52954804694035 6.3538881041964945 -1 0 1
1050 1 1.2091674113545892 24.80447108834528 7.9395475516486975 2 0 0
2759 1 3.988431065657614 16.83418697570545 9.627723511448323 0 0 0
1404 1 8.241036512399159 23.763461041472368 8.719658596819393 1 -1 1
714 1 9.776808215899276 23.218145054485017 6.5080650817847605 0 0 0
627 1 12.137922069753438 24.42814903170031 6.793685357884221 0 0 0
2209 1 16.279408301232714 22.254949602675424 9.423169347445759 0 1 0
3096 1 19.32984392341441 24.500606989096507 7.299020568932087 0 0 0
1231 1 21.492817874851923 24.024227761363985 8.959868189211756 -1 0 0
929 1 26.3374833010451 22.339334155548503 6.6113378484888425 0 0 0
2884 1 26.443885995428428 23.617406160491242 9.038187423625837 1 0 0
1373 1 29.213129641529594 23.71385390029502 9.762447777060604 -2 0 1
2788 1 32.9249886873108 22.19490216906646 5.090595809149161 0 1 -1
3453 1 37.35473175081994 21.67642009379894 11.196376169179622 0 1 0
3665 1 1.9379675966718444 24.860526957961564 2.953690875040569 0 0 0
851 1 39.49110760772025 23.268840877330167 10.97941624753952 -1 0 0
3917 1 40.58260314716219 23.03543602071924 8.50898860073475 0 0 0
1176 1 43.19207263308333 23.890478486715594 9.682701950141995 0 0 0
3923 1 45.078374566769455 23.639060507474554 7.500717242893213 0 0 1
625 1 48.61988504690484 23.653389197604323 7.240966946448729 0 0 0
1616 1 2.1668300328170607 1.9930975736763417 10.088612544354662 1 1 0
2360 1 1.6240820704881656 2.508240998475968 12.92267677620459 0 0 0
981 1 25.66160768405774 4.2143093882186395 14.098773965182753 0 0 1
2686 1 41.02694485971392 24.820834255968553 4.691674838437277 1 0 0
144 1 15.885086528265544 1.8059012212751504 10.88039141795625 1 -1 1
1928 1 24.354246881441288 13.09523507965323 14.581939522292519 -1 1 0
3679 1 19.53172204922846 2.178320246093589 9.979849287565424 0 0 1
2528 1 24.491088399968657 1.4547482889127135 9.92989415998428 1 1 0
156 1 22.158300680551914 4.53221480489645 11.031930125530288 -1 1 0
1253 1 26.954506978998406 1.4791264216748718 11.811432707126704 1 1 1
645 1 29.35784647320787 2.4328920412600468 9.120653441010207 0 1 0
3692 1 28.375882531067383 3.837715827016884 11.402520429410558 -1 1 1
3807 1 8.553550019166245 0.037513929045767516 3.2579562828027484 0 1 1
1592 1 35.17150832386224 3.387011382714491 13.274623351089135 1 -1 0
1929 1 40.912918470566666 1.6636490912306283 10.80024656918633 1 0 1
1380 1 34.4233620145213 24.437434393317652 14.56067411080647 -1 0 0
3538 1 48.29976222383232 3.3637507831464357 10.385734134569645 0 1 1
1664 1 6.367976089058854 4.047164251208711 13.311383190275166 0 1 1
2730 1 9.221332839174735 3.2642101809782815 10.61865606064046 0 1 0
2230 1 10.928918673310479 5.271730113329635 11.740202330171355 -1 0 -1
1227 1 8.565910907244621 3.363897322844422 14.615381122749726 1 -1 1
1804 1 13.454903424212942 6.1915344097608065 10.69312509969547 0 0 1
2060 1 13.209494977134158 4.0573539952201 8.449952007981464 0 -1 0
556 1 16.23060310670326 4.405649066939775 9.882993592256076 -1 0 0