
# Create simulation box of size 50 x 50 x 50 Angstrom
#
lattice	            sc 1
Lattice spacing in x,y,z = 1.0000000 1.0000000 1.0000000
region 	            all block 0 50 0 50 0 50 units box
create_box          1 all
Created orthogonal box = (0.0000000 0.0000000 0.0000000) to (50.000000 50.000000 50.000000)
  1 by 2 by 3 MPI processor grid

# fill box with 4175 randomly distributed atoms
#
create_atoms        1 random 4175 63782 all
Created 4175 atoms
  create_atoms CPU = 0.000 seconds
mass                1 18.015

# Define potential
#
pair_style          sw
pair_coeff          * * ML_mW.sw mW
Reading sw potential file ML_mW.sw with DATE: 2019-02-27

# Run minimization
#
minimize            1.0e-8 1.0e-8 10000 1000
WARNING: Using 'neigh_modify every 1 delay 0 check yes' setting during minimization (../min.cpp:187)
Neighbor list info ...
  update every 1 steps, delay 0 steps, check yes
  max neighbors/atom: 2000, page size: 100000
  master list distance cutoff = 6.0032907
  ghost atom cutoff = 6.0032907
  binsize = 3.0016454, bins = 17 17 17
  1 neighbor lists, perpetual/occasional/extra = 1 0 0
  (1) pair sw, perpetual
      attributes: full, newton on
      pair build: full/bin/atomonly
      stencil: full/bin/3d
      bin: standard
Per MPI rank memory allocation (min/avg/max) = 4.255 | 4.258 | 4.261 Mbytes
Step Temp E_pair E_mol TotEng Press 
       0            0    7792709.3            0    7792709.3    5898794.3 
     630            0   -45180.336            0   -45180.336   -154.07449 
Loop time of 1.12575 on 6 procs for 630 steps with 4175 atoms

99.0% CPU use with 6 MPI tasks x no OpenMP threads

Minimization stats:
  Stopping criterion = max force evaluations
  Energy initial, next-to-last, final = 
      7792709.32924461  -45180.0188663597   -45180.336116598
  Force two-norm initial, final = 2.0191930e+08 4.9721331
  Force max component initial, final = 1.0948746e+08 0.73126211
  Final line search alpha, max atom move = 0.053306038 0.038980685
  Iterations, force evaluations = 630 1000

MPI task timing breakdown:
Section |  min time  |  avg time  |  max time  |%varavg| %total
---------------------------------------------------------------
Pair    | 0.88014    | 0.97817    | 1.0446     |   5.9 | 86.89
Neigh   | 0.023834   | 0.024511   | 0.025564   |   0.4 |  2.18
Comm    | 0.036288   | 0.10368    | 0.20233    |  18.2 |  9.21
Output  | 0          | 0          | 0          |   0.0 |  0.00
Modify  | 0          | 0          | 0          |   0.0 |  0.00
Other   |            | 0.01938    |            |       |  1.72

Nlocal:        695.833 ave         704 max         685 min
Histogram: 1 1 0 0 1 0 0 1 0 2
Nghost:        1494.17 ave        1515 max        1468 min
Histogram: 1 1 0 0 0 0 1 1 1 1
Neighs:        0.00000 ave           0 max           0 min
Histogram: 6 0 0 0 0 0 0 0 0 0
FullNghs:      19997.0 ave       20462 max       19320 min
Histogram: 1 1 0 0 0 0 0 2 0 2

Total # of neighbors = 119982
Ave neighs/atom = 28.738204
Neighbor list builds = 26
Dangerous builds = 0

# Add velocity/set timestep
#
velocity            all create ${TEMP} 120598 rot yes dist gaussian
velocity            all create 220 120598 rot yes dist gaussian
timestep            5.0

# Define output
#
compute	            1 all msd
thermo	            100
thermo_style        custom step temp press vol etotal ke pe c_1[4] density

# Neighbor lists
#
neigh_modify        delay 0 every 1 check yes

# Set fixes
#
fix                 1 all momentum 10 linear 1 1 1 rescale
fix                 2 all nve
fix                 3 all temp/csvr ${TEMP} ${TEMP} 500.0 928347
fix                 3 all temp/csvr 220 ${TEMP} 500.0 928347
fix                 3 all temp/csvr 220 220 500.0 928347
fix                 4 all press/berendsen iso ${PRES} ${PRES} 1000.0 modulus 20000
fix                 4 all press/berendsen iso 450 ${PRES} 1000.0 modulus 20000
fix                 4 all press/berendsen iso 450 450 1000.0 modulus 20000

# Run 0.5 ns equilibration
#
dump                1 all custom 1000 eq.${NAME}.dump id type x y z vx vy vz
dump                1 all custom 1000 eq.liquid_density_MLmW.dump id type x y z vx vy vz
run                 100000
Per MPI rank memory allocation (min/avg/max) = 3.506 | 3.508 | 3.511 Mbytes
Step Temp Press Volume TotEng KinEng PotEng c_1[4] Density 
     630          220    846.92133       125000   -42443.118    2737.2183   -45180.336 2.7295415e-33   0.99914793 
     700    140.19571    316.94407    125081.28   -41603.539    1744.3012    -43347.84   0.25893258    0.9984987 
     800    174.73949    111.39082    124865.69   -40845.055    2174.0915   -43019.146   0.62084618    1.0002227 
     900    190.92577    536.06572    124627.04   -40426.243    2375.4795   -42801.722    1.0411051     1.002138 
    1000    207.30339    540.18338    124695.64   -40145.815    2579.2482   -42725.064    1.4080699    1.0015867 
    1100    208.43516    325.93668    124504.39   -39955.325    2593.3297   -42548.655    1.9102592    1.0031252 
    1200    208.88924    337.53728    124489.91    -39992.49    2598.9793   -42591.469    2.3640305    1.0032419 
    1300    215.35651    348.24388    124434.48   -39973.605    2679.4445   -42653.049    2.7681636    1.0036888 
    1400     214.4998    188.94931     124437.4    -39980.73    2668.7853   -42649.515    3.2194566    1.0036653 
    1500     211.7449    455.67232    124368.01   -39922.741    2634.5091    -42557.25    3.6841234    1.0042252 
    1600    221.29567    587.77638    124432.21   -39820.149    2753.3388   -42573.488      4.09901    1.0037071 
    1700    218.54835    408.13207    124671.18   -39841.172    2719.1569   -42560.329    4.4428568    1.0017832 
    1800    220.04271    286.01713    124757.72   -39929.203    2737.7497   -42666.952    4.7532802    1.0010883 
    1900    219.03851    484.82335    124642.56   -39930.494    2725.2555   -42655.749    5.0595739    1.0020132 
    2000    222.33174    519.05189    124699.53   -39898.208    2766.2295   -42664.438    5.4342746    1.0015555 
    2100    222.73753    540.10228    124860.51   -39869.523    2771.2783   -42640.802    5.8036689    1.0002642 
    2200    220.91198    418.42464    124912.16   -39912.886     2748.565   -42661.451    6.2699457   0.99985058 
    2300    220.63929    579.33147    124965.18   -39902.995    2745.1722   -42648.167    6.5906778   0.99942629 
    2400    221.06282    538.95809    125112.21   -39926.689    2750.4418   -42677.131    6.9505559   0.99825184 
    2500    223.06305    552.30574    124985.73   -39892.023    2775.3285   -42667.351    7.2847291   0.99926204 
    2600    229.07949    316.84385    124965.21   -39847.803    2850.1844   -42697.988    7.6174741   0.99942607 
    2700    223.79499    453.30438    125113.76   -39889.268    2784.4351   -42673.703    7.9208382   0.99823949 
    2800    225.65291     483.5037    125354.68   -39868.321    2807.5511   -42675.872     8.303595   0.99632095 
    2900    227.10682    551.27149    125301.26   -39948.146    2825.6406   -42773.787    8.5254322   0.99674573 
    3000    221.97921    386.14145    125242.84   -39988.183    2761.8433   -42750.027    8.8200291   0.99721063 
    3100    221.28866    325.66269    125362.29   -39969.908    2753.2516   -42723.159    9.1401542   0.99626048 
    3200    221.43412    610.93164     125576.3   -40025.334    2755.0614   -42780.395    9.5698952   0.99456262 
    3300      219.575    667.63208    125530.36    -40022.31    2731.9304   -42754.241    9.9663274   0.99492656 
    3400     218.4375    353.31769    125550.75   -40062.097    2717.7778   -42779.875    10.187995   0.99476497 
    3500    213.92624    421.78366     125802.6   -40092.929    2661.6491   -42754.578    10.519746   0.99277354 
    3600     217.4446    206.20847    125600.38   -40124.445    2705.4242   -42829.869     10.77469   0.99437189 
    3700    213.82388    716.17313    125518.35   -40166.525    2660.3756   -42826.901    11.109788   0.99502179 
    3800    217.70606    593.40058    125541.18   -40127.715    2708.6773   -42836.392    11.491257   0.99484083 
    3900    219.11754    648.32607     125658.7   -40140.746    2726.2388   -42866.985    11.851522   0.99391039 
    4000    221.44948    499.82801    125659.86     -40141.9    2755.2525   -42897.152    12.182598   0.99390126 
    4100    219.54696    168.57969    125616.02   -40129.337    2731.5816   -42860.919    12.452537   0.99424814 
    4200    218.92688    417.15999       125480   -40147.216    2723.8667   -42871.083    12.731786   0.99532589 
    4300    219.18239    490.54471    125629.93   -40134.594    2727.0457    -42861.64     13.12321   0.99413807 
    4400    217.60565    467.95354    125739.48   -40135.145     2707.428   -42842.573    13.338597    0.9932719 
    4500    217.65978    426.76806    125802.59   -40143.929    2708.1015   -42852.031    13.479534   0.99277364 
    4600    218.74532    366.57107    125608.59   -40194.858    2721.6076   -42916.465    13.628058   0.99430689 
    4700    223.11334    341.56492    125618.59   -40124.064    2775.9541   -42900.018    13.711977   0.99422777 
    4800    219.88815    448.75224    125573.93   -40208.761    2735.8266   -42944.588    14.090403   0.99458134 
    4900    221.06581     475.4646    125554.65    -40088.79     2750.479   -42839.269    14.438384   0.99473406 
    5000    219.89047    599.17183    125549.82   -40012.597    2735.8555   -42748.453    14.595697   0.99477239 
    5100    222.57172    271.63446    125542.65   -40073.953    2769.2153   -42843.168     14.90717    0.9948292 
    5200    217.50278    636.13602     125662.1   -40116.449    2706.1481   -42822.597    15.140351   0.99388354 
    5300    222.58932    664.99182    125591.92   -40082.328    2769.4343   -42851.762    15.443726   0.99443891 
    5400    217.62329    443.77944    125791.63   -40109.504    2707.6474   -42817.151     15.76381   0.99286014 
    5500    215.01739    611.52015    125571.57    -40104.16    2675.2251   -42779.385    16.235019   0.99460003 
    5600    220.09801     474.1474     125385.6   -40101.402    2738.4377    -42839.84    16.425461   0.99607526 
    5700    223.36675    545.21139    125213.66   -40094.516     2779.107   -42873.623    16.611899   0.99744304 
    5800    218.10137     455.8205    125297.81   -40130.461    2713.5957   -42844.056    16.885686   0.99677317 
    5900    217.51163    602.66764    125381.19   -40158.914    2706.2582   -42865.172    17.119333   0.99611024 
    6000    218.89558     520.4808    125609.84   -40162.545    2723.4771   -42886.022    17.468484     0.994297 
    6100    219.14818    444.04891    125541.98   -40097.571      2726.62   -42824.191    17.749897   0.99483449 
    6200    221.93377    349.45374    125509.78   -40161.705     2761.278   -42922.983    18.130118   0.99508972 
    6300     219.4849    231.28765    125255.39   -40125.206    2730.8094   -42856.016    18.430168   0.99711073 
    6400    219.63494    430.86916    125190.49    -40105.85    2732.6762   -42838.526    18.806073   0.99762759 
    6500    221.97053    427.20609    125270.52   -40048.085    2761.7354   -42809.821    19.245623   0.99699025 
    6600    215.22583    393.79957    125122.65   -40117.524    2677.8185   -42795.342    19.560219   0.99816849 
    6700    212.70511    362.97752    125141.66   -40185.487     2646.456   -42831.943     19.67761   0.99801693 
    6800    219.96212    401.92726    124973.63   -40089.125     2736.747   -42825.872    19.756463   0.99935879 
    6900    228.58513    368.77474    125100.18   -40022.567    2844.0336   -42866.601     19.86397   0.99834784 
    7000    225.16733    379.75424    124938.68   -40015.386    2801.5096   -42816.896    20.235963    0.9996383 
    7100    222.11337    300.33658     124800.7   -40032.558    2763.5126   -42796.071     20.58542    1.0007435 
    7200    215.98521    424.37882     124949.5   -40094.441    2687.2666   -42781.708    21.056819   0.99955172 
    7300    220.31196    469.52345    125069.11   -40159.483    2741.0996   -42900.582    21.220526   0.99859585 
    7400    215.67033    528.28728     125033.3   -40204.247     2683.349   -42887.596    21.400456   0.99888182 
    7500    220.81169    501.49795    125132.56    -40178.73    2747.3173   -42926.048    21.745702   0.99808951 
    7600    217.42448    387.60096    125318.91   -40244.461    2705.1739   -42949.635    21.889961   0.99660528 
    7700    217.19558    279.15054    125270.97   -40150.943    2702.3259   -42853.269    22.079045   0.99698669 
    7800    219.20436    466.79006    125451.39   -40128.572     2727.319   -42855.891    22.557292   0.99555288 
    7900    217.37388     389.5422    125662.74   -40189.635    2704.5443   -42894.179    22.891612   0.99387844 
    8000    219.79463    511.59043    125468.19   -40168.495    2734.6631   -42903.158    22.844272   0.99541959 
    8100    220.13704    690.60023    125399.19   -40244.381    2738.9232   -42983.304    23.066207   0.99596729 
    8200    213.15053    426.20986    125473.71   -40267.386    2651.9978   -42919.384    23.227481    0.9953758 
    8300    214.40543    673.81001    125181.47   -40240.108    2667.6112   -42907.719    23.583819   0.99769952 
    8400    215.01747    373.57532     125444.9   -40180.531    2675.2261   -42855.757    23.917037    0.9956044 
    8500    219.33912    341.81316    125397.19   -40101.054    2728.9957   -42830.049    24.291647   0.99598317 
    8600    219.35681    474.67479    125349.74   -40113.105    2729.2158   -42842.321    24.718941   0.99636019 
    8700    217.78156     582.1794    125405.49   -40082.599    2709.6166   -42792.216    24.869801   0.99591726 
    8800    217.98826    330.44086    125424.56   -40119.407    2712.1884   -42831.595    25.142297   0.99576581 
    8900    215.72696    604.16984    125483.22   -40213.949    2684.0535   -42898.003     25.51155   0.99530035 
    9000     219.0294    286.40026    125618.21   -40157.628    2725.1422    -42882.77     25.53544   0.99423078 
    9100    214.54817    534.16789    125497.51   -40232.501    2669.3871   -42901.888    25.864943   0.99518702 
    9200    219.68474    462.72585    125646.58   -40140.582    2733.2958   -42873.878    26.271128   0.99400632 
    9300    219.25962    576.42247    125537.81   -40183.498    2728.0065   -42911.505    26.539386   0.99486755 
    9400    218.56533    429.92407    125679.27   -40140.288    2719.3682   -42859.656    27.016359   0.99374775 
    9500    215.35891    306.67239    125824.75   -40149.009    2679.4742   -42828.483    27.283802   0.99259875 
    9600    222.02002    556.51502    126053.18   -40125.269    2762.3512    -42887.62    27.551729   0.99079997 
    9700    218.94049    575.59022       126047   -40070.533     2724.036   -42794.569    27.962562   0.99084855 
    9800    221.23696    439.70507    125981.43   -40145.154    2752.6084   -42897.763    27.992598   0.99136428 
    9900     214.8427    468.09134    125840.22   -40208.359    2673.0517   -42881.411    28.282421   0.99247674 
   10000    218.27965    582.65057    125955.68   -40216.708    2715.8139   -42932.522    28.450045   0.99156697 
   10100    217.50547    501.23301    126007.05   -40182.716    2706.1816   -42888.897    28.796698   0.99116269 
   10200    218.00533      536.732    126014.12   -40235.949    2712.4007    -42948.35     29.19048   0.99110713 
   10300    222.28383    621.64117    126108.32   -40231.104    2765.6334   -42996.738    29.265985   0.99036676 
   10400    218.92312    440.78623     126175.2   -40173.516    2723.8198   -42897.336    29.774528   0.98984186 
   10500    222.17321    390.83583    126353.19   -40166.048    2764.2571   -42930.305    30.072065   0.98844744 
   10600    222.89199    572.38274    126208.59   -40099.562    2773.2001   -42872.763     30.39971      0.98958 
   10700    223.45904    314.05249    126036.05   -40091.641    2780.2553   -42871.896    30.596856   0.99093466 
   10800    229.09682    549.21615    126243.59   -40097.654    2850.3999   -42948.054    30.971617   0.98930564 
   10900    218.69679    673.56613    126174.13   -40136.886    2721.0038    -42857.89    31.055533   0.98985022 
   11000    218.26575    557.07432    126201.51   -40128.174    2715.6409   -42843.815    31.132078   0.98963547 
   11100    216.10462    483.05995    126204.01   -40163.241    2688.7523   -42851.993    31.324059   0.98961585 
   11200    220.99666    487.48254     125933.9   -40152.834    2749.6186   -42902.453    31.439423   0.99173846 
   11300    221.15204     451.4676    125843.72   -40146.554    2751.5518   -42898.106    31.293685   0.99244917 
   11400    220.28624    427.20329     125949.1   -40160.125    2740.7796   -42900.905    31.630155   0.99161879 
   11500    215.64913    686.16376    126058.54   -40181.226    2683.0851   -42864.311    32.173156    0.9907579 
   11600    220.97456    387.12147    125997.48   -40185.717    2749.3436   -42935.061    32.437956   0.99123801 
   11700    217.55945    522.59819    126016.33   -40073.925    2706.8532   -42780.778    32.623207   0.99108975 
   11800    221.08714     330.4821    126126.19   -40153.324    2750.7444   -42904.068    32.921339    0.9902265 
   11900    219.30476    531.70041    125916.76   -40171.481    2728.5681   -42900.049     33.20121   0.99187343 
   12000    214.39134    286.99303    125999.98   -40156.922    2667.4359   -42824.358    33.530434   0.99121837 
   12100    220.08778    519.97172    125632.58   -40093.993    2738.3104   -42832.303    33.596699   0.99411706 
   12200    220.21512    506.08211    125945.94   -40091.917    2739.8948   -42831.812    33.995405   0.99164365 
   12300    220.39641    461.33631    125942.97   -40106.464    2742.1503   -42848.614    34.137961   0.99166704 
   12400    221.98115    602.36397    126028.37   -40092.585    2761.8676   -42854.453    34.325023   0.99099506 
   12500    220.91809    433.35876     125611.6   -40197.038     2748.641    -42945.68    34.538275   0.99428311 
   12600    222.88823     328.0943    125788.25     -40124.1    2773.1533   -42897.254    35.060706   0.99288675 
   12700    226.80621    661.54857     125941.7   -40109.513    2821.9005   -42931.414    35.401285   0.99167704 
   12800    221.61261     424.2764    126087.91    -40092.67    2757.2822   -42849.952    35.634592   0.99052707 
   12900    219.69806    456.68531     125980.9   -40153.452    2733.4616   -42886.913    35.506266   0.99136845 
   13000    226.05939    492.07588    125916.18   -40095.001    2812.6086   -42907.609    35.731946   0.99187801 
   13100    225.47951    781.67987    125943.99    -40104.44    2805.3937   -42909.834    36.215512   0.99165902 
   13200    224.15278    302.82735    126091.29   -40040.847    2788.8867   -42829.734    36.693033   0.99050052 
   13300    226.66475    545.87954    126093.82   -40092.688    2820.1404   -42912.828    36.914154   0.99048066 
   13400    220.88384    504.86262     126186.1    -40183.74    2748.2149   -42931.955    37.220539   0.98975635 
   13500    219.54572    403.84988    125870.38   -40222.991    2731.5662   -42954.557    37.395217   0.99223895 
   13600    212.67047    501.14979    125848.64   -40224.879    2646.0249   -42870.904    37.795845   0.99241033 
   13700    219.53414    423.04157    125632.51    -40220.59    2731.4221   -42952.012    37.794294   0.99411758 
   13800    222.99529     621.1423    125641.57   -40118.171    2774.4854   -42892.656    37.931079   0.99404594 
   13900    220.55939    598.69329    125786.29    -40151.49    2744.1781   -42895.668    38.430326   0.99290224 
   14000    218.01542    416.27963    125911.72   -40131.421    2712.5263   -42843.947    38.724083   0.99191313 
   14100    219.15208     480.3926    126068.08   -40138.472    2726.6685   -42865.141    39.029733    0.9906829 
   14200    222.06015     495.8217     125966.3   -40184.999    2762.8504   -42947.849    39.347265   0.99148335 
   14300    218.61815    418.05433     126036.7   -40246.591    2720.0255   -42966.617    39.858025   0.99092955 
   14400    219.38251    322.88241    126200.33   -40222.942    2729.5355   -42952.477    40.100918   0.98964473 
   14500    218.86742    471.56255    126291.33    -40167.44    2723.1268   -42890.567    40.045632   0.98893159 
   14600    221.97297    581.37021    126202.54   -40183.353    2761.7657   -42945.119    40.299822   0.98962741 
   14700    216.02491    419.59761    126132.77   -40237.664    2687.7606   -42925.424    40.406809   0.99017479 
   14800    219.38974    647.65687    126000.45   -40277.431    2729.6255   -43007.057    40.441673   0.99121467 
   14900    213.64274    548.82296    125869.44   -40340.085    2658.1218   -42998.206     40.64786   0.99224632 
   15000    218.04605    469.95714    125750.79   -40339.684    2712.9074   -43052.592    41.005308   0.99318258 
   15100    214.79619    611.75218    125971.96    -40368.23    2672.4729   -43040.703    41.317085   0.99143878 
   15200    217.06838     451.2833    126002.97   -40305.941    2700.7433   -43006.685    41.663003   0.99119484 
   15300    218.45452    382.37895     126096.6   -40319.003    2717.9896   -43036.992    41.948964   0.99045885 
   15400    220.20579    442.08708    126221.21   -40308.769    2739.7786   -43048.548    42.173037   0.98948099 
   15500    220.72415    545.95432    126144.15   -40289.256    2746.2281   -43035.484    42.316156   0.99008546 
   15600    221.08643     545.8777    126071.39   -40222.059    2750.7355   -42972.795    42.876471   0.99065689 
   15700    217.66123    299.67129    125937.32   -40319.885    2708.1195   -43028.005    42.972888   0.99171149 
   15800    220.05389    522.59335    126226.34   -40325.316    2737.8887   -43063.205    43.293471    0.9894408 
   15900    215.59075    542.16911    126282.53   -40363.498    2682.3588   -43045.857    43.506031   0.98900055 
   16000    217.80876    246.66247     126075.3   -40299.544    2709.9551   -43009.499    43.748655   0.99062618 
   16100    221.65077    524.18863    126193.98   -40262.273    2757.7569    -43020.03    44.050676   0.98969451 
   16200    218.43932    493.62391    126398.94   -40323.362    2717.8004   -43041.162    44.239997   0.98808973 
   16300    220.76796    406.98691    126558.42   -40344.319    2746.7732   -43091.093    44.459893   0.98684458 
   16400    223.21071    398.11637    126859.05   -40256.684    2777.1655   -43033.849    44.564488   0.98450598 
   16500    222.62185    572.32724    126852.12   -40253.761    2769.8391     -43023.6    44.659375   0.98455971 
   16600     221.8325    407.53014     126752.9   -40250.807     2760.018   -43010.825    44.916728   0.98533043 
   16700    219.74542    467.01982    126650.14   -40288.632    2734.0508   -43022.683    45.222138   0.98612995 
   16800     224.2753    509.79812    126587.01   -40294.355    2790.4111   -43084.766     45.31501   0.98662168 
   16900     221.3228    515.72763    126614.69   -40264.956    2753.6765   -43018.633    45.283508   0.98640601 
   17000    220.36452    406.84658    126557.95   -40288.332    2741.7536   -43030.085    45.327417   0.98684822 
   17100    223.33137    571.46592    126558.65   -40209.978    2778.6668   -42988.645    45.586713   0.98684277 
   17200    225.63421    498.86396    126863.54   -40233.048    2807.3185   -43040.367    46.083524   0.98447115 
   17300    219.29138    526.23268    126850.76   -40298.039    2728.4017    -43026.44    46.216022   0.98457029 
   17400    220.93853     487.7163    127042.05   -40337.704    2748.8953     -43086.6    46.705059   0.98308778 
   17500    222.01884    490.11652    127107.63   -40329.426    2762.3365   -43091.763    46.978129    0.9825806 
   17600    219.71216    492.53394    127198.26   -40307.169    2733.6369   -43040.806    47.220148   0.98188047 
   17700    220.16985    448.51995    127397.85   -40332.057    2739.3316   -43071.388    47.360395   0.98034226 
   17800    220.11603    389.19044    127187.14   -40339.576    2738.6619   -43078.238    47.388588   0.98196638 
   17900    224.58153    415.68058    126996.22   -40308.656    2794.2212   -43102.877    47.485714    0.9834426 
   18000    224.38835    306.38528    126913.19   -40250.369    2791.8176   -43042.187    47.545836   0.98408601 
   18100     218.6939    586.43518    126909.88   -40343.091    2720.9679   -43064.059    48.024252   0.98411163 
   18200    221.27258     394.8299    127113.11   -40340.754    2753.0515   -43093.805    48.696739   0.98253825 
   18300    216.93502    404.29085    127020.76   -40249.655    2699.0841   -42948.739    49.224563   0.98325262 
   18400    220.19142     399.5478    127019.45   -40310.889    2739.5998   -43050.488    49.552263   0.98326273 
   18500    219.22388     516.6014    127002.66    -40274.64    2727.5619   -43002.201    49.728509   0.98339271 
   18600    217.85751    687.61855     127114.4   -40322.501    2710.5617   -43033.063    49.747661   0.98252826 
   18700    224.23231    392.25889    127170.55   -40295.269    2789.8763   -43085.145    49.813016   0.98209446 
   18800    221.46525    537.66061    127033.52   -40270.537    2755.4487   -43025.986    49.714992   0.98315382 
   18900    219.01319    403.88013    127112.12   -40321.647    2724.9404   -43046.588    49.892596   0.98254586 
   19000    222.76944     486.9659    127056.33   -40298.391    2771.6753   -43070.066    49.963831   0.98297735 
   19100    220.88687    442.46771    126884.08   -40363.474    2748.2526   -43111.726    50.175692   0.98431175 
   19200    224.33655    430.82262    127074.94   -40345.619    2791.1732   -43136.792    50.450353   0.98283339 
   19300     221.8796    483.07074    127037.59   -40298.871    2760.6041   -43059.475    50.512781   0.98312229 
   19400    224.83755    503.40579    127082.55    -40298.24    2797.4066   -43095.646    50.951284    0.9827745 
   19500    222.47319    445.96155    127115.38   -40291.641    2767.9894    -43059.63    51.159591   0.98252069 
   19600    223.72061     457.0112    127108.27   -40325.385    2783.5097   -43108.895    51.373215   0.98257567 
   19700    222.03311    602.41159    126825.89   -40298.643     2762.514   -43061.157    51.489818   0.98476336 
   19800    216.87345    477.33121    126930.19   -40327.492    2698.3181    -43025.81    51.498706   0.98395418 
   19900    223.26897    368.71088    126909.39   -40329.939    2777.8905    -43107.83    51.704903   0.98411547 
   20000    220.89499     451.5414    127080.71   -40370.021    2748.3536   -43118.375     51.86756   0.98278871 
   20100    217.36257    320.55264    127097.37   -40333.713    2704.4036   -43038.117    52.075978   0.98265991 
   20200    222.64146    460.99902    126977.18   -40391.358    2770.0831   -43161.442    52.231329   0.98359007 
   20300    219.43594    404.45854    126979.77   -40424.942    2730.2003   -43155.143    52.438027      0.98357 
   20400    220.03402    207.96738    126811.93   -40414.419    2737.6415    -43152.06    52.654558   0.98487176 
   20500    216.39778    576.53357    126651.68   -40374.793    2692.3998   -43067.193    52.623125   0.98611793 
   20600    215.21116    425.97811    126787.98   -40381.688     2677.636   -43059.324     53.04579    0.9850578 
   20700    219.56977    366.15304    126845.61   -40302.022    2731.8653   -43033.888      53.0682   0.98461029 
   20800    219.74996    578.10231    126709.29   -40278.912    2734.1073   -43013.019    53.154993   0.98566953 
   20900    218.14277     403.6608    126772.35    -40316.59    2714.1108     -43030.7    53.281928   0.98517926 
   21000    216.92497    416.73949    126880.95       -40411     2698.959   -43109.959    53.399269   0.98433602 
   21100     216.4379    550.24675    127081.22    -40417.66     2692.899   -43110.559    53.771698   0.98278478 
   21200    215.21621    571.18184    127339.39   -40386.949    2677.6988   -43064.647    54.072757   0.98079228 
   21300    218.69288    432.48239    127182.31   -40396.628    2720.9552   -43117.583    54.406735   0.98200362 
   21400    213.01256    265.30344    126978.94   -40359.766    2650.2812   -43010.047    54.840609   0.98357645 
   21500    217.89541    541.70911    127021.14   -40332.103    2711.0332   -43043.136    54.962698   0.98324963 
   21600    217.39231    315.86879    127057.15   -40278.685    2704.7736   -42983.459    55.357368   0.98297099 
   21700    220.98065    476.83882    127007.36   -40257.972    2749.4194   -43007.392    55.687704   0.98335632 
   21800    221.99669    345.08315    126958.77   -40250.435    2762.0609   -43012.496    56.061268   0.98373271 
   21900    220.86259    337.66849    126736.81   -40270.963    2747.9505   -43018.914    56.217958   0.98545557 
   22000    220.73617    511.63846    126557.75   -40313.655    2746.3776   -43060.033    55.812541   0.98684982 
   22100    222.19797    514.16914    126795.73   -40262.641    2764.5652   -43027.206    56.080954   0.98499762 
   22200    221.61082    455.84357    126701.14   -40297.206    2757.2599   -43054.466    56.495982   0.98573297 
   22300    225.56619    451.03227     126756.4   -40284.644    2806.4723   -43091.116    56.603661    0.9853032 
   22400     222.2534    557.94981    126668.18   -40260.337    2765.2549   -43025.592    57.087203   0.98598947 
   22500    224.50032    692.67852    126784.71   -40260.095    2793.2108   -43053.306    57.484729    0.9850832 
   22600    224.48778    321.13011       126859    -40224.88    2793.0548   -43017.935    57.587669   0.98450634 
   22700    220.88518    549.67461    126829.67   -40232.917    2748.2316   -42981.148    57.505325   0.98473399 
   22800    222.03929    538.49032    126792.01   -40211.987    2762.5909   -42974.578     57.99993   0.98502651 
   22900    225.21473    535.26448    126751.93   -40270.693    2802.0994   -43072.792    58.222388   0.98533801 
   23000    221.20949    543.20459     126797.3    -40242.74    2752.2666   -42995.007    58.156234   0.98498541 
   23100    216.80215    371.62307    126856.77   -40340.909    2697.4309    -43038.34    58.396805   0.98452368 
   23200    218.68255     573.8558    126827.26   -40291.399    2720.8267   -43012.225    58.597808   0.98475276 
   23300    221.00535    481.97606    126793.32   -40335.297    2749.7267   -43085.024    58.691114   0.98501637 
   23400    220.00439    447.79383     126817.8   -40271.098    2737.2728   -43008.371    59.037687    0.9848262 
   23500    221.84634    352.69996    126609.23   -40325.175    2760.1903   -43085.365    59.174702   0.98644854 
   23600    216.46877    481.02624    126527.88   -40314.567     2693.283    -43007.85    59.162774   0.98708281 
   23700    218.76735    350.96903    126519.09    -40345.61    2721.8817   -43067.491    59.283877   0.98715135 
   23800    218.33564    469.21885    126470.98   -40394.763    2716.5104   -43111.273    59.655181   0.98752683 
   23900    213.30771    423.36933    126567.68   -40403.395    2653.9534   -43057.348    59.955848   0.98677241 
   24000    220.32173    517.80515    126706.39   -40324.273    2741.2212   -43065.494       60.363   0.98569213 
   24100     215.9025    317.50093    126729.97   -40316.835    2686.2376   -43003.072    60.718266    0.9855087 
   24200    217.99942    414.67348    126708.74   -40364.111    2712.3273   -43076.438    60.748837   0.98567384 
   24300    216.91146    579.87957    126825.84   -40327.676    2698.7909   -43026.467    60.889898   0.98476379 
   24400    216.85251    491.87097     126675.1   -40354.332    2698.0575    -43052.39    60.920656   0.98593558 
   24500    218.31508    568.06478    126438.03   -40323.042    2716.2547   -43039.297    61.074777   0.98778424 
   24600    219.67609    533.46308    126576.35   -40319.954    2733.1882   -43053.142    61.302534   0.98670479 
   24700    213.50641    390.47699    126752.29   -40340.798    2656.4256   -42997.224    61.504124   0.98533521 
   24800     217.8379    325.62183    126856.67    -40345.63    2710.3177   -43055.948    61.635448   0.98452445 
   24900    222.07786    377.99079    126790.18   -40297.289    2763.0707   -43060.359    61.947148   0.98504071 
   25000    222.68238    652.24642    126883.05   -40268.267    2770.5921   -43038.859    62.060742   0.98431971 
   25100    219.21871    208.92538    126755.49    -40270.32    2727.4976   -42997.818    62.346025   0.98531031 
   25200    218.62398    608.80323    126758.15   -40310.308     2720.098   -43030.406    62.683406    0.9852896 
   25300     216.8099    473.46852    126603.05   -40287.333    2697.5274   -42984.861    63.144978   0.98649672 
   25400    218.97851    544.78868    126640.31   -40254.218     2724.509   -42978.727    63.271026   0.98620646 
   25500    222.48278    349.75278    126673.91   -40215.783    2768.1087   -42983.892    63.562621    0.9859449 
   25600    218.30725    523.27667    126584.28   -40285.591    2716.1572   -43001.748    63.777416   0.98664297 
   25700    215.42995     531.4461    126568.83   -40292.765    2680.3582   -42973.123    63.640189   0.98676344 
   25800    215.65421    257.21493     126670.4   -40275.402    2683.1483   -42958.551    63.609427   0.98597218 
   25900    224.37225    515.71904     126633.1   -40234.121    2791.6173   -43025.738    63.739861   0.98626258 
   26000     225.6872     527.2392       126821   -40168.813    2807.9779   -42976.791     64.06354   0.98480137 
   26100     217.8691    447.69503    126687.39   -40251.848    2710.7057   -42962.554    64.295132   0.98583998 
   26200    223.19958    498.96152    126796.35   -40252.131    2777.0271   -43029.158    64.676676   0.98499282 
   26300    220.38251    372.75308    126397.23   -40223.954    2741.9773   -42965.931    64.756852    0.9881031 
   26400    226.14153    390.07334    126465.73   -40225.184    2813.6305   -43038.814    65.016041   0.98756789 
   26500    223.42019    564.06286    126398.35   -40285.192    2779.7719   -43064.964    65.235285   0.98809429 
   26600    219.45272    509.63005    126299.46   -40327.163     2730.409   -43057.572    65.342691   0.98886796 
   26700    216.06759      288.247    126164.88   -40354.082    2688.2916   -43042.374    65.674534    0.9899228 
   26800     219.1057    505.16531    126215.32   -40295.126    2726.0915   -43021.217    65.753645   0.98952717 
   26900      224.077    327.46987    126430.87    -40299.72    2787.9439   -43087.664    66.103819   0.98784012 
   27000    215.37339    478.91784    126517.14   -40343.918    2679.6544   -43023.572    66.342812   0.98716659 
   27100    219.28672    460.15975    126449.61   -40353.817    2728.3437   -43082.161    66.595653   0.98769374 
   27200    217.41553    464.42606    126340.29   -40366.549    2705.0625   -43071.612    66.508958   0.98854842 
   27300     217.0179     628.2998    126407.58   -40393.887    2700.1153   -43094.002    66.623936   0.98802215 
   27400    219.49196    519.18922    126551.18   -40331.587    2730.8973   -43062.484    66.890474   0.98690103 
   27500     222.1558    399.99855     126483.8   -40270.372    2764.0405   -43034.413    67.066986   0.98742675 
   27600    224.42369    558.83437    126581.27   -40310.574    2792.2574   -43102.831    67.294904   0.98666645 
   27700    219.82806    279.78259     126668.4    -40311.93    2735.0789   -43047.009     67.44112   0.98598774 
   27800    220.54625    593.10455    126727.37   -40246.048    2744.0147   -42990.062    67.989263   0.98552895 
   27900     217.9902    81.862302    126610.83   -40260.351    2712.2125   -42972.564     68.11952   0.98643611 
   28000    216.38329    503.74117    126349.35   -40272.844    2692.2195   -42965.064    68.126853   0.98847749 
   28100    219.51401    413.55887    126351.79   -40254.578    2731.1716    -42985.75    68.622059   0.98845839 
   28200    219.37182    376.77078     126324.9   -40293.741    2729.4025   -43023.144    68.916047   0.98866884 
   28300    216.77973    396.33811    126262.99   -40273.431     2697.152   -42970.583    68.905758   0.98915363 
   28400    216.44402    545.64142    126289.89   -40312.155    2692.9751    -43005.13     69.08049   0.98894292 
   28500    216.23756    474.05993    126337.63   -40322.955    2690.4064   -43013.361    69.210803   0.98856924 
   28600    217.83991    587.47925    126621.61   -40284.579    2710.3426   -42994.921    69.399591   0.98635209 
   28700    214.24054    463.67658    126413.31   -40294.107    2665.5596   -42959.666    69.596194   0.98797738 
   28800    227.32882    473.90994    126252.34   -40243.481    2828.4028   -43071.884    69.576172   0.98923704 
   28900    222.02916    446.04787    126138.49   -40199.336    2762.4649   -42961.801    69.639063   0.99012991 
   29000     217.4481    475.49542    126037.22   -40240.162    2705.4678    -42945.63    69.771394   0.99092549 
   29100    222.42546    197.54556    125945.86   -40175.657    2767.3956   -42943.053     70.08403   0.99164429 
   29200    219.72183    462.10405    125890.74   -40142.703    2733.7572   -42876.461    70.354117   0.99207843 
   29300    221.41675    416.67896    126064.09   -40194.426    2754.8453   -42949.272    70.434116   0.99071422 
   29400     218.2412    498.02185    125930.67   -40241.128    2715.3355   -42956.464    70.385748   0.99176393 
   29500    217.48959    527.99529    125821.57    -40269.22     2705.984   -42975.204    70.898078   0.99262387 
   29600    218.34159    463.36817    125889.67   -40181.277    2716.5845   -42897.862     70.90528   0.99208687 
   29700    217.28657    453.84789    126225.75   -40229.585    2703.4581   -42933.043    71.449749    0.9894454 
   29800    216.80564     356.6219    126242.72   -40212.383    2697.4743   -42909.857    71.623237   0.98931242 
   29900    220.22263     544.9392    126257.94   -40253.732    2739.9882    -42993.72    71.758496   0.98919318 
   30000    222.45016    558.83535    126245.72   -40234.858    2767.7029   -43002.561    72.161453   0.98928888 
   30100    222.41248    300.72066    126167.79   -40231.912    2767.2341   -42999.146    72.405303   0.98989997 
   30200    214.51575    498.35126    126197.25   -40253.347    2668.9838    -42922.33    72.523861   0.98966887 
   30300    221.95129    158.16056    126025.58   -40207.977     2761.496   -42969.473    72.807506   0.99101698 
   30400     220.8657    411.44379    126125.36   -40195.066    2747.9892   -42943.056    73.204757     0.990233 
   30500    220.22641    357.06398    126142.25   -40183.421    2740.0353   -42923.457    73.355052    0.9901004 
   30600    222.05348    591.86114    126305.68   -40174.836    2762.7675   -42937.604    73.566333   0.98881927 
   30700    219.41561    420.30248    126448.61   -40182.993    2729.9474   -42912.941    74.007041   0.98770157 
   30800    224.93014     579.1178    126323.36   -40139.119    2798.5586   -42937.677      74.1713   0.98868085 
   30900    218.53623    419.70192    126254.49   -40261.175    2719.0062   -42980.181    74.617404   0.98922017 
   31000    216.62659    331.52136    126145.06   -40302.963    2695.2466    -42998.21    74.414096    0.9900783 
   31100    221.70752    340.97257    126168.36    -40292.61    2758.4631   -43051.073    74.588118    0.9898955 
   31200    220.69568    366.96652    125995.08   -40297.739    2745.8739   -43043.613    74.785425   0.99125691 
   31300    220.40376    482.84293     125987.8    -40263.69    2742.2418   -43005.932     74.92166   0.99131417 
   31400    216.62658    600.29771    125871.28   -40226.121    2695.2465   -42921.367    74.929196   0.99223183 
   31500    221.53575    439.76417    126045.27    -40279.36    2756.3259   -43035.686     75.25396   0.99086214 
   31600    226.46378    366.95924    125938.47   -40205.041      2817.64   -43022.681    75.445662    0.9917025 
   31700    221.85651    299.98514    125973.57   -40247.388    2760.3167   -43007.705    75.611831   0.99142615 
   31800    219.53288    537.38438     125977.5   -40172.046    2731.4064   -42903.453    75.974124   0.99139522 
   31900    223.39201    471.55184    125899.97   -40148.141    2779.4213   -42927.562    76.324239    0.9920057 
   32000    222.35199    472.20994    125890.89   -40131.207    2766.4815   -42897.688    76.646356   0.99207726 
   32100    223.70475    670.94213    125897.33   -40138.069    2783.3124   -42921.381    77.275193   0.99202652 
   32200    222.31706    388.07017    126055.96    -40148.73    2766.0468   -42914.776    77.529521   0.99077816 
   32300    218.77825    315.06732    126011.77   -40137.952    2722.0174    -42859.97    77.479985   0.99112559 
   32400    218.81485     472.1876    125615.78   -40188.427    2722.4727   -42910.899    77.520198   0.99425001 
   32500    222.25934    389.22685    125677.14   -40188.244    2765.3288   -42953.573    77.981449   0.99376459 
   32600    221.98345    633.21326    125873.62   -40126.973    2761.8962   -42888.869    78.289056   0.99221341 
   32700      223.055     511.6698    125937.16   -40200.504    2775.2282   -42975.732    78.723782   0.99171282 
   32800    220.64223     509.7908    125920.73   -40258.229    2745.2089   -43003.438    78.915091    0.9918422 
   32900    218.16309    568.27657     126160.9   -40271.584    2714.3636   -42985.948    79.089529   0.98995406 
   33000    220.93963    457.48698    126173.53   -40325.243     2748.909   -43074.152    79.323958   0.98985492 
   33100    222.01112    677.53519    126095.64   -40259.254    2762.2404   -43021.494    79.617808   0.99046641 
   33200     217.6143    317.39017    126135.69    -40287.24    2707.5356   -42994.776    80.032449   0.99015191 
   33300    219.13635    544.52397    126247.29   -40223.643    2726.4728   -42950.115    80.332734   0.98927663 
   33400    219.37571    222.70576    126140.69   -40313.373    2729.4509   -43042.824     80.43703   0.99011261 
   33500    221.58045    341.46488    126082.26   -40288.004    2756.8821   -43044.886    80.633412   0.99057149 
   33600    216.60642    340.34748    126050.58   -40266.275    2694.9957   -42961.271    80.766002   0.99082046 
   33700     219.3323    506.95131    126176.97   -40242.189    2728.9108     -42971.1    80.757656   0.98982792 
   33800    219.71799    443.58123    126153.26   -40238.706    2733.7095   -42972.415    80.615549     0.990014 
   33900    219.97033    582.16918    126239.86    -40247.52    2736.8491   -42984.369    80.817134   0.98933483 
   34000    221.69409    688.42926    126497.39   -40212.325     2758.296   -42970.621    81.161343   0.98732067 
   34100    220.24953    445.86209    126550.22   -40245.647    2740.3229    -42985.97    80.970909   0.98690852 
   34200    220.44894    451.48921    126410.36   -40244.978    2742.8039   -42987.782    81.126884   0.98800048 
   34300    219.27174    311.51973    126283.65   -40298.114    2728.1573   -43026.271    81.373187   0.98899181 
   34400     222.1346    405.65742    126259.09    -40236.75    2763.7767   -43000.527    81.576713   0.98918414 
   34500    216.83102    572.93628    126199.27   -40242.092    2697.7902   -42939.882    81.753923     0.989653 
   34600    221.09084    553.56412    126430.43   -40222.905    2750.7903   -42973.695    82.134689   0.98784358 
   34700    215.89202    319.02107    126573.36   -40294.325    2686.1072   -42980.432     82.50701   0.98672808 
   34800    219.70464    589.18978    126625.83   -40279.438    2733.5434   -43012.981    82.882838   0.98631922 
   34900    218.80431    405.82228    126823.67   -40290.669    2722.3415    -43013.01    83.070702   0.98478058 
   35000    214.92915    370.83721    126858.56   -40356.794    2674.1273   -43030.921    83.075705    0.9845098 
   35100    218.28561    459.51447    127076.51   -40292.574     2715.888   -43008.462    83.376909   0.98282125 
   35200    219.20656    510.39274    126967.44   -40305.693    2727.3464   -43033.039    83.604059   0.98366554 
   35300     222.2952    374.24099    126866.15   -40286.884    2765.7749   -43052.659    83.688234   0.98445086 
   35400    216.62609    512.89832    126681.64    -40315.84    2695.2404   -43011.081    83.872099   0.98588468 
   35500    223.58334    309.72428       126849    -40225.03    2781.8019   -43006.832    84.105327   0.98458399 
   35600    220.54197    474.54266    126790.68   -40255.281    2743.9613   -42999.243    84.514767   0.98503681 
   35700    221.79726    635.17077    126929.58   -40225.216    2759.5796   -42984.795    85.031984   0.98395889 
   35800    219.91409    343.55538    127088.73   -40272.749    2736.1494   -43008.899    85.088747   0.98272673 
   35900    221.31058     609.4304    127083.97   -40223.927    2753.5243   -42977.451    85.336031    0.9827635 
   36000    220.82923    494.53927    127453.27   -40197.248    2747.5355   -42944.783    85.717981   0.97991597 
   36100     220.3265    460.96837    127442.93   -40223.053    2741.2805   -42964.333     85.53148   0.97999548 
   36200    220.69961    388.34229     127143.6   -40266.026    2745.9227   -43011.948    85.631721   0.98230265 
   36300    216.78242    400.63082    127167.64   -40325.496    2697.1854   -43022.681    85.755121   0.98211689 
   36400    218.00383    428.29849    127095.97   -40263.057    2712.3821   -42975.439    85.814246   0.98267077 
   36500    222.41722    541.05405    127193.57   -40226.506    2767.2931   -42993.799    86.405828   0.98191671 
   36600    216.82442    313.10642    127012.39   -40334.559     2697.708   -43032.267    86.570353   0.98331736 
   36700    217.42591     388.7105     126852.3   -40279.528    2705.1917   -42984.719    86.609819   0.98455835 
   36800    220.30305    467.18825    126788.69   -40272.476    2740.9888   -43013.465    87.226744   0.98505233 
   36900     218.3904     671.5684    126989.78   -40302.344    2717.1918   -43019.536    87.369533   0.98349243 
   37000    221.44657    412.18148    127143.35   -40253.713    2755.2164    -43008.93    87.506413   0.98230454 
   37100    218.81376     418.3464    127070.46   -40251.261    2722.4592    -42973.72     87.67924   0.98286805 
   37200    218.20414     455.7048    126763.47   -40323.523    2714.8743   -43038.397    87.701255   0.98524827 
   37300    218.12309    501.81467    126805.64   -40339.176    2713.8659   -43053.042       87.624    0.9849206 
   37400     217.9476    507.83032    127129.65   -40375.266    2711.6825   -43086.949    87.970323   0.98241043 
   37500     220.4586    518.15258     127215.4   -40400.565    2742.9241   -43143.489    88.176008   0.98174824 
   37600    223.45345    347.68352    127290.98   -40360.069    2780.1857   -43140.255    88.480819   0.98116525 
   37700    217.34881    437.62402    127144.63   -40372.708    2704.2324    -43076.94    88.716695   0.98229463 
   37800    220.60785    425.70013     127255.5   -40472.951     2744.781   -43217.732     89.20371   0.98143888 
   37900    221.14475    638.64865    127117.67   -40432.726    2751.4611   -43184.187    89.082981   0.98250301 
   38000    221.38289     493.5708    127132.62   -40405.578     2754.424   -43160.002    89.426514   0.98238746 
   38100    220.98657    486.57586    127253.75   -40354.521    2749.4931   -43104.015    89.841779   0.98145237 
   38200    219.14715    476.70669    127172.55   -40377.266    2726.6072   -43103.873    90.110085     0.982079 
   38300     222.3021    474.40563    127249.42    -40306.83    2765.8607   -43072.691    90.417527   0.98148572 
   38400    221.98039    414.50745    127138.82   -40381.213    2761.8581   -43143.072    90.356911   0.98233953 
   38500    217.77834     384.7452    127109.19   -40403.028    2709.5765   -43112.605    90.376149   0.98256852 
   38600    221.60598     385.1981    127065.89   -40367.516    2757.1997   -43124.716    90.427622   0.98290336 
   38700    217.91532    372.73813    126810.94   -40375.836    2711.2808   -43087.117    90.390046   0.98487943 
   38800    220.28173     533.4743    126796.16   -40394.861    2740.7235   -43135.585    90.676232   0.98499429 
   38900    218.37084    332.19815    127024.89   -40347.262    2716.9484    -43064.21    91.154853   0.98322062 
   39000    217.36401    488.26962    127054.14   -40381.794    2704.4216   -43086.216    91.487858   0.98299429 
   39100    220.55394    468.62456    127120.98   -40346.547    2744.1103   -43090.658     91.91358   0.98247744 
   39200    224.95916    497.20301    127179.23   -40369.269    2798.9196   -43168.189    92.169844   0.98202739 
   39300    217.53795    493.37469    126911.26   -40350.785    2706.5857   -43057.371    92.053879   0.98410095 
   39400     216.7771    498.52333    126970.85   -40294.008    2697.1193   -42991.127    92.123927   0.98363913 
   39500    221.91615    604.05072    127029.94   -40276.317    2761.0589   -43037.376    92.352009   0.98318151 
   39600    220.63735     579.5771    127187.47   -40303.234     2745.148   -43048.382    92.667064   0.98196382 
   39700    220.41705    458.13577     127076.2   -40273.916    2742.4071   -43016.323    92.877604   0.98282362 
   39800    219.39931    409.94539    127191.15   -40330.711    2729.7445   -43060.456    92.772724   0.98193537 
   39900     216.6278     558.5576    127206.75   -40370.955    2695.2617   -43066.217    92.988523   0.98181497 
   40000    217.96501    513.01532    127356.73   -40398.042    2711.8992   -43109.941    93.522018   0.98065876 
   40100    222.90507    523.80469    127124.93   -40323.437    2773.3628     -43096.8    93.628186   0.98244688 
   40200    221.29722    284.51599     127215.9   -40352.209    2753.3581   -43105.567    94.008608   0.98174434 
   40300    218.43862    438.82842    127013.78   -40334.869    2717.7917    -43052.66    94.240288   0.98330666 
   40400    225.12434    526.45035    126807.28   -40238.118    2800.9748   -43039.093    94.134804   0.98490792 
   40500    219.70775    342.96544    126832.05   -40242.176    2733.5821   -42975.759     94.45226   0.98471552 
   40600    219.12911    303.92175     126724.2   -40294.063    2726.3827   -43020.446    94.446415   0.98555361 
   40700    219.69757    383.49732    126579.56    -40343.16    2733.4555   -43076.616    94.606718   0.98667978 
   40800    215.42231    622.07372    126684.88   -40383.458    2680.2631   -43063.721     94.86998    0.9858595 
   40900    216.94746    260.23715    126807.04    -40400.77    2699.2388   -43100.009    95.295756   0.98490979 
   41000    221.70978    566.51757    126731.43   -40310.565    2758.4912   -43069.056    95.474486   0.98549735 
   41100    220.39389    271.39049    126735.62   -40296.213     2742.119   -43038.332    95.783627   0.98546481 
   41200    222.38355    533.10926    126637.65     -40321.7    2766.8742   -43088.574    96.365626   0.98622717 
   41300    214.02669    731.70841    126958.71   -40464.066     2662.899   -43126.965    96.631664   0.98373316 
   41400     218.4569    512.00363    127165.92   -40420.758    2718.0191   -43138.777    96.801355   0.98213018 
   41500    214.22034    438.54191    126943.35   -40434.804    2665.3083   -43100.113    96.818841   0.98385219 
   41600    215.78069    513.25541    127041.32   -40393.247     2684.722    -43077.97    96.969893   0.98309348 
   41700    217.12829    366.82209    127136.96   -40371.152    2701.4887    -43072.64     96.97048   0.98235393 
   41800    215.31377    632.30415    127245.65   -40388.253    2678.9126   -43067.166    97.132641   0.98151482 
   41900    218.93077    386.49501    127006.53   -40361.724     2723.915   -43085.639    97.601418   0.98336278 
   42000    222.64773    436.21149    126847.14   -40354.207     2770.161   -43124.368    97.604392   0.98459838 
   42100    219.32402    359.94624    126850.42   -40336.269    2728.8078   -43065.077    97.666537   0.98457292 
   42200    222.08793    502.45626    126973.25   -40296.535    2763.1961   -43059.731    97.944436   0.98362049 
   42300    219.68243      694.718    126825.69   -40274.308     2733.267   -43007.575    98.235994   0.98476489 
   42400    221.47132    632.24758    126893.87   -40313.047    2755.5243   -43068.572    98.451749   0.98423584 
   42500    217.93032    555.33017    126953.89   -40313.519    2711.4676   -43024.986    98.571641   0.98377053 
   42600    223.92597    284.63598    126902.01   -40308.985    2786.0648    -43095.05    98.527543   0.98417268 
   42700    224.61194     624.9017    126893.32   -40327.901    2794.5996   -43122.501     98.80012    0.9842401 
   42800    221.60297    272.09913    127064.36   -40274.129    2757.1622   -43031.291    99.383522   0.98291522 
   42900    220.71585    476.36809    127043.38   -40334.062    2746.1248   -43080.187    99.533003   0.98307752 
   43000     219.4991    383.52389    126927.28   -40359.321    2730.9861   -43090.307     99.53754   0.98397674 
   43100    219.68548    486.87723    127095.56   -40338.284     2733.305   -43071.589    100.09441   0.98267392 
   43200    220.10901    557.77166    127158.34   -40297.092    2738.5745   -43035.666    100.28074   0.98218873 
   43300     219.5368    395.00357     127122.5   -40296.327    2731.4552   -43027.782    100.57505   0.98246568 
   43400    222.82123    489.37904    127248.88   -40252.446    2772.3197   -43024.766    100.92576   0.98148987 
   43500    223.66466    450.10408    127169.34   -40270.634    2782.8136   -43053.447    101.25263   0.98210381 
   43600    222.97364    395.44005    127192.38   -40188.731     2774.216   -42962.947    101.78683   0.98192586 
   43700    222.17207    138.46457    127068.54     -40214.7    2764.2429   -42978.943    101.82942   0.98288291 
   43800    221.81142     434.4167    127010.47    -40218.39    2759.7558   -42978.146    101.78573   0.98333228 
   43900    221.38289    350.82599    126992.23   -40266.125     2754.424   -43020.549     101.8195   0.98347346 
   44000    219.52464    512.58274    126899.84   -40310.045    2731.3038   -43041.349    102.06185   0.98418949 
   44100    222.81919    398.48593    126707.36   -40324.579    2772.2943   -43096.873    102.28207   0.98568458 
   44200    217.39065    345.79075    126749.53   -40361.049     2704.753   -43065.802    102.29213   0.98535661 
   44300    218.31689    401.18848    126703.89   -40347.983    2716.2772   -43064.261    102.68758   0.98571155 
   44400      220.963    539.54825    126656.16   -40305.404    2749.1998   -43054.604    102.76223     0.986083 
   44500    221.17407    318.71658    126618.15   -40319.982    2751.8259   -43071.808    103.20101   0.98637905 
   44600    217.95027    586.64812    126502.85   -40369.431    2711.7158   -43081.147    103.61766    0.9872781 
   44700    217.67062    394.98012    126659.91    -40337.57    2708.2363   -43045.807    103.73109   0.98605385 
   44800    221.33165    558.79572    126461.88    -40315.05    2753.7866   -43068.837    103.66601   0.98759796 
   44900    222.16646    605.41307    126611.32   -40276.861    2764.1731   -43041.034    104.01251   0.98643229 
   45000    218.59019    295.57927     126476.8   -40282.013    2719.6775    -43001.69    104.22406   0.98748147 
   45100    225.18846    492.42541    126705.67   -40226.691    2801.7726   -43028.463    104.33314   0.98569774 
   45200     218.6581    505.30404    126805.56     -40296.8    2720.5224   -43017.323    104.48264   0.98492125 
   45300    219.92163    472.26464    126935.35    -40304.57    2736.2432   -43040.813    104.65382   0.98391415 
   45400    219.90044    402.14413    126987.89   -40282.126    2735.9795   -43018.106    104.78959    0.9835071 
   45500    221.76477     476.2981    126994.62   -40287.924    2759.1753   -43047.099    105.16055   0.98345501 
   45600     223.7052    435.58397    127036.26    -40291.79     2783.318   -43075.108    105.52875   0.98313263 
   45700    218.18764    548.61869    126883.65   -40298.573     2714.669   -43013.242    105.90519    0.9843151 
   45800    224.25164    515.27437    126753.28   -40237.854    2790.1167    -43027.97    106.05563    0.9853275 
   45900     221.9987    415.30795    126668.24   -40181.595    2762.0858    -42943.68    106.22698   0.98598899 
   46000    224.13472    380.07355    126690.46   -40177.734     2788.662   -42966.396    106.42195   0.98581608 
   46100    226.86757    393.30206    126618.65   -40130.445    2822.6639   -42953.109    106.40984   0.98637513 
   46200    228.21344    483.80128    126691.51    -40137.04     2839.409   -42976.449     106.7935   0.98580789 
   46300    222.86195    435.28535     126476.4   -40173.291    2772.8263   -42946.117    106.78617   0.98748455 
   46400    221.71209    491.57649    126605.29   -40198.437    2758.5199   -42956.957    107.11151   0.98647926 
   46500    222.04452     386.1481    126533.83   -40212.035    2762.6559   -42974.691    106.94184   0.98703637 
   46600    225.02183    528.92787    126640.92   -40205.039    2799.6993   -43004.738    107.34223   0.98620174 
   46700    220.86247    454.00893    126578.86   -40277.729     2747.949   -43025.678    107.31806   0.98668524 
   46800     220.5538    487.60187    126535.87   -40328.039    2744.1085   -43072.148    107.42168   0.98702046 
   46900     218.8078    446.30618    126597.82    -40253.33     2722.385   -42975.715    108.01852   0.98653745 
   47000    222.70465    402.19716    126795.58   -40239.569    2770.8693   -43010.438    108.68571   0.98499877 
   47100    225.24794    555.58547     126723.2   -40218.133    2802.5127   -43020.646    108.53927   0.98556137 
   47200    223.35438    503.07034    126787.72   -40274.141    2778.9531   -43053.094    108.64288   0.98505986 
   47300    216.36495    660.06039    126671.06   -40302.508    2691.9913   -42994.499    109.05988   0.98596703 
   47400    221.19079    338.91761    126693.28   -40245.021    2752.0339   -42997.055    109.36123   0.98579416 
   47500    223.50133    131.86968    126843.79   -40175.865    2780.7815   -42956.647    109.77251   0.98462437 
   47600    222.63182    448.70059    126862.51   -40140.832    2769.9632   -42910.796    109.86027   0.98447914 
   47700    223.94379    388.70174    126838.55   -40186.424    2786.2865   -42972.711    110.20595   0.98466512 
   47800    220.56967    483.84661    126901.22   -40200.749     2744.306   -42945.055    110.34378   0.98417883 
   47900    214.95233    304.74871    126981.02   -40288.432    2674.4157   -42962.848    110.82102   0.98356035 
   48000    219.29172    461.05437    126777.51    -40311.84    2728.4059   -43040.246    110.97856   0.98513918 
   48100    221.24394    304.92651    126754.65    -40277.17    2752.6953   -43029.865    111.58474   0.98531683 
   48200    223.10652    528.98334     126529.9   -40300.826    2775.8693   -43076.695    111.54191   0.98706702 
   48300    223.92053    341.18896    126535.35   -40285.563    2785.9971    -43071.56    111.73071   0.98702453 
   48400    223.87167    433.54113    126349.48   -40216.383    2785.3891   -43001.772    111.69294   0.98847646 
   48500    218.32643    515.57129    126504.61   -40284.884    2716.3959    -43001.28    111.94885   0.98726439 
   48600    218.83223    472.07519    126433.23   -40286.211     2722.689     -43008.9    112.06673   0.98782172 
   48700     220.1792    432.96798    126498.49   -40250.223    2739.4479   -42989.671    112.24069   0.98731208 
   48800    219.58196    401.01897    126342.13   -40269.769    2732.0171   -43001.786    112.46312   0.98853398 
   48900    222.79262     501.4456    126336.22   -40272.018    2771.9638   -43043.982    112.58675   0.98858027 
   49000    221.43718    483.62987    126422.58   -40313.219    2755.0995   -43068.318    112.71467   0.98790493 
   49100    220.09221    468.34426    126751.34   -40302.415    2738.3655    -43040.78     113.0404   0.98534257 
   49200    218.70094    355.71325    126580.37     -40307.8    2721.0555   -43028.855    113.29384   0.98667349 
   49300    219.14166     332.3966    126805.63   -40261.113    2726.5388   -42987.652    113.73151   0.98492071 
   49400    221.70044    408.07532    126619.67    -40254.58    2758.3749   -43012.955    113.84243   0.98636722 
   49500    217.39677    454.62214    126568.22    -40272.42    2704.8291   -42977.249    114.09182   0.98676813 
   49600    218.11261    586.39482    126564.09   -40262.379    2713.7355   -42976.114    114.18443   0.98680038 
   49700    222.92765    448.76324    126537.22   -40271.704    2773.6438   -43045.348    114.57577   0.98700989 
   49800    215.03641    539.83721    126839.18   -40320.339    2675.4617   -42995.801    115.01523   0.98466019 
   49900     222.1452    703.79255    126680.74   -40210.525    2763.9086   -42974.434    115.22465   0.98589171 
   50000    217.05935    345.69962    126681.55   -40239.724     2700.631   -42940.355     115.5292   0.98588542 
   50100    221.24651    421.39719       126650   -40247.131    2752.7272   -42999.859    115.26553   0.98613098 
   50200     220.0855    460.34896    126425.58    -40270.81     2738.282   -43009.092    115.41992   0.98788151 
   50300    217.81993    647.53199    126630.68   -40229.866     2710.094    -42939.96    115.66278   0.98628146 
   50400    219.58452    416.59523    126546.02   -40240.817    2732.0489   -42972.866    115.90134    0.9869413 
   50500    217.01403    470.23655     126535.6   -40287.172    2700.0671   -42987.239    116.16446   0.98702253 
   50600    220.15632    556.19852    126435.56   -40302.644    2739.1631   -43041.807    116.30341   0.98780355 
   50700    215.03204     552.7247    126686.52    -40321.87    2675.4074   -42997.277    116.53042   0.98584671 
   50800    220.44151    263.05024    126377.25   -40323.651    2742.7115   -43066.363    116.60757   0.98825931 
   50900    221.82316       382.06    126358.17   -40230.282    2759.9019   -42990.183     116.9717   0.98840855 
   51000    220.72397    396.90597    126317.29   -40260.047    2746.2259   -43006.273    117.24475   0.98872841 
   51100    217.50874    442.11082    126171.65   -40276.815    2706.2223   -42983.037    117.55795    0.9898697 
   51200    219.55557    474.98827    126112.16    -40267.37    2731.6887   -42999.058    117.95694    0.9903366 
   51300    217.88629    650.96495    126031.24   -40335.484    2710.9197   -43046.404    118.05913   0.99097245 
   51400    212.88719    415.35473    126008.95   -40335.699    2648.7214    -42984.42    118.39801   0.99114779 
   51500    219.39738     293.6833    125670.28   -40329.608    2729.7205   -43059.328    118.29649   0.99381883 
   51600    221.86201    491.86997    125792.01   -40266.874    2760.3852   -43027.259    118.44117    0.9928571 
   51700    215.38384    364.99252    125830.47   -40250.671    2679.7844   -42930.456    118.91721   0.99255368 
   51800    224.00683    460.39658    125925.23   -40274.955    2787.0708   -43062.026    118.94174   0.99180676 
   51900    219.06026     528.4505    125926.83   -40327.132    2725.5261   -43052.658    119.11075   0.99179413 
   52000    217.29178     189.6419    125967.52    -40344.86    2703.5228   -43048.383    119.26511   0.99147377 
   52100    221.57152    512.22797    125971.07   -40307.008    2756.7709   -43063.779    119.74184   0.99144584 
   52200    219.70644    348.40267    126036.11   -40329.575    2733.5658   -43063.141    119.83345   0.99093416 
   52300    219.54249    483.48656    126238.64   -40316.019     2731.526   -43047.545    120.11764   0.98934437 
   52400    222.31685    484.55555    126237.45   -40269.523    2766.0442   -43035.567    120.13756   0.98935375 
   52500    216.60604    298.95271    126557.45   -40260.466    2694.9909   -42955.457    120.35253   0.98685218 
   52600    220.68848    501.47341     126612.3   -40286.771    2745.7842   -43032.556    120.64768   0.98642465 
   52700    218.12874    479.79087    126488.39   -40301.917    2713.9363   -43015.854    121.17616   0.98739094 
   52800    217.63376    470.07658    126646.41    -40247.57    2707.7778   -42955.348    121.26649   0.98615892 
   52900    220.69968    412.01246     126506.4   -40235.971    2745.9236   -42981.894    121.72901   0.98725038 
   53000    223.34249    423.63587    126343.23   -40202.506    2778.8051   -42981.312    121.33918    0.9885254 
   53100    219.00729    385.96123    126276.91   -40247.706     2724.867   -42972.573    121.58428   0.98904458 
   53200    222.75692    413.24276    125990.96   -40233.941    2771.5196   -43005.461    121.40768    0.9912893 
   53300     220.8607     315.4674     125972.2   -40210.033     2747.927    -42957.96    121.72051   0.99143691 
   53400    220.45086    351.31307    125853.92   -40285.023    2742.8278   -43027.851    121.61731   0.99236868 
   53500    215.48862    419.04015    126061.89   -40285.989    2681.0881   -42967.077    122.16147   0.99073156 
   53600     216.1572    612.19635    125886.68   -40288.954    2689.4066    -42978.36    122.03684   0.99211045 
   53700    215.14008    373.93087     125935.5   -40328.457    2676.7516   -43005.209     122.4486   0.99172582 
   53800    216.78414    381.36856    126001.35   -40210.344    2697.2069   -42907.551    122.86413    0.9912076 
   53900    224.21409     369.5362    126000.51   -40267.578    2789.6495   -43057.227    123.05652   0.99121418 
   54000    218.01597    584.82184    125874.51   -40233.392    2712.5332   -42945.925    123.37564   0.99220637 
   54100    216.70852    314.82871     126052.7   -40254.118     2696.266   -42950.384    124.16085   0.99080381 
   54200    219.86298    355.00364    126018.63   -40235.958    2735.5135   -42971.472    124.52027   0.99107165 
   54300    218.96707    389.09364    126103.08   -40212.707    2724.3666   -42937.073     124.9226   0.99040794 
   54400    217.96226    488.37164    125967.11   -40245.897    2711.8649   -42957.761    124.54982   0.99147698 
   54500    219.44193    626.74032    125983.46   -40221.329    2730.2747   -42951.603    124.79386   0.99134829 
   54600    226.86112    532.97079    126196.66   -40136.518    2822.5836   -42959.102    125.25727   0.98967352 
   54700    225.98877    613.87373    126350.09   -40159.555    2811.7299   -42971.285    125.43812   0.98847168 
   54800    215.62387      530.659    126381.62   -40227.748    2682.7709   -42910.519    125.55643   0.98822515 
   54900    219.99675    481.91352     126359.3   -40264.081    2737.1778   -43001.259    125.78537   0.98839965 
   55000    216.06584    340.60758    126458.56   -40308.268    2688.2698   -42996.538    126.10791   0.98762389 
   55100     212.4401    351.00629    126441.75   -40270.865    2643.1587   -42914.024    126.24931   0.98775518 
   55200    216.09153    318.92091    126230.95   -40267.395    2688.5894   -42955.984    126.51854   0.98940464 
   55300      216.607    427.19902    126290.38   -40223.581    2695.0029   -42918.584    126.41431   0.98893904 
   55400    220.89913    264.84077    126182.37   -40198.092    2748.4051   -42946.497    126.91623   0.98978555 
   55500     220.5673    406.63776    125934.89   -40133.281    2744.2765   -42877.558     126.7188   0.99173069 
   55600    221.04123      535.855     125742.9   -40175.272    2750.1732   -42925.445    126.85967    0.9932449 
   55700    220.81032    567.29711    126078.89   -40175.762    2747.3002   -42923.062    127.69077     0.990598 
   55800    221.91445    454.45986    126160.96   -40171.639    2761.0376   -42932.677    128.15177   0.98995358 
   55900    221.97408     492.4578    126312.27    -40139.24    2761.7795    -42901.02    128.59673   0.98876772 
   56000    218.61093    545.40068     126351.6   -40122.059    2719.9356   -42841.994    129.05295   0.98845987 
   56100    223.46313     264.1611    126370.74   -40104.364    2780.3062    -42884.67    129.45286   0.98831016 
   56200    223.76515    545.74383    126134.39   -40116.446    2784.0639    -42900.51    129.50254   0.99016206 
   56300    221.02363    436.12316     126132.4   -40146.884    2749.9542   -42896.838    129.78167   0.99017769 
   56400    221.48692    477.63073    125980.62   -40126.796    2755.7184   -42882.514    129.44554   0.99137063 
   56500    217.01655     279.9209    125883.86   -40201.339    2700.0985   -42901.438      129.189   0.99213272 
   56600    216.37072      438.217    125983.75   -40209.885    2692.0631   -42901.949    129.69986   0.99134605 
   56700    216.23881    437.74259    125853.64   -40247.493    2690.4219   -42937.915    130.06759   0.99237092 
   56800    219.67732    495.15306    125855.53   -40181.388    2733.2035   -42914.591    130.65428   0.99235597 
   56900    216.60556    382.30893     126048.4   -40152.769    2694.9849   -42847.754    131.37683    0.9908376 
   57000    222.77529    358.47289    126019.06   -40090.178    2771.7481   -42861.926    131.78242   0.99106828 
   57100    221.47795    341.15342     126088.7     -40153.9    2755.6067   -42909.506    132.14249    0.9905209 
   57200    216.40613    449.61585     125972.9   -40212.399    2692.5037   -42904.902    132.24849   0.99143145 
   57300    218.69012     598.3405    125990.67    -40267.04    2720.9209   -42987.961    132.68536   0.99129157 
   57400    214.77056    279.63759    126215.64    -40266.88     2672.154   -42939.034    132.88155   0.98952466 
   57500    216.37109    346.81816    126281.08   -40316.356    2692.0678   -43008.424    133.18733   0.98901189 
   57600    212.36505    475.03087    126084.15   -40249.291     2642.225   -42891.516    133.44806   0.99055664 
   57700    212.07246    347.95108    126160.08   -40275.962    2638.5846   -42914.546    133.77864   0.98996045 
   57800    216.37101    446.80284    126006.79   -40303.217    2692.0668   -42995.284    133.55447   0.99116475 
   57900    217.72035    387.04021    126032.13   -40279.671    2708.8551   -42988.526     133.9401   0.99096547 
   58000    214.09258    392.92793     125742.7   -40296.345    2663.7187   -42960.064     134.3198   0.99324644 
   58100    218.72387    590.67793    125876.92   -40232.219    2721.3407    -42953.56    134.31781   0.99218741 
   58200    221.48134    564.04859    125745.91   -40185.544    2755.6489   -42941.193    134.60814   0.99322108 
   58300    218.08763    358.52518    125762.05   -40110.551    2713.4247   -42823.976    134.33563   0.99309366 
   58400    222.91682    354.41832    125761.02   -40112.836     2773.509   -42886.345    134.75472   0.99310176 
   58500    222.54692    375.96396    125764.66   -40119.013    2768.9068    -42887.92    135.19471   0.99307302 
   58600     220.3002    228.06535     125775.5   -40091.097    2740.9533    -42832.05    135.48889   0.99298747 
   58700    224.84812    472.20618    125899.92   -40088.012    2797.5381    -42885.55    135.82333   0.99200613 
   58800    222.60895    532.39271    125923.04   -40139.373    2769.6785   -42909.052    135.97976   0.99182399 
   58900    219.04773    613.99294    125901.06   -40192.783    2725.3702   -42918.153    136.19238   0.99199711 
   59000    218.52607    484.57834    125856.96    -40174.33    2718.8797    -42893.21    136.26047   0.99234477 
   59100    219.79979    521.47807    126065.34   -40171.939    2734.7273   -42906.666    136.83936   0.99070445 
   59200    222.92956    328.17035    126018.83   -40203.645    2773.6675   -42977.313    137.00288   0.99107008 
   59300    218.11646    466.76522    125897.97   -40187.785    2713.7835   -42901.569    137.44846   0.99202149 
   59400     218.1016    507.13005    126256.76   -40251.638    2713.5986   -42965.236    138.00543   0.98920243 
   59500     222.2825    501.66735    126346.68   -40224.596    2765.6168   -42990.213    138.21271   0.98849837 
   59600    219.06654    505.69806    126310.87   -40203.084    2725.6042   -42928.688    138.21204   0.98877862 
   59700    219.00294    425.86523    126355.55   -40226.928    2724.8129   -42951.741    138.70099   0.98842902 
   59800    219.74068    605.83734    126325.65    -40236.67    2733.9918   -42970.662    139.07517   0.98866295 
   59900    218.16668     393.0642    126189.34   -40204.223    2714.4083   -42918.632    139.23538   0.98973091 
   60000    219.17784    507.58494    126172.12   -40240.068     2726.989   -42967.057    139.60193   0.98986599 
   60100    219.61923    586.89178    126376.72    -40192.13    2732.4808   -42924.611    140.28716   0.98826341 
   60200    220.74074    369.31753    126465.53   -40168.203    2746.4344   -42914.638     140.7185   0.98756941 
   60300    220.17394    580.61549    126309.86   -40133.128    2739.3824   -42872.511    141.14286   0.98878656 
   60400    222.83779    527.93673    126255.84   -40097.279    2772.5257   -42869.805    141.60554   0.98920959 
   60500    219.58303    402.43668    126359.97   -40136.431    2732.0303   -42868.461    141.94733   0.98839444 
   60600    218.44057    414.26795    126325.49   -40179.234     2717.816    -42897.05    142.17275   0.98866419 
   60700    222.93277    274.83351    126239.18   -40202.858    2773.7075   -42976.566    142.28281   0.98934017 
   60800    218.04723    279.02548    126177.13   -40162.788    2712.9221    -42875.71    142.40456   0.98982666 
   60900    221.05032    492.16752    126168.13   -40154.064    2750.2863    -42904.35    142.92853   0.98989733 
   61000    222.56349    495.51811     126266.5    -40193.15    2769.1129   -42962.263    143.20646   0.98912613 
   61100    220.08899    514.08531    126236.85    -40225.39    2738.3255   -42963.715     143.6998   0.98935843 
   61200    221.06637    427.70425    126293.99   -40234.741     2750.486   -42985.227    143.85786    0.9889108 
   61300    218.01209    406.42569    126119.53   -40230.241    2712.4849   -42942.726    144.02472   0.99027872 
   61400    216.49863    614.74858    126259.44   -40264.417    2693.6545   -42958.071    144.32068   0.98918144 
   61500     219.0702    430.43563    126145.89   -40261.641    2725.6498   -42987.291    144.31211   0.99007185 
   61600    217.66186    469.41452    126056.18   -40220.333    2708.1273    -42928.46    144.30071   0.99077642 
   61700    217.19492    369.61462    126231.11   -40296.329    2702.3177   -42998.647    144.61727   0.98940344 
   61800    215.83758    555.11667    126180.88   -40358.574    2685.4298   -43044.004    144.93804   0.98979731 
   61900    215.44856     411.9284    126234.68   -40315.001    2680.5897    -42995.59    145.49851    0.9893754 
   62000    219.85205    549.89358    126214.95   -40271.235    2735.3775   -43006.612    145.61143    0.9895301 
   62100    219.25879    497.51272    126383.25   -40279.373    2727.9962   -43007.369    145.82074   0.98821238 
   62200    221.95832    418.98793     126295.3   -40243.823    2761.5835   -43005.406    145.85673   0.98890057 
   62300    215.74804    449.32011    126322.63   -40277.847    2684.3158   -42962.163    146.33332   0.98868657 
   62400    215.83089    583.13455     126240.8   -40216.445    2685.3466   -42901.792     146.2735   0.98932744 
   62500      217.191    599.57182    126369.85   -40231.893     2702.269   -42934.162    146.77408   0.98831719 
   62600    221.19751    488.29435    126721.07   -40253.985    2752.1176   -43006.102     147.3771   0.98557797 
   62700    220.72753    447.61203    126509.14   -40283.361    2746.2702   -43029.631    147.52031     0.987229 
   62800    220.02395    353.06678    126587.31   -40284.309    2737.5163   -43021.825    147.98289   0.98661939 
   62900    225.14425    412.27772    126619.48   -40239.412    2801.2225   -43040.634    148.48028   0.98636868 
   63000    219.50992    487.07572    126590.49   -40212.893    2731.1207   -42944.014    148.45083   0.98659455 
   63100    224.34666    514.16976    126690.81   -40193.468     2791.299   -42984.767    148.80238   0.98581333 
   63200    222.08175    332.39324    126662.97   -40226.615    2763.1192   -42989.734    149.37567   0.98603004 
   63300     219.9424    453.15891    126504.59   -40261.257    2736.5015   -42997.758    149.59231   0.98726451 
   63400    219.02594    622.55673    126688.42   -40182.341    2725.0991    -42907.44    150.24338   0.98583192 
   63500    218.05476    200.31359    126823.59   -40280.797    2713.0158   -42993.813    150.78273   0.98478123 
   63600     222.0492    306.54511    126825.44   -40271.761    2762.7142   -43034.475    150.79826   0.98476689 
   63700    220.75331    580.29616    126937.94   -40292.927    2746.5909   -43039.518    150.99968   0.98389413 
   63800    218.83713    502.60269    127036.64   -40397.873      2722.75   -43120.623     151.6231   0.98312966 
   63900    218.33202    217.56722    127075.17    -40398.88    2716.4654   -43115.345     151.9474   0.98283156 
   64000    215.67423    374.07707    126901.32    -40374.57    2683.3975   -43057.967    151.79812   0.98417802 
   64100    221.21433    511.19389    126821.79   -40290.263    2752.3268   -43042.589    151.56469   0.98479522 
   64200    218.39136    506.08314    126781.64   -40274.128    2717.2038   -42991.332    151.59162    0.9851071 
   64300    221.28867    556.68694    126790.13   -40174.184    2753.2518   -42927.436    151.57052   0.98504109 
   64400    221.24889    352.33954    126740.11   -40184.554    2752.7569   -42937.311    151.71483   0.98542986 
   64500    228.15331    441.53101    126824.19    -40179.21    2838.6609   -43017.871    152.25208   0.98477659 
   64600    219.19002    400.04566    126562.62   -40235.251    2727.1406   -42962.392    152.06224   0.98681181 
   64700    220.11229    387.98504    126594.06   -40240.224    2738.6153    -42978.84    152.45286   0.98656679 
   64800    223.10283    578.29465     126496.2     -40262.1    2775.8233   -43037.923    152.88052   0.98733001 
   64900    216.70063    424.49807     126674.4   -40246.133    2696.1678   -42942.301    153.09192   0.98594106 
   65000    219.75456    372.67272    126516.85   -40209.572    2734.1645   -42943.737    153.03897   0.98716881 
   65100    220.72081    590.10325    126617.04   -40229.537    2746.1865   -42975.724    153.42705   0.98638768 
   65200    219.52807    569.55599    126480.74   -40209.586    2731.3466   -42940.933    153.22936   0.98745068 
   65300    221.89507    545.90117    126439.82    -40206.61    2760.7965   -42967.407    153.43988   0.98777026 
   65400    223.31248    521.28383    126507.49   -40145.038    2778.4318    -42923.47    153.88814   0.98724187 
   65500    224.32862    421.70313    126402.25   -40231.843    2791.0745   -43022.918    154.07336    0.9880638 
   65600    223.46678    467.35522    126650.75   -40277.514    2780.3515   -43057.865    154.00247   0.98612516 
   65700    220.41063    432.94305    126525.93   -40331.398    2742.3273   -43073.725    153.75178   0.98709801 
   65800    216.09783    423.43834    126366.06   -40343.551    2688.6679   -43032.219    153.99769   0.98834677 
   65900    221.35576     367.7856    126472.18    -40314.76    2754.0865   -43068.847    154.35209   0.98751749 
   66000     223.4425    536.87886    126750.12   -40210.365    2780.0495   -42990.415    154.97064   0.98535204 
   66100    223.02734    489.78568    126713.47   -40160.102    2774.8841   -42934.986    154.97561   0.98563709 
   66200    220.37748    197.92219    126425.55   -40128.673    2741.9149   -42870.587    154.90822    0.9878817 
   66300    222.77537    446.82214    126356.87   -40161.236    2771.7491   -42932.985    154.69013   0.98841867 
   66400    219.57366    393.90718    126283.74   -40201.986    2731.9138   -42933.899    155.12057   0.98899109 
   66500    217.65054    427.22825    126317.17   -40210.953    2707.9865    -42918.94    155.25895   0.98872934 
   66600    218.26122    533.94064    126463.66   -40231.508    2715.5846   -42947.092    155.69118   0.98758404 
   66700    216.87157    395.86688    126433.76   -40264.892    2698.2946   -42963.187    155.58111   0.98781759 
   66800    216.38276    454.60551    126380.76    -40200.16    2692.2129   -42892.373      155.644   0.98823183 
[...]
   84600    216.41852    620.09164    126292.11   -40291.161    2692.6579   -42983.818    202.60481   0.98892551 
   84700     218.4777    513.74087    126411.66   -40306.756     2718.278   -43025.034    202.50244   0.98799028 
   84800    216.86021    485.04092    126062.32   -40278.906    2698.1533   -42977.059    202.02584   0.99072815 
   84900     215.7675    699.07845    126109.08   -40254.388    2684.5579   -42938.946    202.39051   0.99036082 
   85000    220.55082    519.09268    126370.17   -40207.637    2744.0715   -42951.709    202.54817   0.98831465 
   85100    223.33301     601.6063    126570.06   -40210.993    2778.6873    -42989.68    203.10576   0.98675386 
   85200    218.05963    344.39075    126613.04   -40232.346    2713.0763   -42945.422    202.89709    0.9864189 
   85300    218.29536    534.99396    126464.93   -40276.724    2716.0092   -42992.733    202.78508   0.98757411 
   85400      218.957    281.69043    126675.41   -40269.199    2724.2413    -42993.44    203.19468    0.9859332 
   85500     219.5331    426.51186    126534.52   -40232.987    2731.4091   -42964.396    203.55433     0.987031 
   85600    218.99596    668.47264     126597.7   -40211.696    2724.7261   -42936.423    203.55076    0.9865384 
   85700    217.39018    269.53968    126412.11    -40259.38    2704.7471   -42964.127    203.70651   0.98798673 
   85800    220.66072     507.0098    126386.26   -40262.299    2745.4389   -43007.738    204.10862   0.98818886 
   85900    219.59563     396.5407    126324.66   -40166.759    2732.1871   -42898.946    204.19336    0.9886707 
   86000    219.51747    506.85087    126367.29   -40214.133    2731.2147   -42945.347    204.60507   0.98833718 
   86100    219.30091    378.38547    126404.52   -40207.128    2728.5202   -42935.648    204.82253   0.98804605 
   86200    224.56425     383.7344     126300.3   -40183.721    2794.0062   -42977.728    205.29634   0.98886136 
   86300    217.76969    614.58167    126216.24   -40211.126     2709.469   -42920.595    205.45537   0.98952001 
   86400    215.67508    512.39952    126170.62   -40230.491    2683.4081   -42913.899    205.77994    0.9898778 
   86500    225.73923    472.21763    126216.55   -40227.854    2808.6252   -43036.479    206.13569   0.98951759 
   86600    222.84451    478.29375    126244.46   -40190.572    2772.6094   -42963.181    206.40783   0.98929875 
   86700    224.44559    474.96342    126307.92   -40186.279    2792.5298   -42978.808    206.38852    0.9888017 
   86800    221.07632    582.18697    126253.28   -40264.022    2750.6097   -43014.632    206.49584   0.98922966 
   86900    220.28847    428.31187    126297.52   -40219.014    2740.8074   -42959.822    206.66891   0.98888315 
   87000    221.21431    669.43087    126291.35   -40214.402    2752.3265   -42966.729    206.91111   0.98893149 
   87100    220.47308    443.90038    126201.26    -40235.89    2743.1043   -42978.995    207.61852   0.98963741 
   87200    218.87035    655.05194    126341.45   -40220.693    2723.1632   -42943.856    207.59516   0.98853936 
   87300    216.49112    426.52066    126551.19   -40217.318    2693.5612   -42910.879    207.73165   0.98690095 
   87400    220.04294    480.44768    126522.43   -40208.176    2737.7525   -42945.928    207.95311   0.98712531 
   87500    217.33997    289.97803    126318.81   -40230.518    2704.1225    -42934.64      207.876   0.98871652 
   87600    214.90261     440.7806    126331.06   -40231.885     2673.797   -42905.682    208.33744   0.98862062 
   87700    220.60394    432.74137    126514.38   -40235.776    2744.7324   -42980.509    208.19903   0.98718814 
   87800    222.62838      339.911       126419    -40223.63    2769.9203    -42993.55    208.57159   0.98793288 
   87900    221.58312    398.96846    126707.06   -40261.512    2756.9152   -43018.428    209.11015   0.98568691 
   88000    220.36798    486.40878    126385.21   -40288.315    2741.7967   -43030.112    208.99893   0.98819702 
   88100    223.26066     735.1566    126525.46   -40230.648     2777.787   -43008.435    209.69285   0.98710165 
   88200     221.4558    375.29819    126372.49   -40220.521    2755.3312   -42975.852    209.75455   0.98829654 
   88300    220.61816    525.44159    126580.56   -40265.971    2744.9093   -43010.881    210.85401   0.98667194 
   88400    219.70151    450.66885    126581.47   -40380.939    2733.5045   -43114.443    211.19849   0.98666485 
   88500     220.8067    324.62744    126755.96   -40277.802    2747.2551   -43025.057    211.44882   0.98530669 
   88600    222.37478     254.2059    126468.43   -40223.553     2766.765   -42990.318    211.15296   0.98754682 
   88700    220.21458    376.21528    126292.16   -40213.591    2739.8881   -42953.479    211.09376   0.98892516 
   88800    222.24719    466.47693    126376.42   -40139.731    2765.1775   -42904.909    211.18544    0.9882658 
   88900    218.35668     446.0941    126499.44    -40184.42    2716.7722   -42901.193    211.23292   0.98730469 
   89000     220.1429    430.48149    126369.44   -40164.302    2738.9963   -42903.299    211.59211   0.98832036 
   89100    214.60676    394.25243    126297.31   -40251.448    2670.1161   -42921.564    211.46989   0.98888477 
   89200    218.09813    485.24914    126357.25   -40290.662    2713.5554   -43004.217    211.85156   0.98841574 
   89300    218.46871    599.93743     126478.6   -40308.113    2718.1661   -43026.279    212.13766   0.98746734 
   89400    216.75973    615.44195    126398.15   -40319.735    2696.9032   -43016.638    212.53987   0.98809585 
   89500    217.57365    230.73862    126531.84   -40361.013    2707.0299   -43068.043    212.81519   0.98705185 
   89600    217.56967     609.7661    126433.72   -40406.291    2706.9804   -43113.271    212.66614   0.98781792 
   89700    220.60031    534.24742    126656.62   -40364.564    2744.6872   -43109.251    213.68694   0.98607947 
   89800    218.06368    484.35353    126776.59   -40328.483    2713.1268    -43041.61    213.94321    0.9851463 
   89900    216.76377    502.36015    126765.57   -40389.868    2696.9534   -43086.822    214.25851   0.98523198 
   90000    222.24189    384.56474    126742.87   -40323.637    2765.1116   -43088.749    214.28613   0.98540839 
   90100     219.2526    492.07458     126789.4   -40334.152    2727.9192   -43062.071    214.28208   0.98504677 
   90200    218.90014    365.02379    126729.62   -40365.414     2723.534   -43088.948    213.92205   0.98551148 
   90300    213.74825    400.62304    126716.75   -40374.741    2659.4346   -43034.175    214.42839   0.98561155 
   90400    221.40782    527.89215    126633.32   -40368.423    2754.7343   -43123.158    214.59622   0.98626088 
   90500    219.57538    349.56322     126625.3   -40338.901    2731.9352   -43070.836    214.93507   0.98632339 
   90600    219.89793    449.03889    126783.41    -40252.88    2735.9483   -42988.828    215.20329   0.98509336 
   90700    222.30502    332.21185     126579.1    -40257.99     2765.897   -43023.887    215.09629   0.98668336 
   90800      220.168    195.57697    126410.51    -40282.95    2739.3085   -43022.259    215.33397   0.98799929 
   90900    212.87283    473.70622    126498.92   -40360.967    2648.5428    -43009.51    215.87734   0.98730875 
   91000    213.53532      429.581    126491.18   -40354.812    2656.7853   -43011.597    216.26493   0.98736918 
   91100    216.49507    449.43123    126145.62   -40335.921    2693.6103   -43029.531    216.18126   0.99007394 
   91200    220.27663    352.99824    126235.57   -40285.488    2740.6601   -43026.148    216.37486   0.98936842 
   91300    220.91399    617.92952    126334.56   -40180.892    2748.5901   -42929.482    216.43382   0.98859324 
   91400    221.58124    459.93632    126472.11   -40161.957    2756.8919   -42918.849     216.8255   0.98751806 
   91500    222.02277    499.60977    126423.96   -40168.516    2762.3853   -42930.902    217.40131   0.98789419 
   91600    220.32374    413.90569    126257.83   -40212.587    2741.2462   -42953.833     216.8462     0.989194 
   91700    219.92567    500.78199    126377.37   -40287.803    2736.2934   -43024.097    217.28162   0.98825835 
   91800    219.65311    495.81335    126480.57   -40264.309    2732.9023   -42997.212    217.71611   0.98745201 
   91900    220.56661    601.58784    126514.43   -40264.113     2744.268   -43008.381    218.38174   0.98718773 
   92000    220.18675    171.63742    126371.19   -40266.806    2739.5417   -43006.348    218.47646    0.9883067 
   92100    220.32816    358.74171    126097.73   -40298.045    2741.3012   -43039.346    218.17359   0.99044998 
   92200    221.06376    422.37573    126010.23   -40229.907    2750.4535    -42980.36    218.39547   0.99113773 
   92300     219.4641      397.351    126117.83   -40148.574    2730.5506   -42879.125    218.84495   0.99029209 
   92400    223.22142    467.98077    126114.94   -40138.573    2777.2989   -42915.872     219.1047   0.99031477 
   92500    219.12942    431.05987    126271.49   -40173.904    2726.3866   -42900.291    219.23275     0.989087 
   92600    223.38102    556.67631    126176.98   -40138.858    2779.2845   -42918.142    219.68326   0.98982786 
   92700    223.06494     391.4551    126123.29   -40127.392    2775.3519   -42902.744    219.73199   0.99024924 
   92800    217.61474    504.42682    126011.34   -40153.072    2707.5411   -42860.613    219.70647   0.99112899 
   92900    220.12502    332.71134     125954.5   -40127.192    2738.7737   -42865.965    219.95407   0.99157628 
   93000    219.10455    533.68012    125901.61    -40159.58    2726.0771   -42885.657    220.37254   0.99199278 
   93100    225.43387    350.87329    125927.16   -40098.833     2804.826   -42903.659    220.51829   0.99179153 
   93200    219.12057     414.3876    125918.05   -40125.542    2726.2764   -42851.819    220.68912   0.99186332 
   93300    222.25943    460.97024    126092.45   -40151.393    2765.3298   -42916.723    221.81534   0.99049142 
   93400    217.50257    420.92039    126059.81   -40172.269    2706.1454   -42878.414    221.53544   0.99074787 
   93500    217.99382    275.13267    125951.22   -40207.577    2712.2576   -42919.834     221.9738   0.99160209 
   93600     216.3923    310.09622    125897.35   -40262.268    2692.3316     -42954.6    221.94194   0.99202639 
   93700    218.77992    472.38207    125955.76   -40231.847    2722.0381   -42953.886    222.62391   0.99156637 
   93800    218.29073    434.86449    125888.44    -40189.76    2715.9517   -42905.711    222.96921   0.99209657 
   93900    222.10922    486.91811    125805.29   -40180.995    2763.4609   -42944.456    223.22471   0.99275229 
   94000    219.49174    549.65928     125893.3   -40192.133    2730.8945   -42923.028    223.18636   0.99205827 
   94100    218.18083    327.67406     125828.5   -40202.725    2714.5843    -42917.31    223.42964    0.9925692 
   94200     220.3893    570.02519    125950.38    -40199.52    2742.0618   -42941.582    223.86981   0.99160871 
   94300    220.21463    524.18253    126022.15   -40152.283    2739.8886   -42892.171    224.25308   0.99104394 
   94400    220.08475    383.50782    125963.22   -40149.714    2738.2727   -42887.986    224.48029   0.99150763 
   94500    223.71555    375.14006    125990.88   -40089.398    2783.4468   -42872.845    224.53201   0.99128997 
   94600    220.00874    530.20883    125863.87   -40115.901    2737.3269   -42853.228    224.43937   0.99229027 
   94700    218.23104    326.60474    125918.62   -40149.049     2715.209   -42864.258    224.64653   0.99185878 
   94800    217.62748    256.93225    125744.22   -40136.794    2707.6996   -42844.494    224.89794   0.99323442 
   94900    221.22201    530.84768    125690.08   -40104.256    2752.4224   -42856.678     225.4792    0.9936623 
   95000    219.57768    556.61673    125773.48   -40098.563    2731.9638   -42830.527    226.07082   0.99300341 
   95100    223.63615    501.06714    125857.75   -40091.147    2782.4589   -42873.606    226.74317    0.9923385 
   95200    222.27754    346.66821    126076.43   -40105.333    2765.5552   -42870.888    227.13874    0.9906173 
   95300    224.93848    425.71961    125972.31   -40019.372    2798.6624   -42818.034    226.94244   0.99143606 
   95400    221.98405    420.54843     125990.5   -40093.134    2761.9035   -42855.038    227.31069   0.99129291 
   95500    220.93713    435.89691    126091.59   -40112.062     2748.878    -42860.94    228.26879    0.9904982 
   95600    222.43208    470.51512    125879.19   -40096.085     2767.478   -42863.563    228.44215   0.99216952 
   95700    218.60877    430.92116    125822.01    -40155.19    2719.9087   -42875.099    228.38216   0.99262038 
   95800      222.254     409.5912    125812.19   -40208.624    2765.2623   -42973.886    229.19713   0.99269785 
   95900    221.07693    272.87586    126049.08   -40166.307    2750.6173   -42916.924    229.70957   0.99083222 
   96000    215.35487    333.57751    126023.13   -40251.941     2679.424   -42931.365    229.76881   0.99103623 
   96100    221.43365    368.57591    125715.31   -40206.483    2755.0556   -42961.539    229.37143   0.99346287 
   96200    221.49327    464.30315    125815.64    -40245.75    2755.7974   -43001.548    229.71444   0.99267063 
   96300    221.36294    401.80921    125650.33   -40186.588    2754.1758   -42940.763    229.52737   0.99397664 
   96400    220.46235    374.69129    125790.35   -40163.227    2742.9707   -42906.197    230.09317   0.99287019 
   96500    216.84613    536.61007    125803.85   -40191.325    2697.9782   -42889.303    230.24573   0.99276364 
   96600    218.72319    406.21693    125936.24   -40191.333    2721.3323   -42912.665    230.77585   0.99172004 
   96700    215.70507     467.9766    126005.37   -40270.419    2683.7812     -42954.2    231.02741   0.99117591 
   96800    215.41011    432.77608    126103.59   -40326.388    2680.1113   -43006.499    231.32846   0.99040391 
   96900    216.95983    526.34243     126192.7   -40271.719    2699.3927   -42971.112    231.64388   0.98970456 
   97000    216.18048    579.32047    126163.29   -40273.597    2689.6962   -42963.293    232.16291   0.98993528 
   97100     215.3057    516.09797    125942.06   -40262.551    2678.8122   -42941.363    232.01081   0.99167421 
   97200      217.645    331.44531    125820.27   -40267.562    2707.9176    -42975.48    231.99882   0.99263409 
   97300    214.59209    577.68272    125837.15    -40255.38    2669.9336   -42925.313    232.52755   0.99250095 
   97400    213.69961    494.64931    125727.82   -40249.055    2658.8294   -42907.884    232.62128   0.99336402 
   97500    221.03946    572.16159    125952.99   -40157.337    2750.1512   -42907.488    233.01162   0.99158814 
   97600    216.77148    319.57524    125919.13   -40226.418    2697.0493   -42923.467    233.56004   0.99185475 
   97700    221.23836    560.72996    126137.81   -40171.493    2752.6258   -42924.119    234.19299   0.99013528 
   97800     219.4741    378.63016    126272.11   -40159.973    2730.6751   -42890.649    234.58686   0.98908218 
   97900    219.71623    409.84333    126325.63   -40123.012    2733.6876     -42856.7    235.01191   0.98866309 
   98000     221.5279    475.99931    126262.95   -40142.501    2756.2283   -42898.729    235.51718   0.98915393 
   98100    217.96262    434.11913       126335   -40208.031    2711.8693     -42919.9    235.66522   0.98858981 
   98200    220.87947    404.55554    126443.19   -40182.776    2748.1605   -42930.936    235.62484   0.98774395 
   98300    220.03063     493.2186    126326.69   -40212.839    2737.5993   -42950.438    235.98344   0.98865484 
   98400    219.80444    305.23278    126248.03   -40224.527    2734.7852   -42959.313    235.58473   0.98927079 
   98500    216.00153    466.97272    126153.18   -40218.089    2687.4697   -42905.559    235.66185   0.99001463 
   98600     224.0557    370.66928    126038.39   -40235.891    2787.6789    -43023.57    236.08761   0.99091627 
   98700    217.23543    328.21271    125922.69    -40302.81    2702.8217   -43005.632    236.25136   0.99182676 
   98800    217.45335    406.75021    125980.28   -40275.119    2705.5331   -42980.652    236.65854   0.99137336 
   98900    216.65849     502.3309    126052.16   -40266.746    2695.6435   -42962.389    237.02444   0.99080804 
   99000    215.90054    445.19032    125998.78   -40309.867    2686.2132   -42996.081    237.08916    0.9912278 
   99100     219.7322    349.07443    125878.87   -40231.827    2733.8864   -42965.713    237.59638   0.99217199 
   99200     217.9477    463.47888    125831.57   -40220.059    2711.6837   -42931.743    237.61572   0.99254495 
   99300    220.76395    387.77909    126116.39   -40192.087    2746.7233   -42938.811    238.74801   0.99030338 
   99400    219.65635    518.94759    126188.98   -40155.426    2732.9426   -42888.369    239.17453   0.98973377 
   99500    225.49371    263.13863    126252.67   -40023.321    2805.5705   -42828.892    239.27626   0.98923449 
   99600    225.73068    325.79632    126084.91   -40043.939    2808.5188   -42852.458    239.47367   0.99055068 
   99700     220.2842    613.52344    126076.67   -40037.069    2740.7542   -42777.823      240.337   0.99061537 
   99800     220.4518    616.36527    125801.71   -40056.895    2742.8395   -42799.734    240.38726   0.99278058 
   99900    218.65782    373.86896    125929.02   -40124.755    2720.5189   -42845.273    241.06075   0.99177686 
  100000    219.93985    435.97336    125824.52   -40125.397    2736.4698   -42861.867    241.17518   0.99260054 
  100100    221.69817    521.28246     126068.1   -40057.289    2758.3467   -42815.636    241.76696   0.99068274 
  100200    224.19974    247.17005     125968.7   -40068.156    2789.4711   -42857.627    241.34765   0.99146451 
  100300     222.9135    579.07961    126135.57   -40061.714    2773.4678   -42835.182    241.58569   0.99015283 
  100400    220.62679     559.2088    126284.35   -40104.855    2745.0168   -42849.872    242.17692   0.98898627 
  100500    223.72338    508.55396    126367.75   -40034.455    2783.5441   -42817.999    242.54571   0.98833358 
  100600    220.82242    522.93663     126439.4   -40130.601    2747.4508   -42878.052    242.45913   0.98777354 
  100630    221.45658    287.51463    126352.98   -40112.426    2755.3408   -42867.767    242.37882   0.98844909 
Loop time of 96.7079 on 6 procs for 100000 steps with 4175 atoms

Performance: 446.706 ns/day, 0.054 hours/ns, 1034.041 timesteps/s
98.6% CPU use with 6 MPI tasks x no OpenMP threads

MPI task timing breakdown:
Section |  min time  |  avg time  |  max time  |%varavg| %total
---------------------------------------------------------------
Pair    | 78.514     | 80.181     | 83.043     |  15.4 | 82.91
Neigh   | 5.1545     | 5.1978     | 5.3636     |   3.3 |  5.37
Comm    | 5.6691     | 8.7297     | 10.438     |  49.5 |  9.03
Output  | 0.1593     | 0.16015    | 0.16357    |   0.4 |  0.17
Modify  | 1.7582     | 1.7758     | 1.7882     |   0.7 |  1.84
Other   |            | 0.664      |            |       |  0.69

Nlocal:        695.833 ave         708 max         685 min
Histogram: 2 0 0 1 0 0 1 0 1 1
Nghost:        1484.50 ave        1515 max        1466 min
Histogram: 2 0 0 1 2 0 0 0 0 1
Neighs:        0.00000 ave           0 max           0 min
Histogram: 6 0 0 0 0 0 0 0 0 0
FullNghs:      19959.0 ave       20343 max       19583 min
Histogram: 1 1 1 0 0 0 0 1 1 1

Total # of neighbors = 119754
Ave neighs/atom = 28.683593
Neighbor list builds = 5600
Dangerous builds = 0

undump              1
unfix               2
unfix               3
unfix               4


################################################
#######         Run Simulation         #########
################################################

reset_timestep      0
log                 log.run_${NAME}
log                 log.run_liquid_density_MLmW
