LAMMPS data file via write_data, version 29 Oct 2020, timestep = 800000

4175 atoms
1 atom types

-0.7735912078628964 50.773591207864136 xlo xhi
-0.7735912078628964 50.773591207864136 ylo yhi
-0.7735912078628964 50.773591207864136 zlo zhi

Masses

1 18.015

Atoms # atomic

3600 1 -0.043250187758120395 -0.27514335458391087 1.1808201361939898 0 0 1
2796 1 7.914944846110608 1.7826843321642212 -0.047248039907792805 0 0 1
3513 1 5.920631068869908 -0.13549785975409145 0.6138374403788247 1 0 0
3293 1 10.048544956397786 0.3219410763142132 1.0303715586118558 0 1 1
3560 1 14.70641527240731 1.8964874399741807 1.4856953748862325 0 0 0
1025 1 23.40851455083683 0.6658618518394495 -0.5765400869744612 0 0 1
422 1 27.267427702280717 0.37625116721191776 0.8162544785092558 0 0 0
336 1 31.266849753718677 0.7465523172155599 2.7027567538849784 0 0 1
401 1 33.79542484068415 0.8545170797978008 1.5839046091481563 0 0 0
1749 1 38.10294395577144 -0.12036702683827138 -0.5278805784257534 0 0 1
3232 1 43.78439116032192 1.5816976797882512 1.5053374621203375 0 0 0
2904 1 45.359034250105395 0.6319714164098453 -0.5775058499445742 0 0 1
1808 1 47.79982426252647 1.9600859977767913 -0.6673053336986179 0 0 0
1210 1 48.64076841510958 -0.1702854185245577 1.0298839017374093 0 1 0
939 1 0.19073945053578956 2.4652420726496804 2.0350033238728082 1 0 0
3033 1 2.68339873180968 2.851900037872865 0.3489178942203919 0 0 1
769 1 4.632871136431597 4.034202552938573 1.6729609099920788 0 0 0
2620 1 7.278172985207618 4.463844405368792 0.5351354375840887 0 1 1
662 1 12.05830063802333 2.7191330937038116 1.0869947732337848 0 1 1
4049 1 16.37790992518248 3.5611467875687897 0.11622448788098405 0 0 0
2527 1 18.9502824091236 2.993484742277053 -0.5209979012646995 0 0 0
1555 1 22.862162475464242 4.969605815843126 50.55162773785021 0 0 -1
3909 1 25.70431288554967 4.179400373894587 -0.1836634177986276 0 0 1
3149 1 27.657264556460543 2.9522949217297216 1.4699174530379753 0 0 0
3986 1 30.24205173249892 3.7626614921940833 0.37640808774305046 0 0 0
447 1 34.624734466542634 2.8571536762349825 -0.02017100166885799 0 0 1
270 1 35.23929665577762 5.3471566920650995 1.1648120597464946 0 0 0
1667 1 38.467309994904866 4.582018736265421 1.7319504962426775 0 0 1
4024 1 42.38157182716256 3.707264889697689 0.08054355537184388 0 0 1
2966 1 47.35450292317287 3.876232140579493 0.9016757271310254 0 0 1
2541 1 49.86207998264885 4.523379676591255 1.7393856208922953 0 0 1
3597 1 0.9399894285353991 7.541804444736176 -0.2016653378644203 0 0 1
4100 1 5.8887418475153845 6.7499336245355765 -0.22622615202395124 0 0 1
2603 1 9.502609918253826 6.119777054259207 1.223796805617764 0 0 0
1972 1 10.055082493117501 7.297525067411458 50.412864075215694 0 0 -1
566 1 13.383362718433654 7.228959821788779 1.2418507254782343 0 0 1
3391 1 16.050180191194972 6.177715580463477 0.9960992033302014 0 0 1
1098 1 17.61854914572213 7.571911066349088 50.69571129107655 0 0 -1
3113 1 19.939564400139176 5.738334645228179 -0.6998650055666298 0 1 0
3962 1 21.887439692856933 5.683390179740949 1.8054089140938965 0 0 0
3832 1 26.97548651384061 6.7495322291679605 0.008496926946162664 0 0 0
3829 1 29.279480671674396 5.747411284672942 50.558892580627955 0 1 0
2817 1 31.0971545568579 7.36752485771685 0.16674115998497818 0 0 0
3553 1 33.75468407180607 6.989724193192072 -0.6949947009153732 0 0 0
2427 1 39.11262557781987 6.334915694854185 -0.44196575517249925 0 0 1
3234 1 43.670890724602046 6.144498570344015 0.18222025591278668 0 0 0
1640 1 46.376832437092204 6.196308408592863 -0.19492870183285171 0 0 0
972 1 50.43859266739676 7.207338275634231 1.312048483353653 0 0 0
1568 1 47.9319773647608 8.350090456240409 0.42924116325910067 0 0 0
2614 1 3.5316661212539335 7.67224222894594 0.9604308697146358 0 0 1
3683 1 4.788960614230329 9.990970857258988 1.9718888379165302 0 0 0
2936 1 7.361570199594047 9.395214677147724 1.6197944374585012 0 0 0
3160 1 7.584162829452058 9.03318400269645 50.27933936550261 0 0 -1
1235 1 11.830098981837788 11.187744513297275 -0.4578073955838724 0 0 1
658 1 18.085245017153735 9.952251597176492 0.39301544716344883 0 0 0
3904 1 23.53631424389307 9.33108983885288 -0.29225873683007014 0 0 0
2242 1 28.23601914386626 10.913042193363884 50.6231894174376 0 0 -1
1467 1 31.23797500762959 11.22919765916887 1.1897694314069882 0 0 0
3821 1 35.21365530641559 8.929563255728318 0.6111876079862535 0 0 0
845 1 33.7796537929008 11.21213827421119 -0.12635340562899144 0 0 1
4125 1 37.82586336828669 8.769148931895852 -0.4995425296786282 0 0 0
62 1 38.92786294363805 10.24915235793378 1.4609611043454125 0 0 0
1450 1 41.6675429695123 11.198322922598642 0.6946374737912866 0 0 1
3039 1 46.88922605311856 10.16014495425806 2.0094262992332923 0 0 0
2294 1 0.25165741418095045 12.00268620887216 2.2640799460011487 1 0 0
2551 1 2.8141873668870416 11.956708275728788 0.9859703043538695 1 0 0
3720 1 9.026755996278373 11.360004199455497 -0.386704875624958 0 0 0
3455 1 8.273335436243375 12.125741871192547 2.323263171336526 0 0 1
2921 1 13.781617738846768 11.746006915441674 1.391716501598372 0 0 0
1705 1 16.4046399037405 12.198412041604906 0.048721235296481424 0 0 1
2145 1 19.85013150803772 14.551507846370697 1.1931297730060557 0 0 0
163 1 23.732963416539896 12.078974103529518 0.7463082355116855 0 0 1
2690 1 26.225996974509563 12.60838946977883 1.5341444921022052 0 0 0
2132 1 27.188162372196988 14.873166018177743 0.15147915864882178 0 0 1
1059 1 31.52688349352422 13.786324521332777 0.5755071817268322 0 0 0
4145 1 35.57803730863304 13.246682957196196 1.0192889454310217 0 0 0
1974 1 38.844973613595116 12.792908587347021 0.33645905798500286 0 0 0
1999 1 42.37344791586749 13.750119333196295 2.3677924232535363 0 0 0
2321 1 47.63343312126109 12.631824304685809 1.1759463772137915 0 0 1
52 1 50.23428191525055 12.876013764167329 0.08714044449688463 -1 0 1
2018 1 3.1106875433038352 14.52835163309028 1.1207263692264138 0 0 0
4111 1 4.959905889634193 16.150848835388956 -0.23709498393930262 0 0 1
3185 1 7.09668034071753 14.715604368714633 0.845908667207659 0 0 0
2709 1 8.836014958862844 16.887545485236995 1.7592920760263877 0 0 1
1723 1 11.547017707938249 16.237601312791405 1.580142692319201 0 0 1
779 1 13.081577507501821 16.63037753494837 -0.5571671756334118 0 0 1
4052 1 17.008809567837485 14.785192011539875 1.2870076385459623 0 0 0
1135 1 16.13660149866925 16.504528600118135 -0.690087635858287 0 0 0
2610 1 20.746204126005637 17.070198231135954 1.6944956812925707 0 0 1
3858 1 24.720286797303668 15.782049735518779 0.03739967686593193 0 0 0
1874 1 29.695934911658373 15.71599553791171 1.4294644751449845 0 0 1
1112 1 33.759413474053716 15.278376185984563 0.897949233893307 0 0 0
3104 1 39.418474098073375 17.026562604133712 2.189471029777757 0 0 0
2623 1 45.566122332172355 16.24637104789629 0.7564528564870119 0 0 0
3934 1 48.12001298419885 16.679714397048333 2.088856780910287 0 0 0
3296 1 0.7141563489613885 18.20759147018948 1.8538402186094842 0 0 0
3672 1 2.0951845568917222 19.23797253942551 0.025758483578793068 0 0 0
2678 1 4.627048780888499 18.660192275130427 1.0511603421736615 0 0 1
2428 1 8.332720784473633 19.124132276403124 -0.04497260938649761 0 0 1
1668 1 15.304590291084164 18.680253412054384 2.4896464763310155 0 0 0
1345 1 17.29576745832597 18.82584052731858 0.19858225133487928 0 0 1
594 1 20.054922702134913 18.899270207746913 -0.2641745963736821 0 0 0
591 1 25.996103514974642 19.72114222640027 0.14689770235607225 0 0 0
2440 1 28.728779547392545 20.279442296280493 1.1610304796672044 0 0 0
2459 1 30.743222445221726 18.250489170739506 0.7955469025153867 0 0 0
1556 1 35.750013817304904 19.127159948023333 -0.07068210776160988 0 0 0
3850 1 41.325793665333705 20.479566036444478 0.29415629949260214 0 0 1
810 1 50.041859962593435 17.434115414161862 0.4241971476810307 -1 0 0
1054 1 -0.42837581003422276 23.09332541990594 0.38914754079765235 0 0 0
2903 1 2.0463004624178014 22.108956176654168 -0.3058368562475403 1 0 1
3793 1 6.363892999996318 22.747385001865286 1.5176347614002053 0 0 0
884 1 11.006706355484411 22.14865565831896 1.6755970114059067 0 0 1
2647 1 10.613641900579081 20.501812094487168 -0.4078194790317555 0 0 0
3955 1 15.330665837158232 22.91123917621413 0.6817399939851996 0 0 1
1563 1 19.277539459031384 23.411914759405207 1.4143930492251555 0 0 1
2977 1 20.965356544951444 21.592552933748756 0.0904486084743551 0 0 0
2286 1 29.645355912243325 22.51467005636838 -0.1819555448299215 0 0 0
2281 1 33.90449834970059 22.775218713860294 1.2303677161758202 0 0 1
1259 1 37.060800127497345 19.36859895522249 2.363159120477183 0 0 0
3368 1 39.912706515767596 23.095592909831876 0.9563065523722487 0 0 1
2309 1 44.02772550478447 20.687648024973377 -0.1353353631610219 0 0 1
2798 1 45.45169894098355 21.285816195352773 2.2828497172353206 0 0 0
865 1 49.0734217958633 21.536437159415105 -0.030666626164177035 0 0 0
4064 1 2.5314517240851995 26.351579985916764 0.6121076386471995 0 0 1
2790 1 3.4950209842372253 23.646516828093194 1.2847302341659423 1 0 1
3677 1 6.369738995470818 25.912258514196157 -0.03130998666159479 0 0 0
3285 1 9.055885930879379 26.171826630625926 0.5935503727731775 0 0 0
1929 1 8.976702833585454 24.050104664981706 2.4302796968186966 0 0 0
2042 1 13.118138235959517 24.208269642803405 1.3423645729396259 0 0 0
2782 1 13.02601316868488 26.407706058225532 -0.11331699984172117 0 0 0
1791 1 17.446797359914427 24.600465982699884 -0.14843739056376215 0 0 1
3431 1 21.503732057098848 24.92167147586162 1.961281347966342 0 0 0
1446 1 27.223494252791753 23.83824404490526 0.11096676526955074 0 0 1
3338 1 31.604704147618104 24.133119510364796 0.9116446784571159 0 0 0
2257 1 36.096178453507875 24.177873715732584 1.851865846275384 0 0 0
3802 1 37.778150946737426 24.36092956998212 -0.5934691846967861 0 0 0
2334 1 42.003272555526166 24.75863002945489 1.7538647525002764 0 0 0
4010 1 43.021604399332915 26.71975279585903 -0.2108065939327921 0 0 0
2107 1 47.18000918786615 25.422217322242894 1.3856460443738587 0 0 0
1223 1 -0.09614205224016625 25.853594116119513 -0.1439137164900557 1 0 0
4038 1 5.889046565531043 28.697620108039718 0.4073096768740161 0 0 0
2282 1 9.74158996732563 28.56360791976306 2.1652230243173562 0 0 0
1591 1 14.243214469573106 29.005854040223028 0.614163034157152 0 0 0
1010 1 18.7715993036712 26.609613025451903 2.0340409319939905 0 0 1
3992 1 18.53245362240621 29.124627837591536 0.5184602277823489 0 0 1
2221 1 22.323072631221148 26.929894469060926 0.16701526377091014 0 0 1
1933 1 24.35000441911963 28.771535285083818 0.901104853055912 0 0 1
2000 1 26.759994714950697 27.84466220151334 1.1971029858652433 0 0 0
678 1 31.83253578095918 26.845496040160597 0.36016793258578184 0 0 0
585 1 30.775259453275982 28.474095479590808 2.11500384583274 0 0 0
3797 1 34.36658866149506 28.147287112005092 -0.04440431818943391 0 0 0
264 1 36.64943199960777 27.24447191564772 1.1653623097273735 0 0 0
1527 1 37.33451703498535 29.33198914599832 2.372895070872371 0 0 0
3961 1 39.94693395413559 28.99339504720261 2.358001927905501 0 0 0
72 1 40.6722562248825 28.412083978780622 -0.3314973092880347 0 0 0
1129 1 45.2346137616169 27.904912811502967 1.087079958098883 0 0 0
2348 1 2.2750994160572464 31.635519413160456 0.672028732855265 1 0 0
165 1 3.883011531776712 29.88504910827894 2.168189533092592 0 0 0
3441 1 9.711978101853289 30.839635870107777 0.9781494512275368 0 0 0
2918 1 12.37703815647215 31.30611373176649 0.1284185983477577 0 0 0
2870 1 19.509071770610536 31.647893243042756 1.5111576175354773 0 0 0
3680 1 17.192870887098852 33.046294409407 2.406752030963467 0 0 1
2929 1 28.509567580313004 29.9405354027486 1.514902645184756 0 0 0
35 1 34.008812887297566 30.503854759157598 1.1823659804376245 0 0 0
2829 1 36.70167839626676 31.739995394888734 1.3376762048290658 0 0 0
282 1 41.06880271991945 31.485430796640625 2.5306408571771257 0 0 1
2680 1 46.17056216930443 30.24689774326182 -0.3195272633912213 0 0 0
2512 1 45.47896715693909 31.9709728989484 1.7288893409600425 0 0 0
36 1 48.71034218665886 29.640158265758906 0.16127259221113244 0 0 1
332 1 49.79868859680687 32.236586378997586 1.092980329132192 0 0 0
2855 1 2.875947060960656 34.455244700777186 0.6148157919067563 0 0 1
1862 1 6.482676088791528 34.27648011492897 -0.024268182168306063 0 0 1
846 1 10.658200846524279 35.23112475004531 1.5144376171166694 0 0 0
3288 1 13.093587416008962 33.75237379054845 1.0565650008236567 0 0 1
3506 1 15.727129187831121 34.459468505244004 0.4230608863574785 0 0 0
1921 1 20.513986673178042 35.776396611767225 1.4679474557414314 0 0 0
1853 1 22.78107315520708 34.35573006228542 0.47779569978722347 0 0 0
51 1 25.518549476220425 33.69861966312703 1.2770084991167514 0 0 0
3872 1 27.836028267767944 35.1589086733252 1.765245260664754 0 0 0
707 1 30.519890143834083 34.446035540854055 2.0790865090419444 0 0 0
1424 1 30.82793166306918 33.33949626445164 -0.4979620151340644 0 0 0
2695 1 39.98297947900804 34.602135496704705 -0.5538363569300536 0 0 0
4140 1 41.87964377929211 33.06154915793523 0.17057180561053242 0 0 1
1630 1 44.00651101640139 34.22145206544789 1.200230237345512 0 0 0
2291 1 50.0492287142649 34.23809881403602 -0.7653645738603359 -1 0 0
3014 1 0.5353403334959621 35.664031298319046 0.5271269609160096 1 0 0
2672 1 0.6868465914117814 38.316507469814766 -0.5307961758100803 0 0 1
3925 1 3.1894951954670776 38.28876526505253 0.032822319313493 0 0 1
2938 1 8.403347614876822 35.903987189191525 -0.09472047562723163 0 0 0
1440 1 15.840998421682645 37.16002104661378 0.7740588404668476 0 0 1
2507 1 18.41396996933553 37.71674599405344 0.5310816711983128 0 0 0
3856 1 23.668129912057072 37.46843287713462 -0.3253226862475916 0 0 1
90 1 28.016198055725038 37.04077004974026 -0.1009767767875358 0 0 0
1662 1 30.212004444684666 38.132005095760164 0.5001071659233476 0 0 0
3771 1 34.55651853004697 37.108072490332006 1.3287596070247512 0 0 0
129 1 38.972454372128695 36.33796554426836 1.4583479528786962 0 0 0
2658 1 45.38827888932586 35.9375055891806 -0.511350422218132 0 0 0
1669 1 46.529256742558545 37.59695110621621 1.6020530278308356 0 0 0
1932 1 4.31129809858683 39.54077711926449 2.2163457774505724 0 0 0
1013 1 7.054976658692156 39.53854864199967 1.7338904438122138 0 0 0
1619 1 7.668756513292058 38.528834596877275 -0.7193857312159462 0 0 1
2581 1 12.415489985228533 40.22997525315792 -0.6346058432630983 0 0 1
3758 1 12.1487651374489 40.24472689040863 2.139289344753269 0 0 0
55 1 16.373240701339302 41.5062548798291 2.2338348609849175 0 0 0
3326 1 18.836385692965564 39.93162776796035 2.0277109083950116 0 0 1
1857 1 20.869138780147455 41.25612313651776 1.1942949217236523 0 0 1
1417 1 26.07161150025205 39.0455764150969 -0.21097571066537113 0 0 1
3191 1 34.82730313259066 39.908987078006575 1.218562243995624 0 0 0
3616 1 39.45709471881379 38.83481944235464 0.5509716980632946 0 0 0
989 1 42.92773004101983 40.459774646691315 1.115897212214525 0 0 0
3187 1 41.97695887876675 39.032389742830176 50.65659028405241 0 0 -1
2965 1 48.28055651278238 39.30802488755576 -0.12150461623602904 0 0 0
2626 1 50.68552063752173 40.09605435409395 1.0721948696874706 -1 0 1
2809 1 -0.7556370936395447 42.624332861297006 -0.3158978406215111 1 0 0
3571 1 4.1135632624082 42.19055971409867 1.898486858655335 0 0 0
1159 1 7.87299220949328 42.1953115973928 1.75222844333567 0 0 0
1012 1 12.697320912711806 44.75692806805844 -0.32411771929719335 0 0 0
3799 1 16.503287766850704 42.310957914222925 -0.4780903278029276 0 0 0
3009 1 20.500443931648658 44.046135047953456 1.2878401522667153 0 0 0
3849 1 25.29669459701348 44.376356976630404 -0.016966818255060412 0 0 0
1339 1 26.311366776694268 43.20199918424619 2.3667164647392687 0 0 0
2768 1 29.743097140814992 43.84583561076997 -0.2501835792393944 0 0 1
2863 1 32.40858307295967 43.72106021261463 50.72612375957151 0 -1 -1
2505 1 36.9436812872915 42.96285995945817 -0.5071476531113983 0 0 1
2528 1 39.632576195832684 43.09311349700788 -0.6113924867690298 0 0 1
3551 1 44.50795155445232 42.739635872652485 0.6693002379287243 0 -1 0
1806 1 47.239576391468646 41.676856638373366 0.8126496961747909 -1 0 0
495 1 8.972432015516175 47.42366918775221 50.56547835700425 0 0 -1
2254 1 14.538679769134179 46.786335990146156 -0.43123285385328286 0 0 0
3682 1 16.82599283724144 46.69045478563331 1.1137001658695427 0 0 1
3055 1 18.14674375115022 44.43522017620688 0.24377421576507863 0 0 0
1280 1 22.713375388577543 45.54623173030693 0.23566183354801007 0 0 0
655 1 26.57701982442098 46.8234912777161 -0.24582127705098444 0 0 1
3752 1 33.66761085784063 45.41701500752066 1.1922708312629742 0 -1 0
1702 1 36.31011673654615 44.907473619617136 1.3718952226698753 0 0 0
2853 1 37.768182057845294 47.27864129968454 1.6315096992636544 0 0 0
134 1 40.43484214115044 47.29605751154054 0.9852864336743767 0 -1 0
3091 1 45.524568459024835 47.02019595208765 1.7155400796258133 0 0 0
1503 1 47.98060304270676 46.52908143772244 0.5494039175982679 0 0 0
3831 1 0.9138248191146965 47.6070690545462 1.985821186405698 1 0 0
617 1 2.5390986762489764 48.1870114630954 -0.2968218858825704 0 0 1
2952 1 5.132726066243803 48.69995781271932 0.07193060860982237 0 0 0
951 1 10.971167882895381 49.27523215772672 0.48365366941353494 0 -1 0
969 1 13.842200520316645 49.1204400275915 1.0406626191696238 0 0 1
3912 1 15.497687808808685 -0.41302772392777665 0.1653764168999744 0 1 0
2020 1 17.410285064755556 49.45584658997967 0.8973066559832894 0 0 1
2112 1 22.837777661248438 48.03590994022795 1.3760811565921665 0 0 0
3320 1 21.984736444537674 50.0258511635551 -0.47084277632878424 0 -1 0
3809 1 25.44433805238151 47.61306058087257 2.246246356773337 0 0 0
1487 1 29.93583220764259 -0.35678435634692635 0.3745622043332686 0 0 1
3705 1 30.545637911295717 48.38119795162777 0.7245022024888179 0 -1 1
2862 1 33.10514507545557 48.142626587345745 1.1325674972075952 0 0 1
2343 1 34.50028616337474 49.923249192554124 -0.29718006093923266 0 0 1
3975 1 37.030892654658274 48.65907181932178 -0.6042348038881531 0 -1 0
2275 1 41.9992819318465 49.39919172199643 0.046573738448490665 0 0 1
1094 1 44.773027826088295 49.33814067131303 -0.6723483155633964 0 0 0
2327 1 47.57811156661205 49.188975758077845 -0.20269821167112456 0 0 1
68 1 0.8466746739356557 2.407670475221204 5.070629721702019 0 0 0
2881 1 6.572274882470779 -0.22646748114925108 3.337220914413999 0 0 0
1953 1 9.245450196457552 0.06683177735965984 3.7072742356947748 0 1 0
70 1 15.68809414158141 1.376946586956914 4.053104479480009 0 0 0
2812 1 18.290890498325986 0.828431339348455 4.058211504464147 0 1 0
524 1 22.72683396789389 1.2377742017981932 2.0255926397270443 0 0 0
3827 1 23.415154487173645 -0.6318640825147186 3.8834821171114937 0 1 0
2051 1 37.86870845981612 -0.05779654664541889 2.3606644166766246 0 0 0
3430 1 40.36956821562967 0.5632488929887578 3.6126343403088326 0 0 0
3192 1 42.380037000839934 -0.7223658945496871 2.3607160344489766 0 0 1
2177 1 46.732893073219 1.7705206858440463 4.955429921885093 0 0 0
1718 1 47.65234632618031 -0.4331670440911562 3.6123333372608517 0 1 0
421 1 0.8431444532183656 5.208104470302562 5.0500178724516624 1 0 0
2217 1 5.150586984827817 2.019623407705601 3.8535268209140465 0 0 0
3111 1 15.679578309133351 3.9999378307684754 5.019806189931405 0 0 0
1760 1 20.0596388906288 2.0146649882057677 2.1852986578763036 0 0 0
1812 1 19.966069255011437 4.460259782802958 3.208170725131819 0 0 1
606 1 23.972519097131094 4.049009288393619 2.28257494286266 0 0 0
2838 1 24.902313928058923 5.127761779907144 4.4991265421213145 0 0 0
1096 1 27.602600244174212 3.1468252786881084 4.530655119107859 0 0 0
2295 1 30.29793407664886 3.0413422556341336 3.8603301103879666 0 0 0
277 1 36.73866558371397 2.485083688024136 2.6281456608568554 0 0 0
3454 1 40.7059468533389 3.292626151802784 2.601502884994191 0 0 1
2762 1 42.1995142766725 4.102905254967306 4.648280565728776 0 0 0
2510 1 45.66565333978113 3.262943703643856 2.8026783588809403 0 0 1
3093 1 2.9826408590335607 6.060780558228804 3.255909861858445 1 0 0
460 1 8.794445255555342 8.013728303528111 3.253830720792167 0 0 0
1081 1 11.813856979866276 5.070236508580115 2.384506876429548 0 0 0
4023 1 13.101574334248923 5.114037690929971 4.759635652831535 0 0 0
3504 1 17.44319067719407 5.445775026715204 3.27858723731827 0 0 0
3484 1 17.67714652626178 8.058981951220954 4.242068218959965 0 0 0
3052 1 24.843801283107027 7.704968017386628 3.807854356313487 0 0 0
387 1 29.229847893858402 7.284887798362279 4.309204746860375 0 0 0
2744 1 31.017229780248055 5.687523674983749 2.9434389548972564 0 0 1
3555 1 33.669696057267615 6.211007568979232 3.2107802514246395 0 0 1
2573 1 38.69472072668006 6.305217616493891 3.720721995182636 0 0 0
893 1 44.23399112559147 5.652319445151943 3.6936739907034983 0 0 0
3916 1 42.87571042317401 7.926101823546983 2.52287638695052 0 0 0
348 1 49.68159608867661 5.162756223726588 4.525466196841417 0 0 0
3425 1 -0.26911081436930095 9.486851116521423 3.3589432965136137 1 0 0
18 1 1.375676850380898 9.703186288442073 5.703313617400661 0 0 0
1212 1 3.8934187319264595 8.796192315857045 4.596800718264705 0 0 0
305 1 11.139491113634085 9.560501506769947 4.028829900299256 0 0 0
138 1 13.435998992444192 9.474787394658025 2.7731225550507115 0 0 0
2655 1 15.19373790506614 9.061129226674511 4.86012212922747 0 0 0
3102 1 18.657317052041172 10.301364042728924 3.204227816028653 0 0 0
1572 1 22.689424018160413 8.247987738412398 2.2143854315110008 0 0 0
2934 1 21.29344841898358 10.337605700003415 3.6518825717671994 0 0 0
1278 1 27.38424523886731 8.27186551760673 2.549314550416008 0 0 0
3237 1 28.31018086456617 10.785974993499337 2.017720517125991 0 0 0
1754 1 34.443991073737934 8.800908428093756 3.1235292876065315 0 0 1
3584 1 32.47978218853875 10.380894738420546 3.7152791000974448 0 1 0
3172 1 36.6418950548569 8.047473001327125 4.511201999717536 0 0 0
3151 1 37.70273420209277 10.326280096287121 3.7216789441397085 0 0 0
3028 1 40.22394663269087 7.842975601122848 1.905242243214425 0 0 0
446 1 44.01074665986626 10.366953236306127 2.521392103321712 0 0 0
3774 1 48.823239143884635 9.617422889429323 4.194644362229668 0 0 1
1661 1 0.19875217970217673 14.076085145818364 3.9760926021921357 0 0 0
255 1 5.469226672594786 13.093955996405862 2.708209969463763 0 0 0
228 1 10.247621927654786 12.19985447944092 4.3215059596648056 0 0 0
3563 1 12.321430214039603 13.716063072634961 2.6729304198151884 0 0 0
2176 1 17.82985954332778 12.36365916731779 4.863508612701109 0 0 0
3322 1 21.846963552713603 12.8522537575906 2.5591677628228697 0 0 0
3083 1 23.240170805570447 14.423725483753092 4.367289515886527 0 0 0
63 1 25.934903429413396 13.501319718465915 4.130091930367516 0 0 0
3807 1 29.142824925416026 11.584697787130086 4.777030310709027 0 0 1
3119 1 33.991747759597374 12.52907486211159 4.875790907438366 0 0 0
188 1 36.44368906195862 12.850340430814263 3.7591444916091072 0 0 0
3959 1 39.5487796324867 14.419357915380528 2.7956430470979496 0 0 0
1607 1 41.0428944187632 13.404506852629522 5.415432123508018 0 0 0
1496 1 43.84895704611854 12.313425080730246 4.4898215276304185 0 0 0
411 1 47.86984685816313 13.493110006618132 3.7034717422205308 0 0 0
3585 1 1.9123007977000506 16.102712883012472 2.97438293338652 1 0 0
343 1 6.147704062820418 14.4334071550022 4.905006899974718 0 0 0
119 1 7.645818332354084 16.837321956533167 4.388505690607012 0 0 0
2079 1 13.781630384188256 14.72080890591135 4.807276266761231 0 0 0
2615 1 16.395602626058846 14.78744683243647 3.906341906103161 0 0 0
4110 1 16.976723483513396 17.365208835686992 4.448328548280831 0 0 0
2491 1 23.30265973693351 16.433919584081845 2.3281721880840607 0 0 0
2010 1 29.988909915357592 15.620618488527878 4.415579238257392 0 0 0
1740 1 34.188829824159725 16.45902951458127 3.261166571163688 0 0 0
3144 1 38.01999070048771 14.585190120651507 5.059389796655619 0 0 0
3979 1 41.66279238356057 17.418992477251752 3.926635145204652 0 0 0
2882 1 44.01300650229078 16.060896490696532 2.9384125234889615 0 0 0
1697 1 45.457444133751395 14.542905810861605 4.569601169389218 0 0 0
427 1 49.68566883578012 15.686662999531976 4.6280531800738745 0 0 1
2049 1 -0.15290056102834293 19.92478093363732 3.9988720078907747 1 0 0
2522 1 3.1726042001149324 17.405572881120673 4.761789147878923 0 0 0
2588 1 5.339732211694844 18.596286070780256 3.733940994360178 0 0 1
2345 1 12.582462684301627 18.32923858761763 3.120012146414504 0 0 0
3214 1 19.638092949451337 17.36562983610687 4.2610228908626935 0 0 0
1709 1 24.55697473127223 18.807095551351605 2.323136529098743 0 0 0
2981 1 28.722887618762247 20.012868924446714 3.823849791238848 0 0 0
1578 1 32.6951601203353 18.58215336918932 2.8823354603685316 0 0 0
2724 1 30.774615529035525 18.354046861192227 4.83614990396279 0 0 0
1897 1 36.90291389635708 17.147797964961764 4.01330369445502 0 0 1
1466 1 42.09159675201106 19.998642560322875 3.073248411486939 0 0 0
2910 1 45.04956032236102 18.898143727229616 3.831147573904321 0 0 0
3825 1 47.88020201786223 18.8499030628366 3.5959284222319887 -1 0 0
3533 1 49.60070754938424 18.069573620012882 5.587361457309094 -1 0 0
2215 1 -0.028783289071489748 22.610662578843222 3.1034082320668332 0 0 1
1805 1 6.045647701623671 21.226312359095797 3.737635901739112 0 0 0
3671 1 11.06742553506332 20.600640093403978 3.9543447670207117 0 0 0
1936 1 13.321752197775412 21.928583695130992 4.994610641467011 0 0 0
100 1 15.317465045256512 21.472300936639712 3.076665559050518 0 0 0
2712 1 20.159476191304048 20.22694221849283 3.918228656029026 0 0 0
3071 1 18.112227702593056 21.95249315481727 3.4981343564336225 0 0 0
28 1 22.31748581892636 20.590469416665595 2.4253292453773785 0 0 0
987 1 27.392162101304375 22.107169240013043 5.076525391978145 0 0 0
3624 1 34.5096125095464 20.759988775719435 3.179695657269534 0 0 0
1625 1 37.861439657964965 22.167144433734887 3.1306415958191014 0 0 0
2453 1 40.47630138061254 21.715380929107766 4.3777809382021715 0 0 1
3971 1 43.9796436973495 23.54819027333895 3.2692822876640886 0 0 0
3282 1 43.082251729411354 22.12992648328127 5.277681138615695 0 0 0
975 1 48.499718270476706 21.352968540705845 2.656574501626338 0 0 0
1404 1 48.03112353045579 23.31098273309828 4.662301758388199 0 0 0
3721 1 2.75548596713077 23.53551320813942 3.851578316521967 0 0 0
1213 1 3.117750791621838 26.08970479180304 4.49409382935121 0 0 0
2184 1 8.048283309729612 24.819889695218098 4.987459415983253 0 0 0
3348 1 14.174957292010303 25.673784061604653 3.5599069271283357 0 0 0
1461 1 17.015695085386735 25.529577402744053 4.089996841498408 0 0 0
4092 1 17.933206852013605 23.487120610920286 5.700128666370888 0 0 0
549 1 23.478236649770455 23.152703311461206 3.1128020018979377 0 0 0
2306 1 26.313558474505086 23.96437792041664 2.6882461098109376 0 0 1
2074 1 26.975178769150013 26.424503225603782 3.4063867316077996 0 0 0
3022 1 31.106765496057637 24.353117296489565 3.6763294578953563 0 0 0
2214 1 35.868262537321286 25.89575890101003 4.089527174389195 0 0 0
3906 1 46.17848122681188 24.778983522754935 3.7852126401195276 0 0 0
3079 1 49.61280896760033 26.060444763068176 1.9496821146405776 -1 0 0
3006 1 49.94440569762341 25.080281609077957 4.6467189509313 -1 0 0
69 1 -0.027612781134187303 29.18382033143286 3.8717545232430757 0 0 0
1989 1 2.047549244353528 27.876476299052367 2.7759875833448766 0 0 0
3118 1 7.10623831413218 28.758342744074643 3.1732223069824967 0 0 1
2742 1 5.917436443534569 26.609880008156324 4.852747734192152 0 0 0
1816 1 10.966910323986292 28.449021396719306 4.741574342568996 0 0 0
3767 1 13.421176531458713 28.42867780144896 3.2302565352304455 0 0 0
2629 1 15.069127245348067 29.479025912445696 5.245580704397747 0 0 0
391 1 17.31567376390143 28.024482430683893 5.382024232093842 0 0 0
3947 1 20.92679807579872 26.786599141346183 4.167705928884202 0 0 0
3811 1 23.071124583751786 28.33614974169263 4.754709420708885 0 0 1
2384 1 29.824704026652903 26.785490272483294 3.932878433598291 0 0 1
4021 1 36.46967324987203 28.46342755535093 4.791511519244549 0 0 0
2557 1 41.739764707312716 26.896538548103457 3.7904452358766862 0 0 0
461 1 44.274218964532764 28.167619534527944 3.7199248831853886 0 0 0
3498 1 47.14284312987043 29.460562562147686 4.3014673994870485 0 0 0
3790 1 49.25966178410144 28.52082918018173 2.4796152211771347 0 0 0
770 1 0.4714627389156669 31.561768287142772 2.6867772604637112 0 0 0
1275 1 3.808907781506929 31.134012672519635 4.783448600928644 0 0 0
1298 1 6.569388038436502 31.377385042662926 4.337619763028185 0 0 0
4053 1 15.52161197666733 32.4643001640912 4.848839558061826 0 0 0
673 1 16.514334883399407 29.826859436883275 2.5652084362968584 0 0 0
1415 1 19.344669199085683 29.222897938337194 3.855323387328892 0 0 0
3691 1 22.198966374651214 32.52520516213815 2.4909409397579756 0 0 0
2575 1 23.832458747892158 30.31796233849797 3.142890549623774 0 0 0
1694 1 25.629641006990465 32.37823111172129 3.7894705303234737 0 0 0
2772 1 28.359238354056785 31.26403814499827 4.0555618739134625 0 0 0
509 1 30.514336258818034 32.70667029683423 3.9685755332126345 0 0 0
1344 1 32.272953798226794 30.435901210509353 3.262038157672893 0 0 0
3134 1 34.26168525440562 30.106903399580272 5.045693888531653 0 0 0
2814 1 39.72540571204148 33.12705094722426 4.321051865712913 0 0 0
3018 1 43.597650294782824 30.817747106921104 3.5318362056650514 0 0 0
2148 1 1.5728902831260227 32.83412783631587 4.550171780268971 0 0 0
1007 1 3.7260363474951435 34.264913081632656 3.182998068485778 0 0 0
169 1 6.749666226067546 33.77477374841972 2.911014906538907 0 0 0
2794 1 9.370189697144466 33.00633481130794 2.624797803599852 0 0 1
268 1 10.529102016107915 33.216589307549555 5.144204759506024 0 0 0
1800 1 13.125358885435427 33.68421516058261 3.875817588512456 0 0 0
3435 1 18.81144709091057 34.97986653499281 3.5711709102837883 0 0 1
4072 1 20.917789721738455 33.87508315737493 4.722404272967876 0 0 0
981 1 36.94947550274935 33.39507923392094 3.5114625798479517 0 0 0
2110 1 40.814979739113696 35.912011882444205 3.4330861872473797 0 0 0
3139 1 44.716340259926596 34.93147177951195 5.250990603699109 0 0 0
254 1 47.883761896752475 33.02458507284791 2.82737321207912 0 0 0
3957 1 6.681386023170748 35.96604850590256 4.7716116607651795 0 0 0
3274 1 7.275797352592569 38.51412816213504 4.526585462196096 0 0 0