
# Set production fixes - Nose/Hoover
#
fix                 2 all nph iso ${PRES} ${PRES} ${PCOUPL}
fix                 2 all nph iso 1 ${PRES} ${PCOUPL}
fix                 2 all nph iso 1 1 ${PCOUPL}
fix                 2 all nph iso 1 1 10000.0
fix                 3 all temp/csvr ${TEMP} ${TEMP} ${TCOUPL} 837492
fix                 3 all temp/csvr 289 ${TEMP} ${TCOUPL} 837492
fix                 3 all temp/csvr 289 289 ${TCOUPL} 837492
fix                 3 all temp/csvr 289 289 5000.0 837492

# Define Order parameter
#
compute             2 all orientorder/atom nnn NULL cutoff 3.5
thermo              200
thermo_style        custom step temp press vol etotal ke pe c_1[4]

# Run 1ns simulation
dump		    1 all custom 400 prod.${NAME}.dump id type x y z vx vy vz c_2[*]
dump		    1 all custom 400 prod.ice_289K_1atm_ML.dump id type x y z vx vy vz c_2[*]
run                 200000
Neighbor list info ...
  update every 1 steps, delay 0 steps, check yes
  max neighbors/atom: 2000, page size: 100000
  master list distance cutoff = 6.00329
  ghost atom cutoff = 6.00329
  binsize = 3.00165, bins = 17 17 17
  2 neighbor lists, perpetual/occasional/extra = 1 1 0
  (1) pair sw, perpetual
      attributes: full, newton on
      pair build: full/bin/atomonly
      stencil: full/bin/3d
      bin: standard
  (2) compute orientorder/atom, occasional, copy from (1)
      attributes: full, newton on
      pair build: copy
      stencil: none
      bin: none
Per MPI rank memory allocation (min/avg/max) = 5.815 | 5.829 | 5.832 Mbytes
Step Temp Press Volume TotEng KinEng PotEng c_1[4] 
       0    286.35552   0.65469471    132027.47   -42352.073     3495.375   -45847.448   0.14100485 
     200    286.58514   0.26408079    132033.68   -42342.253    3498.1777   -45840.431   0.14087858 
     400     285.7788   -20.985627    132028.15   -42335.483    3488.3352   -45823.818   0.13937925 
     600    290.24807    20.113377     132001.7   -42371.664     3542.889   -45914.553   0.14029042 
     800    288.22668     69.31647     131984.4   -42384.962    3518.2151   -45903.177   0.14216781 
    1000    284.67215   -32.232421    132000.56   -42396.443     3474.827    -45871.27   0.14338476 
    1200    287.13465   -16.512255    132005.92   -42419.074    3504.8854   -45923.959   0.13662371 
    1400    290.32144   -5.0501961     132032.7   -42410.394    3543.7846   -45954.179   0.13510916 
    1600    284.75979    16.988635    132036.99    -42413.13    3475.8968   -45889.027    0.1392156 
    1800    286.01897    8.0118736    132035.84   -42418.586    3491.2668   -45909.852   0.14071039 
    2000    284.38311    3.4923011    132010.26   -42375.671    3471.2988    -45846.97    0.1386378 
    2200     289.9786     46.34829    131969.04   -42346.259    3539.5998   -45885.859    0.1403906 
    2400    288.11299   -36.045598    132031.57   -42363.288    3516.8273   -45880.115   0.14165342 
    2600    282.63592   -77.620775    132085.55   -42404.989    3449.9719   -45854.961   0.14328334 
    2800    286.39489    47.941527    132014.67   -42420.514    3495.8555   -45916.369   0.13551204 
    3000    282.54669    19.363629    131974.97   -42432.464    3448.8827   -45881.347   0.13803856 
    3200     289.9015   -37.046184    132050.78    -42381.96    3538.6586   -45920.618   0.14093729 
    3400    281.56616   -124.25891    132111.46   -42418.073     3436.914   -45854.987   0.14498061 
    3600    285.16461    27.987556    131958.15   -42445.403    3480.8382   -45926.241   0.13736954 
    3800    291.20648    112.28587    131898.28   -42376.474    3554.5878   -45931.062   0.13798831 
    4000    289.84222   -99.020566    132134.18   -42371.594     3537.935   -45909.529   0.14118198 
    4200     284.4443   -110.29138    132170.35    -42385.95    3472.0458   -45857.996   0.14369412 
    4400    287.90631    150.98247    131899.98    -42365.14    3514.3046   -45879.444   0.13829295 
    4600    287.64005    82.116144    131925.54   -42353.995    3511.0544   -45865.049   0.14160986 
    4800    290.68296   -129.03675    132222.59   -42347.706    3548.1974   -45895.904   0.13985142 
    5000    290.70152   -41.776102    132124.64   -42339.416     3548.424    -45887.84   0.14469234 
    5200    289.83538    169.27502    131819.17   -42338.623    3537.8515   -45876.475   0.14370507 
    5400    287.65121    36.415764     132010.4   -42301.819    3511.1907    -45813.01   0.14459408 
    5600    290.39154   -201.40761    132355.62   -42285.325    3544.6403   -45829.965   0.13760811 
    5800    287.32501   -38.263701    132098.71   -42274.993    3507.2089   -45782.202   0.14839354 
    6000    290.96775    222.11347    131784.02   -42261.572    3551.6737   -45813.246   0.14552279 
    6200    293.57127   -14.550594    132106.14   -42255.784    3583.4534   -45839.238    0.1433646 
    6400    292.21474   -228.96119     132355.8   -42223.587     3566.895   -45790.482   0.14443792 
    6600    289.10603    35.926764    131955.56   -42262.146    3528.9488   -45791.095   0.15037393 
    6800    296.40286    293.02076    131749.23   -42295.209    3618.0169   -45913.226   0.14070075 
    7000    289.26665   -110.75178    132203.97   -42306.427    3530.9094   -45837.337   0.14032123 
    7200    294.01022   -222.09447    132306.23    -42253.46    3588.8114   -45842.272    0.1395264 
    7400    297.00629    178.58247    131820.11   -42237.479    3625.3827   -45862.862   0.14840786 
    7600    291.56252    204.14995    131840.29    -42273.92    3558.9337   -45832.853   0.14367036 
    7800    288.43154    -301.9229    132341.36   -42299.063    3520.7157   -45819.779   0.14917141 
    8000    288.84756   -112.29518    132190.64   -42261.779    3525.7938   -45787.572   0.14404879 
    8200    297.06857    312.59279       131697    -42296.51    3626.1429   -45922.652    0.1403523 
    8400    285.67642    83.865808    131918.19   -42324.556    3487.0855   -45811.642   0.14872079 
    8600    287.31676    -270.1709    132341.65   -42279.559    3507.1082   -45786.667   0.14478901 
    8800    296.81232    -11.72239    132067.96   -42221.947    3623.0149   -45844.962   0.14376971 
    9000    295.01433    274.38645    131725.55   -42201.399     3601.068   -45802.467   0.15019656 
    9200    296.21648   -3.8468942    132090.94   -42187.326     3615.742   -45803.068   0.14611279 
    9400    288.83531   -322.13811    132377.29    -42232.08    3525.6443   -45757.724   0.15008415 
    9600    295.85696    107.49243    131948.49   -42222.172    3611.3535   -45833.525   0.13976444 
    9800    298.13607    331.26468    131773.97   -42237.685    3639.1732   -45876.858   0.13926681 
   10000    286.78604   -214.32425    132295.73   -42233.248    3500.6301   -45733.878   0.14863389 
   10200    294.90782   -316.87397    132370.35   -42232.036    3599.7679   -45831.804   0.14700664 
   10400      288.515    304.04511    131761.25   -42217.217    3521.7344   -45738.952   0.14343522 
   10600    291.58402    178.50792       131828   -42200.574    3559.1962   -45759.771   0.14248038 
   10800    296.61132   -269.87311    132422.89   -42230.108    3620.5615   -45850.669   0.14005815 
   11000    289.28963    -149.7491    132196.67   -42268.475    3531.1899   -45799.665   0.14795565 
   11200    288.81909    347.53595    131615.93   -42282.122    3525.4463   -45807.568   0.14324781 
   11400    292.77831    97.588036    131926.27   -42308.691    3573.7742   -45882.465   0.14008593 
   11600    287.03033     -382.957    132424.77   -42279.135    3503.6119   -45782.747   0.14772071 
   11800    288.81277    -1.578334    132022.06   -42347.749    3525.3692   -45873.118   0.14321754 
   12000    287.89666    339.38261    131630.65    -42347.31    3514.1868   -45861.496    0.1428715 
   12200    284.42892   -47.940818    132075.84    -42326.85     3471.858   -45798.708   0.14535744 
   12400    293.21849   -258.20027    132367.99   -42295.829    3579.1473   -45874.976   0.14111278 
   12600    291.49006    53.885588     131904.3   -42306.905    3558.0492   -45864.954   0.15222985 
   12800    295.34305     265.6924    131716.39    -42315.62    3605.0804     -45920.7   0.14157412 
   13000    291.69586   -107.89758    132140.02   -42296.845    3560.5614   -45857.407   0.14558001 
   13200    289.76097   -193.91057    132241.12   -42269.642    3536.9433   -45806.585   0.14622714 
   13400    286.21887    88.077883     131884.6    -42287.59    3493.7069   -45781.297   0.15258805 
   13600    292.33471     108.7235    131849.11   -42284.567    3568.3594   -45852.926   0.15000052 
   13800    291.36556   -107.96791    132122.31   -42278.282    3556.5295   -45834.811   0.14852493 
   14000    285.81734   -92.872236    132098.21   -42291.424    3488.8057    -45780.23   0.14816796 
   14200    288.69215    89.199664    131875.86   -42309.601    3523.8968   -45833.498    0.1487061 
   14400     290.8966     34.67797    131928.51   -42339.601    3550.8053   -45890.406   0.14552299 
   14600    286.32226   -104.09411    132118.04   -42333.675    3494.9689   -45828.643   0.14784851 
   14800    288.12226    -49.30127    132049.66   -42311.741    3516.9404   -45828.682   0.14921086 
   15000    289.45016    95.441769    131900.58   -42362.984    3533.1494   -45896.134   0.14599916 
   15200    285.39236    -3.944674    131996.17   -42418.276    3483.6182   -45901.894   0.14681455 
   15400    286.18865    -83.40039    132089.39   -42422.515    3493.3381   -45915.853   0.13917655 
   15600    289.15002    68.963135    131934.71   -42465.661    3529.4857   -45995.147   0.13684147 
   15800    288.80547    92.019424    131868.12   -42411.361    3525.2801   -45936.641   0.14578901 
   16000      287.507   -75.780193    132042.08   -42399.312    3509.4304   -45908.742   0.14765815 
   16200    282.41571   -77.176071       132097   -42350.737     3447.284   -45798.021   0.14815175 
   16400    292.32523    45.944816    131956.55   -42348.611    3568.2437   -45916.854   0.14149693 
   16600    288.78988    23.194497    131920.81   -42365.808    3525.0898   -45890.897   0.14568007 
   16800    288.89211   -8.4847622    132049.43   -42323.094    3526.3377   -45849.431   0.14381199 
   17000    288.72985   -81.247611     132068.5   -42345.587     3524.357   -45869.944   0.14860431 
   17200    288.15858    26.042713    131919.82   -42329.999    3517.3838   -45847.383   0.14884932 
   17400    289.61852    29.021128     131920.5   -42372.381    3535.2044   -45907.585   0.14817172 
   17600    284.82854   -84.678292    132026.88   -42407.935    3476.7359   -45884.671   0.14279872 
   17800    283.82282   -32.874876    131964.48   -42424.618    3464.4598   -45889.078   0.14380552 
   18000    291.29116    78.759318    131870.67    -42454.42    3555.6214   -46010.042   0.13915384 
   18200    284.80724   -11.935876    131973.46   -42485.336     3476.476   -45961.812   0.14160749 
   18400    278.50611   -103.73835     132054.6   -42498.518    3399.5618    -45898.08      0.14745 
   18600    281.83934    56.160739    131914.73    -42459.88    3440.2485   -45900.128   0.14305016 
   18800    285.61209     91.70015    131887.73   -42402.175    3486.3003   -45888.475    0.1448475 
   19000    288.37142   -42.186513    132085.41   -42417.499    3519.9819   -45937.481   0.14094042 
   19200    288.60878    1.8409392    132077.86    -42397.27    3522.8792   -45920.149   0.13828517 
   19400     282.1658    104.05867    131883.94   -42395.041    3444.2334   -45839.274   0.14918954 
   19600    287.31445    111.71434    131942.42   -42417.793    3507.0801   -45924.873   0.13945844 
   19800    288.18381   -119.71661    132172.82   -42411.093    3517.6918   -45928.785   0.14171539 
   20000    281.87394    -58.95648    132015.54    -42408.64    3440.6709   -45849.311   0.14641145 
   20200     287.7626    206.01004    131749.16   -42435.109    3512.5503   -45947.659   0.14369593 
   20400    289.88266    15.816352    131982.88   -42412.576    3538.4287   -45951.005   0.14759158 
   20600    281.62176   -261.58249    132232.52   -42414.379    3437.5926   -45851.972   0.15121733 
   20800    283.36733    21.909784    131887.25   -42401.221    3458.8998    -45860.12   0.15217391 
   21000    292.34866    266.62956    131681.28   -42404.322    3568.5297   -45972.851   0.14450067 
   21200    285.79555    -146.8091    132132.91   -42393.482    3488.5397   -45882.022   0.14656112 
   21400    288.26145   -279.14124    132260.81   -42388.632    3518.6395   -45907.272   0.15017178 
   21600    286.88592      169.044    131742.01   -42346.063    3501.8493   -45847.913   0.15281126 
   21800    290.74207    219.14366    131756.29   -42304.805    3548.9189   -45853.724   0.14977684 
   22000    293.22539   -254.08518    132344.05   -42312.268    3579.2315   -45891.499   0.14108365 
   22200    291.90086    -134.6264    132213.48   -42270.606    3563.0637    -45833.67   0.14513565 
   22400    290.17604    317.45498    131673.93   -42249.571    3542.0097    -45791.58   0.15237481 
   22600    292.23218    81.132642    131949.15   -42255.964    3567.1079   -45823.072   0.14994246 
   22800     286.9322   -318.60591    132445.42   -42299.318    3502.4141   -45801.732   0.14909794 
   23000    286.02896   -7.8622991    132048.83   -42313.216    3491.3888   -45804.605   0.14234106 
   23200    291.53071    349.39512    131607.41   -42299.226    3558.5455   -45857.772   0.14734719 
   23400    288.89679   -37.156137    132106.08   -42313.697    3526.3948   -45840.092   0.14638735 
   23600    292.35232   -343.60429    132458.41   -42323.052    3568.5744   -45891.626   0.14564424 
   23800    293.79683    74.195586    131908.85   -42272.576    3586.2067   -45858.783   0.14898679 
   24000    288.10728    295.25863    131657.43   -42300.613    3516.7577   -45817.371   0.14839898 
   24200    291.66643   -155.02187    132221.11   -42291.178    3560.2021    -45851.38   0.14613464 
   24400    289.20945   -271.08846    132367.92   -42294.097    3530.2112   -45824.308    0.1480483 
   24600    293.13803    244.58536    131807.42   -42297.721    3578.1651   -45875.886    0.1442563 
   24800    293.03096    244.50953    131827.14   -42225.195    3576.8582   -45802.053   0.15023117 
   25000    289.20552   -315.23462     132383.7   -42236.569    3530.1632   -45766.732   0.15595589 
   25200    288.57737   -148.97367    132223.88   -42261.079    3522.4958   -45783.575   0.14892436 
   25400     294.3824    273.06143    131715.95   -42314.232    3593.3544   -45907.587   0.14506643 
   25600    289.43851    76.690172    131933.07   -42338.106    3533.0072   -45871.113   0.14662634 
   25800    289.87446   -246.09698    132332.88   -42309.354    3538.3285   -45847.682   0.15259834 
   26000    290.38807   -19.293932    132078.21   -42293.496    3544.5979   -45838.094   0.15088855 
   26200    289.91825    243.47095    131781.45   -42323.015    3538.8631   -45861.879   0.14553218 
   26400    288.48524   -10.386232    132042.15   -42345.547    3521.3712   -45866.918   0.14447256 
   26600     290.5514   -167.01255    132259.28    -42352.96    3546.5916   -45899.552   0.14371769 
   26800    295.35598   -12.550322    131998.52   -42357.528    3605.2384   -45962.767   0.14871345 
   27000    290.33611     154.0096    131832.61   -42358.979    3543.9637   -45902.943   0.14719356 
   27200    288.86549   -29.762803    132086.85   -42354.664    3526.0126   -45880.677   0.14379094 
   27400    289.00938    -135.3762     132200.5   -42324.379    3527.7691   -45852.148   0.14850801 
   27600    290.17253    48.543183    131969.11   -42333.669    3541.9669   -45875.636   0.14712691 
   27800    285.62688    111.24189    131903.91   -42319.002    3486.4808   -45805.483   0.14846648 
   28000    288.27365   -99.974482     132117.6   -42312.574    3518.7884   -45831.362   0.15133278 
   28200     288.3875    -53.49387    132108.04   -42325.652    3520.1781    -45845.83   0.14923642 
   28400    283.59906    85.904894    131917.28   -42324.963    3461.7284   -45786.692   0.15596189 
   28600    283.22121    16.357855    131972.69   -42341.236    3457.1162   -45798.353   0.15116721 
   28800     288.4742   -60.062872    132130.82   -42353.958    3521.2365   -45875.194   0.14041766 
   29000    284.05103     -62.8235    132024.36   -42395.088    3467.2453   -45862.333   0.15127264 
   29200    290.87246    142.55837    131878.87   -42429.363    3550.5106   -45979.874   0.14537141 
   29400     289.8996    4.8215719    132023.01   -42429.669    3538.6354   -45968.304   0.14823115 
   29600    281.85513   -68.364417    132156.64   -42392.249    3440.4413    -45832.69    0.1489724 
   29800    290.72329     14.09264    132045.55   -42320.141    3548.6897    -45868.83   0.14419283 
   30000    289.53951    104.06609    131936.09   -42307.811      3534.24   -45842.051   0.14918724 
   30200    290.77099   -34.923666    132102.82   -42320.386     3549.272   -45869.658    0.1467141 
   30400    289.97295   -76.416819    132168.14   -42371.692    3539.5307   -45911.223   0.14242069 
   30600    295.31581    74.092017    131958.72   -42318.181     3604.748   -45922.929   0.14913242 
   30800    287.51646    103.48402    131934.44   -42284.051    3509.5459   -45793.597   0.15027482 
   31000     293.4464    -121.1266       132190   -42275.827    3581.9292   -45857.757   0.15082561 
   31200    293.95732    -108.1893    132178.42   -42278.662    3588.1656   -45866.827   0.14755548 
   31400    296.34606    179.20322    131917.32   -42274.493    3617.3237   -45891.817   0.14218203 
   31600    288.44721    61.062576    131967.03   -42332.929     3520.907   -45853.836   0.15184804 
   31800    290.11674   -182.81412    132253.38   -42301.663    3541.2859   -45842.949   0.15017809 
   32000     288.4161   -75.758418    132120.23   -42275.564    3520.5272   -45796.092   0.15036563 
   32200    292.46669    248.53569    131746.04   -42303.834    3569.9705   -45873.804   0.14701714 
   32400    289.85985    76.178644    131978.52   -42305.297    3538.1503   -45843.447   0.15155647 
   32600    292.10101   -361.38359    132466.07   -42293.873    3565.5068    -45859.38   0.15723588 
   32800    296.10718    36.778232    132063.37   -42285.466    3614.4077   -45899.874    0.1447299 
   33000    293.61429     435.2847    131542.57    -42276.15    3583.9785   -45860.129    0.1503885 
   33200    289.10687   -78.554836    132139.34   -42277.209     3528.959   -45806.168   0.15088888 
   33400    289.95971    -438.8442    132578.41   -42235.061    3539.3692    -45774.43   0.15790189 
   33600    294.79726    202.59435    131844.84   -42172.814    3598.4183   -45771.233   0.15539748 
   33800    298.72216     452.4805    131597.74   -42202.875    3646.3273   -45849.202    0.1431752 
   34000     289.7335   -296.43021    132393.19   -42239.564     3536.608   -45776.172   0.14807699 
   34200    294.86518   -376.07054    132451.86   -42277.261    3599.2474   -45876.508    0.1512928 
   34400    288.31939    318.18738    131644.73   -42330.808    3519.3467   -45850.154   0.15240986 
   34600    285.66551      278.393    131740.49   -42295.381    3486.9524   -45782.333   0.15056155 
   34800    290.13256    -381.7042    132465.46   -42333.981    3541.4791    -45875.46   0.14898128 
   35000    287.04466   -153.12309    132221.83   -42366.607    3503.7868   -45870.394   0.14592332 
   35200     289.2183    374.90198    131588.47   -42359.732    3530.3192   -45890.051   0.14577055 
   35400    288.93219    85.761215    131938.99   -42331.471    3526.8268   -45858.298   0.14660754 
   35600    290.50192   -352.86137    132448.41   -42322.861    3545.9876   -45868.848   0.15119431 
   35800    293.40797    31.312068    132046.52   -42323.453      3581.46   -45904.913   0.14810665 
   36000    282.54604    247.22404     131712.4   -42321.602    3448.8748   -45770.477   0.15496375 
   36200    281.04842   -119.71208    132162.08   -42336.036    3430.5943    -45766.63    0.1465201 
   36400    291.40952   -229.44319    132356.03   -42359.437    3557.0662   -45916.503   0.13730157 
   36600    289.88449    114.59223    131901.56    -42334.91     3538.451   -45873.361   0.14754233 
   36800    286.42748    217.61624    131805.63    -42375.04    3496.2533   -45871.293   0.15232803 
   37000    286.86871   -153.33552    132199.59   -42364.792    3501.6391   -45866.432   0.15185085 
   37200    292.87349   -139.31739    132192.93   -42327.434     3574.936    -45902.37    0.1451574 
   37400    296.42944    160.98519    131853.58   -42318.983    3618.3413   -45937.324   0.14101896 
   37600    289.19337    84.450654    131936.87   -42344.085    3530.0149   -45874.099   0.14549873 
   37800    285.54092   -185.90239    132250.38   -42309.474    3485.4316   -45794.905   0.14983869 
   38000    287.15098   -25.258183    132108.34   -42359.194    3505.0847   -45864.279   0.14538333 
   38200    288.72308     199.5235    131830.39   -42353.836    3524.2744    -45878.11   0.14543138 
   38400    288.54742    50.723638    132007.37    -42321.49    3522.1301    -45843.62   0.14221996 
   38600    286.28908   -196.07907     132223.2   -42317.948    3494.5639   -45812.512   0.14810912 
   38800    291.20961    44.790847    132021.92   -42365.961    3554.6259   -45920.587   0.14067318 
   39000    291.44198    134.80392    131860.62   -42391.318    3557.4624    -45948.78   0.14463147 
   39200    285.88078   -46.320154    132062.66   -42409.865      3489.58   -45899.445   0.14671796 
   39400    288.78572   -80.565771    132167.69   -42399.011     3525.039    -45924.05   0.13862464 
   39600     283.9366    23.495309    131948.68   -42464.127    3465.8485   -45929.975   0.13831149 
   39800    284.23183    133.44795    131846.65   -42452.357    3469.4522   -45921.809     0.139475 
   40000    283.15391   -102.90599    132095.77   -42467.821    3456.2947   -45924.115   0.14641416 
   40200     285.7522   -113.73296    132170.01   -42445.671    3488.0106   -45933.682    0.1449309 
   40400    289.81258    111.45324    131934.57   -42435.518    3537.5732   -45973.091   0.13700211 
   40600    278.59298    78.902534    131929.67   -42463.929    3400.6222   -45864.551   0.13839799 
   40800    285.17448   -126.03271    132177.04   -42478.122    3480.9587   -45959.081   0.13824074 
   41000    285.71449   -79.160942    132133.19   -42441.936    3487.5503   -45929.486   0.14460664 
   41200    280.37662    145.84476    131870.66   -42465.405    3422.3939   -45887.799   0.14661095 
   41400    286.30394    56.211503    131946.75   -42439.487    3494.7454   -45934.233   0.14463818 
   41600    286.74949   -170.80553    132208.15   -42432.389    3500.1839   -45932.572   0.14149034 
   41800    283.57195    -38.92362    132063.42       -42428    3461.3976   -45889.397   0.14300818 
   42000    288.13268      158.256    131827.37   -42407.394    3517.0677   -45924.462   0.14206379 
   42200    288.03665   -28.065927    132024.37   -42429.391    3515.8955   -45945.286   0.14617923 
   42400    284.67578   -215.26287    132233.07   -42476.009    3474.8713   -45950.881   0.14522748 
   42600    281.66895    104.52221    131917.03    -42503.56    3438.1687   -45941.729   0.14326418 
   42800    279.08058    216.78145    131739.68   -42501.558    3406.5739   -45908.132    0.1431483 
   43000    284.18998   -134.39569    132177.79   -42461.954    3468.9414   -45930.895   0.13750846 
   43200    283.43077   -223.10865    132295.22   -42465.845    3459.6742   -45925.519   0.13680173 
   43400    285.16173    247.05322    131690.88   -42453.203     3480.803   -45934.006   0.14624683 
   43600    282.55681    244.11636    131695.57   -42452.915    3449.0063   -45901.921   0.14611892 
   43800    283.93103    -356.4987    132395.94   -42421.269    3465.7806    -45887.05   0.14929977 
   44000    281.76001   -233.60352     132232.9    -42438.26    3439.2802   -45877.541   0.14253775 
   44200    285.49817    435.96975    131468.22   -42491.909    3484.9097   -45976.819   0.13905242 
   44400    283.09617     129.9196    131820.31   -42473.741    3455.5899   -45929.331   0.14709813 
   44600    284.95022   -482.17909    132568.77   -42403.295    3478.2212   -45881.516   0.14596446 
   44800     287.0775   -31.363716    132057.31   -42369.813    3504.1878   -45874.001   0.14793702 
   45000    289.82247    447.67367    131473.15   -42396.691     3537.694   -45934.385   0.14564822 
   45200    287.81799   -56.922645    132081.81    -42416.24    3513.2265   -45929.467   0.14251916 
   45400    284.94526   -450.52875    132491.58   -42464.046    3478.1608   -45942.206   0.14601848 
   45600    288.33763    190.15811    131808.57   -42450.003    3519.5694   -45969.572   0.13972972 
   45800    285.27602    391.75528    131600.52   -42422.221    3482.1981    -45904.42   0.14490225 
   46000     287.9951   -189.48182    132314.54   -42419.897    3515.3883   -45935.285    0.1430215 
   46200    281.23711   -308.09978    132363.02   -42442.907    3432.8975   -45875.804   0.14111608 
   46400    283.94787    248.38225    131692.53   -42430.404    3465.9862    -45896.39   0.14643695 
   46600    286.63563    193.27464    131772.35   -42437.028    3498.7941   -45935.822   0.14234022 
   46800    289.82022   -252.41343    132340.13   -42399.625    3537.6665   -45937.291   0.14370382 
   47000    288.80256   -104.11126    132171.51   -42381.117    3525.2445   -45906.362   0.14388638 
   47200    284.90077    225.92199     131734.7   -42355.353    3477.6176    -45832.97   0.14011363 
   47400    286.18219    27.288061    132005.07   -42286.291    3493.2591    -45779.55   0.14566604 
   47600    286.52393   -274.56874       132371   -42260.988    3497.4307   -45758.419   0.14908979 
   47800    293.11841    1.2857817    132080.29   -42232.201    3577.9256   -45810.126     0.148141 
   48000    290.29896    200.91696     131813.3   -42238.156    3543.5102   -45781.667   0.15187222 
   48200    294.09648   -37.177461    132114.64   -42241.155    3589.8643   -45831.019   0.14514737 
   48400    294.50262   -212.70816    132309.39   -42222.332    3594.8218   -45817.154   0.14700672 
   48600    291.85444    71.196496    131982.61   -42279.491     3562.497   -45841.988   0.14278489 
   48800    284.05562    197.02968    131850.48   -42224.539    3467.3014    -45691.84   0.14884568 
   49000    294.48039   -117.69632    132222.38   -42202.303    3594.5505   -45796.854    0.1527639 
   49200    288.61535   -185.46797    132263.79   -42237.436    3522.9593   -45760.395   0.15197115 
   49400    293.20625    152.98277    131881.16   -42249.554    3578.9978   -45828.552   0.14582479 
   49600    295.95785    165.10323    131912.23    -42272.05    3612.5849   -45884.635   0.13820313 
   49800    287.83421   -195.28728    132271.17   -42250.627    3513.4245   -45764.051   0.14676182 
   50000     290.2423   -63.629353    132149.96   -42248.719    3542.8186   -45791.537   0.15249077 
   50200    292.25589    173.35685    131817.83   -42285.583    3567.3973   -45852.981   0.15174483 
   50400    285.89195    26.790519    132005.49   -42283.975    3489.7164   -45773.692     0.148892 
   50600    295.02057   -172.99455    132289.29   -42304.634    3601.1442   -45905.778   0.13658984 
   50800    285.13403    24.316973    132021.71   -42311.788     3480.465   -45792.253   0.14417767 
   51000    295.12628    199.23919     131790.4   -42261.234    3602.4345   -45863.669   0.15149298 
   51200    292.92992   -65.086873    132095.97   -42283.882    3575.6248   -45859.507   0.14843956 
   51400    289.90169   -214.61823    132257.31   -42246.231    3538.6609   -45784.892   0.15033326 
   51600    290.40494    121.26234    131930.74   -42248.084    3544.8038   -45792.888   0.14451091 
   51800    291.68234     128.8139    131855.98   -42248.192    3560.3963   -45808.588   0.15025313 
   52000     297.5537   -96.949501    132206.79   -42201.882    3632.0646   -45833.947   0.14690258 
   52200    296.33239   -141.93671    132209.37   -42171.618    3617.1567   -45788.775   0.14885415 
   52400    295.44003    226.29631    131833.92   -42159.459    3606.2642   -45765.724   0.14819472 
   52600    293.88156    100.33343    131976.22    -42198.04    3587.2409   -45785.281   0.14877627 
   52800    295.23244   -238.41935    132363.86   -42217.609    3603.7303   -45821.339   0.14690148 
   53000    295.95655    2.5863071     132111.1    -42224.21    3612.5691   -45836.779   0.14318974 
   53200    297.52142    282.58797    131768.77   -42234.326    3631.6706   -45865.997    0.1439296 
   53400    292.23995   -59.741145    132129.73   -42256.171    3567.2028   -45823.374   0.14995529 
   53600    290.61611   -264.32755       132385   -42288.399    3547.3815   -45835.781   0.14701412 
   53800    290.12824    81.171162    131964.86   -42274.372    3541.4263   -45815.798   0.14301797 
   54000    297.01353    253.14262    131794.14    -42266.69    3625.4711   -45892.161   0.13734837 
   54200    292.63846    -160.9965    132292.93   -42273.889    3572.0671   -45845.956   0.14244657 
   54400    287.89518   -224.03741    132333.53    -42297.38    3514.1687   -45811.549   0.14705998 
   54600    293.52062    254.43176    131777.72   -42292.754    3582.8351   -45875.589   0.14520472 
   54800    293.13584    176.72804    131875.66   -42240.079    3578.1383   -45818.217   0.14230785 
   55000    294.55131   -323.21254    132483.29   -42241.304    3595.4162    -45836.72   0.14163709 
   55200    288.14966   -134.91219    132221.95   -42273.047     3517.275   -45790.322   0.14492071 
   55400     291.7347    459.67201    131562.02    -42292.77    3561.0354   -45853.805   0.14400309 
   55600    288.55644    10.134375    132004.89   -42327.633    3522.2403   -45849.873   0.14366364 
   55800    288.87093   -486.28641    132640.39   -42297.908     3526.079   -45823.987   0.14487627 
   56000    292.48214    122.53689    131950.74    -42284.14     3570.159   -45854.299   0.14116135 
   56200    287.22101    581.71626     131357.3   -42307.215    3505.9395   -45813.155   0.14707447 
   56400    289.54171   -225.21622    132276.04   -42315.456    3534.2669   -45849.723    0.1456499 
   56600    288.26389   -586.77328    132671.04    -42316.51    3518.6693   -45835.179   0.14817826 
   56800    294.04717    371.77501     131626.6   -42275.851    3589.2624   -45865.114    0.1467249 
   57000    292.31956    484.52431    131487.37     -42271.3    3568.1745   -45839.475   0.14757852 
   57200    285.50274   -401.22093     132533.8   -42306.844    3484.9655    -45791.81    0.1457743 
   57400    288.81327   -345.69709    132453.79    -42327.46    3525.3752   -45852.835    0.1439508 
   57600    290.60709    435.04279    131556.33   -42293.254    3547.2714   -45840.525   0.14427621 
   57800    297.02019    233.61491     131796.1   -42310.016    3625.5523   -45935.569   0.14573293 
   58000    290.71409   -378.14508    132479.79   -42322.034    3548.5775   -45870.611   0.14542448 
   58200    285.64504   -45.237667    132137.41   -42360.014    3486.7025   -45846.717   0.13961764 
   58400    286.78774    347.23917    131633.33   -42353.615    3500.6508   -45854.266   0.14126512 
   58600    294.09797    18.725745    132009.89   -42337.142    3589.8825   -45927.025   0.14336165 
   58800    281.37128   -297.14379    132370.94   -42365.814    3434.5353   -45800.349   0.14809905 
   59000    288.18613    35.880522    131993.25   -42390.935    3517.7201   -45908.655   0.14331911 
   59200    289.56588    259.33822    131752.75   -42391.316    3534.5619   -45925.878   0.13918906 
   59400    291.12304   -71.063884    132136.82   -42338.897    3553.5693   -45892.467   0.14169464 
   59600    295.21419   -158.19182    132315.23   -42335.748    3603.5076   -45939.255   0.13990361 
   59800    290.80793    128.14491    131927.67   -42321.835     3549.723   -45871.558   0.14192869 
   60000    288.24426    188.70646    131815.54    -42311.74    3518.4297    -45830.17   0.14526612 
   60200    289.63062   -124.72406    132209.09   -42286.753    3535.3522   -45822.105   0.14520904 
   60400    284.51525   -228.95977     132250.9   -42256.653    3472.9119   -45729.564   0.15506744 
   60600    288.99365    112.74975    131861.27   -42294.544     3527.577   -45822.121   0.14691224 
   60800    296.67667    176.07944    131899.57   -42238.949    3621.3592   -45860.309   0.13991952 
   61000    292.84437   -189.19437    132286.06   -42277.644    3574.5806   -45852.225   0.14489621 
   61200    288.51596   -99.070258    132180.23   -42281.321    3521.7461   -45803.067   0.14569011 
   61400    292.17985    171.22034    131829.52   -42280.185    3566.4691   -45846.654   0.14713879 
   61600    295.32249    63.019662    131984.36   -42273.251    3604.8295    -45878.08   0.14679762 
   61800    292.56181   -184.90949    132294.68   -42273.116    3571.1315   -45844.248   0.14299785 
   62000    291.59586   -12.639578    132071.54   -42289.038    3559.3407   -45848.379   0.14509906 
   62200    292.41309    209.15982    131783.06   -42293.695    3569.3162   -45863.011   0.14457414 
   62400    291.39331   -18.992629    132068.26   -42262.974    3556.8683   -45819.842   0.14567952 
   62600    290.22888   -213.93602    132326.85   -42284.871    3542.6548   -45827.525   0.14630805 
   62800    288.91727    32.753554    132025.11   -42255.968    3526.6447   -45782.612   0.14862097 
   63000    291.19797    206.65004    131850.59   -42231.498    3554.4839   -45785.982   0.14603378 
   63200    291.39785   -93.845693    132198.45   -42237.126    3556.9237   -45794.049    0.1441467 
   63400    297.70486   -150.34182     132310.6   -42197.175    3633.9097   -45831.084   0.13930598 
   63600    295.66276    109.08292    131959.97   -42177.752     3608.983   -45786.735   0.14653432 
   63800    292.23784    112.12342    131912.65   -42203.422    3567.1769   -45770.599   0.14974374 
   64000    293.17345   -139.87595    132236.11   -42208.157    3578.5975   -45786.754   0.14524316 
   64200    293.64175   -103.87171    132189.28   -42213.152    3584.3137   -45797.465   0.14611792 
   64400    298.51542    210.95411    131876.49   -42197.308    3643.8037   -45841.111    0.1434299 
   64600    289.64591    5.9833506    131998.05   -42247.761    3535.5389   -45783.299   0.14831943 
   64800    291.08943   -198.91788    132294.83   -42259.509     3553.159   -45812.668   0.14541282 
   65000    291.52535   -11.507653    132093.02   -42255.708      3558.48   -45814.188   0.14290312 
   65200     285.0981    228.30193    131816.85   -42277.153    3480.0264   -45757.179   0.14817803 
   65400     291.8861   -4.1300054     132076.3   -42297.551    3562.8835   -45860.434   0.14188633 
   65600    290.26932   -137.19332    132266.86   -42323.231    3543.1484    -45866.38   0.14215827 
   65800    290.12333    63.207428    131962.57   -42296.934    3541.3664     -45838.3   0.14722944 
   66000    289.12463     152.7412    131845.38   -42293.639    3529.1759   -45822.815   0.14663668 
   66200    293.61946   -104.76376     132191.4   -42325.846    3584.0416   -45909.887   0.14381702 
   66400    295.02634    -113.2661    132232.78   -42320.089    3601.2146   -45921.304   0.13892417 
   66600    289.36779    151.93972    131883.38   -42335.326    3532.1439    -45867.47    0.1431608 
   66800    286.30742    120.22368    131931.69   -42311.313    3494.7878     -45806.1   0.14824289 
   67000    288.52832   -143.51643    132265.05   -42330.373     3521.897    -45852.27   0.14550544 
   67200    285.29546   -102.72301    132136.05   -42348.757    3482.4354   -45831.193   0.15066242 
   67400    286.27536    225.48793    131800.02   -42380.148    3494.3965   -45874.545    0.1413683 
   67600    291.96881    40.618077    132012.44   -42340.234    3563.8931   -45904.127   0.13994821 
   67800    291.94847   -210.01576    132320.14   -42290.214    3563.6448   -45853.859   0.14631749 
   68000    289.81689   -20.057779    132063.89   -42286.922    3537.6258   -45824.548   0.14221409 
   68200     290.0798    235.44959    131803.31    -42355.92    3540.8351   -45896.755   0.13796162 
   68400    290.76399   -21.519795    132114.11   -42303.171    3549.1865   -45852.357   0.14037718 
   68600    290.40927   -239.66212    132312.23   -42288.968    3544.8567   -45833.824   0.14439776 
   68800    294.87347    89.956063    131954.61   -42259.548    3599.3485   -45858.897   0.14641358 
   69000    291.01974    160.27912    131841.14   -42303.182    3552.3083    -45855.49    0.1434635 
   69200    289.68178    -125.9539    132217.05    -42308.26    3535.9766   -45844.237   0.13965921 
   69400     287.6246   -159.72202    132237.72   -42344.115    3510.8658   -45854.981   0.14718894 
   69600    288.95308    205.47745    131821.44   -42355.845    3527.0819   -45882.927   0.14298722 
   69800    293.11709    178.32723    131874.53   -42325.846    3577.9095   -45903.756   0.14139244 
   70000    291.39842   -255.74418    132336.87    -42286.27    3556.9307   -45843.201   0.14609748 
   70200    284.85249   -112.78859    132175.63   -42282.583    3477.0284   -45759.611   0.14901614 
   70400    291.34725    283.78936    131722.84   -42289.239     3556.306   -45845.545   0.15056647 
   70600    290.58239    75.473272    131993.41   -42264.046    3546.9699   -45811.016   0.14605897 
   70800    288.50354    -323.9038    132405.47   -42283.473    3521.5946   -45805.067   0.14606423 
   71000    288.55206    49.130628    131951.41   -42323.985    3522.1869   -45846.172   0.14794291 
   71200    285.07331    394.60901    131543.79   -42327.699    3479.7237   -45807.422   0.15088964 
   71400    290.27775   -108.08234    132143.63   -42301.462    3543.2514   -45844.713   0.15133652 
   71600    290.27832   -392.80222    132482.46   -42278.796    3543.2582   -45822.055   0.14849466 
   71800    292.70258    175.38241       131790   -42292.175    3572.8498   -45865.025   0.14656675 
   72000    285.82121    349.76032     131613.4   -42322.674    3488.8529   -45811.527   0.14779288 
   72200     284.0325   -248.04604    132376.63   -42354.285    3467.0192   -45821.304   0.14335212 
   72400     285.4507   -286.15025    132391.51   -42330.269    3484.3304   -45814.599   0.14715285 
   72600    288.76949    365.56634    131643.26   -42307.694    3524.8409   -45832.534   0.14426942 
   72800    291.27931    187.45389    131801.97   -42375.424    3555.4768   -45930.901   0.14175562 
   73000    283.87927    -354.7113    132458.57   -42379.213    3465.1488   -45844.362   0.14573523 
   73200    291.16578   -136.50867     132184.5    -42399.63     3554.091   -45953.721   0.14312154 
   73400    283.93878    310.11292    131614.94   -42378.787    3465.8753   -45844.662     0.150902 
   73600    291.84203    64.135991    131949.66   -42366.484    3562.3455    -45928.83   0.14480854 
   73800    288.75358   -306.54664    132370.54   -42365.829    3524.6466   -45890.475   0.14749855 
   74000    289.65524  -0.79738804    131980.23   -42400.864    3535.6527   -45936.516   0.14785139 
   74200    284.27098    261.37159    131688.91   -42406.503    3469.9302   -45876.433   0.14733316 
   74400    289.87828   -38.672579    132039.32   -42377.257    3538.3752   -45915.633   0.15271069 
   74600    282.97139   -180.71672    132212.95   -42385.212    3454.0668   -45839.279   0.15286718 
   74800    285.39676    55.952008     131914.6   -42397.808    3483.6719    -45881.48   0.14659232 
   75000     282.2964     131.7842    131823.22   -42367.064    3445.8277   -45812.892   0.15037753 
   75200    288.58747   -57.934184    132117.26   -42346.006     3522.619   -45868.625   0.14384339 
   75400    287.72371   -130.53044    132184.12   -42342.118    3512.0756   -45854.194   0.14940825 
   75600    288.86151    62.860558    131933.36   -42316.099    3525.9641   -45842.063   0.14719292 
   75800    288.57639    124.83628    131920.32   -42290.388    3522.4838   -45812.872   0.14685353 
   76000    291.19284   -109.96024    132163.28   -42286.349    3554.4213    -45840.77    0.1473195 
   76200    292.73012   -92.524856    132134.84   -42308.859     3573.186   -45882.045   0.13997679 
   76400    291.50397    175.90225    131906.37   -42281.672    3558.2191   -45839.891   0.14339696 
   76600    289.82325    24.836119    131981.31   -42270.572    3537.7035   -45808.275   0.14898794 
   76800    294.42386   -133.39398    132161.14   -42265.158    3593.8604   -45859.018   0.14692815 
   77000    290.30326   -12.124978    132054.25   -42274.019    3543.5627   -45817.581   0.14580532 
   77200    287.02209    78.327997    131927.46   -42318.696    3503.5114   -45822.208   0.14261321 
   77400    294.78117    26.220272    132032.53     -42296.9     3598.222   -45895.122   0.14265835 
   77600     291.6634   -61.538053    132113.03   -42323.464    3560.1652    -45883.63   0.14774817 
   77800    287.34269   -5.1670456    131981.22    -42331.96    3507.4248   -45839.385   0.15138641 
   78000    287.28525    110.70583    131925.36   -42334.275    3506.7236   -45840.999    0.1490505 
   78200    289.01259   -28.746776    132060.86    -42323.98    3527.8082   -45851.788   0.14273274 
   78400    285.02891   -79.476205    132092.13   -42350.354    3479.1818   -45829.536   0.14771677 
   78600    289.54337    55.497742    131932.81   -42358.063    3534.2872    -45892.35    0.1504288 
   78800    290.02397    92.217428     131926.6   -42337.064    3540.1535   -45877.218   0.14931642 
   79000    289.75448   -60.328494    132136.26   -42332.957    3536.8641   -45869.821    0.1485282 
   79200     287.1541   -96.144439    132133.39   -42336.971    3505.1227   -45842.093   0.14619606 
   79400    288.95142     96.66334    131918.19   -42292.669    3527.0616   -45819.731   0.14406101 
   79600    290.03251    91.727601    131967.98   -42291.016    3540.2578   -45831.274   0.14518109 
   79800    292.76304   -151.38652    132201.86   -42310.726    3573.5878   -45884.314   0.14645269 
   80000    289.13935    -33.95706    132070.99   -42289.772    3529.3555   -45819.128   0.14707364 
   80200     296.5062    207.74016    131847.44   -42247.265    3619.2783   -45866.544    0.1420249 
   80400    287.62284   -1.8668596    132087.39   -42233.873    3510.8443   -45744.717   0.14520686 
   80600    293.41166   -191.31378    132277.37   -42252.779    3581.5051   -45834.284   0.14229929 
   80800    295.76088    67.594416    131978.45   -42204.239    3610.1807   -45814.419   0.14663268 
   81000    292.46389    153.87808     131868.2   -42257.255    3569.9363   -45827.191   0.14688534 
   81200       292.05   -100.08036    132220.63   -42238.098    3564.8842   -45802.983   0.14609254 
   81400    297.74989   -169.78806     132306.4   -42209.906    3634.4593   -45844.366    0.1460126 
   81600    291.58484    136.70643    131950.07   -42226.961    3559.2062   -45786.168   0.14369976 
   81800    294.71473    136.97645    131886.48    -42234.69     3597.411   -45832.101   0.14613027 
   82000    292.41933   -166.91374    132246.86   -42206.605    3569.3923   -45775.998   0.15245473 
   82200    290.95226   -139.22544    132245.87     -42249.5    3551.4846   -45800.984   0.15150833 
   82400    287.11932    228.19304    131834.92   -42256.883    3504.6982   -45761.581   0.14864692 
   82600    285.74378    99.952682    131890.51   -42284.011    3487.9078   -45771.919   0.14724896 
   82800    293.71182   -206.64691       132302   -42323.256     3585.169   -45908.425   0.14348183 
   83000    289.59238    -66.73489    132158.82   -42310.097    3534.8854   -45844.982   0.14720702 
   83200    292.71306    268.80524    131771.32   -42325.518    3572.9777   -45898.495   0.14563572 
   83400    289.65281    60.409018    132013.63   -42351.947     3535.623    -45887.57   0.14087713 
   83600    290.60519   -266.24315    132364.42   -42363.626    3547.2482   -45910.874   0.13940423 
   83800    289.45599    12.827011    132049.86   -42311.725    3533.2205   -45844.945   0.14394904 
   84000    291.02582    263.07501    131751.38   -42338.571    3552.3825   -45890.954   0.14317955 
   84200    294.00121   -17.018377    132111.72   -42323.215    3588.7014   -45911.916   0.14310889 
   84400    290.31162   -247.47834     132380.5   -42339.553    3543.6648   -45883.218   0.14177896 
   84600    288.73577     71.78503    131961.97   -42330.109    3524.4292   -45854.538   0.14039332 
   84800    289.76364    279.92356    131759.63   -42347.503    3536.9758   -45884.479   0.14286677 
   85000    294.17481   -174.98948    132228.92    -42308.21    3590.8204   -45899.031   0.14495732 
   85200    289.58377   -240.88528    132298.64   -42277.046    3534.7803   -45811.826    0.1532997 
   85400    291.12195    220.08924    131831.07   -42258.373    3553.5559   -45811.929    0.1471126 
   85600    291.19437    110.51231    131925.13   -42265.998      3554.44   -45820.438   0.14844952 
   85800    292.68925   -238.09337    132357.42   -42269.687    3572.6871   -45842.374   0.14561638 
   86000    292.64131   -61.621604    132162.96   -42231.606    3572.1019   -45803.708   0.14901305 
   86200    290.22838    269.42182    131746.48   -42241.283    3542.6487   -45783.931   0.15257885 
   86400    290.89398    2.3969873     132018.8   -42240.783    3550.7733   -45791.556   0.15327637 
   86600    296.98807   -237.54189    132386.27   -42224.226    3625.1603   -45849.387   0.14613653 
   86800    294.74195  0.068064015    132056.17   -42263.027    3597.7432    -45860.77   0.14303026 
   87000    296.11725    307.27161    131737.82   -42279.432    3614.5306   -45893.962   0.14007652 
   87200    290.77399   -45.743666    132102.25    -42256.99    3549.3087   -45806.298   0.14884888 
   87400    293.30734   -224.37161    132339.23   -42227.847    3580.2318   -45808.078   0.14609773 
   87600    291.23971    85.064511    131943.93   -42276.068    3554.9935   -45831.062   0.14589853 
   87800    290.85567    225.61169    131814.76   -42290.984    3550.3057    -45841.29   0.14045966 
   88000    290.15534   -169.58782    132268.48   -42251.269    3541.7571   -45793.026   0.14117654 
   88200    287.65631   -224.93625    132321.94   -42275.458    3511.2529   -45786.711   0.14891677 
   88400    293.51277    195.28008     131828.5    -42263.76    3582.7393     -45846.5   0.14420682 
   88600     292.3787    185.32802     131857.2   -42283.399    3568.8963   -45852.296    0.1454791 
   88800    288.11336   -248.59115    132340.07   -42280.492    3516.8318   -45797.324   0.14724284 
   89000    291.42659    -92.97584    132231.62   -42294.311    3557.2745   -45851.585      0.14116 
   89200    291.65534    252.34439    131780.74   -42268.841    3560.0668   -45828.908   0.14549625 
   89400    294.66688    100.59137    131962.78   -42238.955    3596.8268   -45835.782   0.14537787 
   89600    285.84031   -286.70172    132366.45   -42265.632     3489.086   -45754.718    0.1536881 
   89800     291.3484   -38.663546    132129.33   -42286.303    3556.3202   -45842.624   0.14902142 
   90000    295.23869    278.06044    131811.21   -42300.124    3603.8066   -45903.931   0.14067519 
   90200    291.16394   -17.375974    132093.28   -42343.416    3554.0685   -45897.484   0.14185858 
   90400    287.73134   -183.00043    132283.32   -42368.251    3512.1688    -45880.42    0.1415621 
   90600    288.07892    86.642556    131972.04    -42353.71    3516.4115   -45870.122   0.14500111 
   90800    284.85067    139.93408    131897.67   -42368.796    3477.0061   -45845.802   0.14425796 
   91000    285.95123   -110.66104     132169.4   -42369.096      3490.44   -45859.536   0.13971384 
   91200    290.12359    -61.01112    132149.82   -42381.121    3541.3696    -45922.49   0.13676696 
   91400    287.90724     82.75313    131913.89   -42374.082    3514.3159   -45888.398   0.14003859 
   91600    285.56489    45.993853    131976.35   -42380.588    3485.7242   -45866.312   0.14117508 
   91800    286.66948    -105.2031    132168.03   -42353.786    3499.2072   -45852.993   0.14262157 
   92000    294.22077   -13.671951     132068.1   -42368.255    3591.3814   -45959.636   0.13780848 
   92200    286.32392    96.492909    131901.23   -42386.888    3494.9892   -45881.878   0.14059046 
   92400    292.75843    22.424616    132007.96   -42344.588    3573.5315    -45918.12   0.14121916 
   92600    292.03708   -44.075522     132150.4   -42396.813    3564.7264    -45961.54   0.13503838 
   92800    284.55571    46.224455    132011.75   -42371.536    3473.4057   -45844.942   0.14280644 
   93000    290.18383    148.26964    131933.07   -42305.738    3542.1049   -45847.843   0.14627603 
   93200    286.55367   -77.488028     132104.4   -42307.573    3497.7937   -45805.367   0.14947891 
   93400    288.44238   -80.691558     132118.8   -42307.255     3520.848   -45828.103   0.14874041 
   93600    291.32173    108.77488    131963.26   -42289.412    3555.9945   -45845.407   0.14386243 
   93800    284.84721   0.46105904    132017.64   -42289.035    3476.9639   -45765.998   0.15315279 
   94000    290.27535   -111.04937     132161.2    -42292.45     3543.222   -45835.672   0.15496251 
   94200    281.45615    5.2720106     132066.2   -42365.538    3435.5712   -45801.109   0.14851675 
   94400    285.69886    93.776401    131932.21   -42351.247    3487.3594   -45838.606   0.14628667 
   94600    286.23781    -5.473199    132057.91   -42346.187    3493.9381   -45840.125   0.14387109 
   94800    289.26087   -104.44006    132169.04   -42399.681    3530.8389    -45930.52   0.14299289 
   95000    281.11687   -9.6864063    132008.27   -42406.514    3431.4298   -45837.944   0.15101409 
   95200    289.27853      134.977     131915.2   -42407.643    3531.0545   -45938.698   0.13901187 
   95400    286.49867    -30.27141    132080.61   -42424.642    3497.1223   -45921.764   0.14202126 
   95600     292.0373   -89.809535    132111.02    -42384.17    3564.7291     -45948.9   0.14178823 
   95800    291.08489    84.782816    131948.26   -42350.642    3553.1036   -45903.746   0.13964984 
   96000    285.30106    25.065932    132001.66   -42347.042    3482.5037   -45829.546   0.14242376 
   96200    291.54501   -84.631695    132153.13   -42375.806      3558.72   -45934.526   0.14139389 
   96400    287.05956    -49.08704    132067.89   -42371.048    3503.9687   -45875.016   0.14531297 
   96600    291.63942     106.4394    131888.49   -42383.486    3559.8724   -45943.358   0.14360229 
   96800    287.15647    34.574444    131964.52    -42433.46    3505.1517   -45938.611   0.13830129 
   97000    282.74523   -72.136569     132118.5   -42418.492    3451.3063   -45869.798   0.14172704 
   97200    286.54828   -1.7249162    132019.58   -42408.981    3497.7278   -45906.709   0.14534348 
   97400    286.62817    146.92823    131868.74   -42367.342    3498.7031   -45866.045   0.15051146 
   97600     294.7155   -34.540992    132082.89    -42342.67    3597.4204    -45940.09   0.14696698 
   97800    288.13817   -168.15797    132246.39   -42337.249    3517.1347   -45854.384    0.1462438 
   98000    293.84659    88.769289     131970.3   -42311.233     3586.814   -45898.047   0.14189529 
   98200    288.23464    170.65308    131844.25   -42321.853    3518.3123   -45840.165   0.15229684 
   98400    292.89662   -105.88707    132212.86   -42256.317    3575.2183   -45831.535   0.14929827 
   98600    288.61181   -201.79356    132308.44    -42301.89    3522.9161   -45824.806   0.15168961 
   98800    294.76254     140.2581    131865.58   -42267.508    3597.9945   -45865.502   0.14868011 
   99000    288.53994    199.50069    131841.75   -42270.077    3522.0389   -45792.116   0.14915862 
   99200    293.07071   -224.82977    132288.67   -42335.502    3577.3433   -45912.845   0.14701192 
   99400    279.51722   -145.96722    132161.96   -42417.906    3411.9038    -45829.81   0.15170257 
   99600    285.01119    232.39144    131676.22   -42438.803    3478.9655   -45917.768   0.14775424 
   99800    283.25965    132.55132    131873.11   -42407.264    3457.5854   -45864.849    0.1451991 
  100000    285.16001    -269.1525    132355.16   -42412.839     3480.782   -45893.621   0.14346332 
  100200    286.81305   -42.847189    132046.64   -42375.099    3500.9598   -45876.059   0.14346048 
  100400    288.85607    316.09651    131634.95   -42355.123    3525.8977   -45881.021   0.14604831 
  100600    294.75654   -14.459172    132054.41   -42315.453    3597.9213   -45913.374   0.14861213 
  100800     288.4717   -351.28945    132428.58     -42343.4    3521.2059   -45864.606   0.15012166 
  101000    288.29257    69.197606    131937.28   -42335.393    3519.0194   -45854.413   0.14618902 
  101200    290.46321    339.21456    131661.81    -42302.99    3545.5151   -45848.505   0.14605822 
  101400     292.6772   -131.90354    132197.41    -42323.97      3572.54    -45896.51   0.14973427 
  101600    293.20855   -261.80313    132335.98   -42331.452    3579.0259   -45910.478   0.14848083 
  101800     288.7497    205.43963    131811.85   -42302.536    3524.5993   -45827.135   0.15199239 
  102000    288.09469    194.03497    131803.64   -42312.883    3516.6039   -45829.487   0.14802016 
  102200    288.74039    -211.9492    132322.98   -42296.127    3524.4857   -45820.613   0.14616992 
  102400      295.432   -140.31847    132235.24   -42247.099    3606.1663   -45853.265    0.1514815 
  102600    289.22519    239.11132    131768.25   -42249.828    3530.4033   -45780.231   0.15453241 
  102800    294.43335    110.23351    131935.48   -42268.932    3593.9763   -45862.908   0.15206834 
  103000    286.05011   -287.09698    132342.61    -42261.74    3491.6469   -45753.387   0.15216086 
  103200    288.25154   -25.180776    132106.69   -42244.162    3518.5185   -45762.681   0.14797283 
  103400    294.65111    276.37695    131778.99   -42274.001    3596.6344   -45870.635   0.14394156 
  103600    291.67001    2.9826167    132076.82   -42280.023    3560.2459   -45840.268   0.14749126 
  103800    293.19982   -199.58718    132324.14   -42276.806    3578.9194   -45855.725   0.14925762 
  104000      295.306    71.281994    132025.93   -42289.305    3604.6283   -45893.933   0.13995195 
  104200    294.31153    216.28852    131864.12   -42298.204    3592.4893   -45890.693   0.13779726 
  104400    292.97627   -57.135519    132149.55   -42319.047    3576.1906   -45895.237   0.13792944 
  104600    283.64758   -162.87128    132214.18   -42307.925    3462.3207   -45770.246   0.14954942 
  104800    291.02043    88.289909    131918.07    -42304.02    3552.3168   -45856.337   0.14674632 
  105000    290.33411    115.34517    131928.71   -42333.745    3543.9393   -45877.685    0.1439848 
  105200    291.99838   -142.42392    132197.74   -42331.569     3564.254   -45895.823   0.14225502 
  105400    293.26726   -70.798352    132101.64   -42324.866    3579.7425   -45904.609    0.1421652 
  105600    291.05305    136.75395    131871.35   -42319.844     3552.715   -45872.559   0.14490652 
  105800    290.94026    27.690713    132008.74   -42340.481    3551.3382   -45891.819   0.14829865 
  106000    293.19246   -109.60524    132156.13   -42299.687    3578.8295   -45878.517   0.15209892 
  106200    291.62489     47.73187    132000.74   -42281.634     3559.695   -45841.329   0.14742854 
  106400    287.52822    91.775829    131907.01   -42311.468    3509.6894   -45821.157    0.1461074 
  106600    293.52752    -11.63879    132064.72   -42312.735    3582.9194   -45895.655   0.14549057 
  106800    291.31979   -48.155477    132102.09   -42306.407    3555.9709   -45862.378    0.1509533 
  107000    294.63468    41.199321    131972.57   -42265.382    3596.4339   -45861.816    0.1555622 
  107200     294.3929    88.537187    131986.87   -42254.615    3593.4825   -45848.098   0.14993722 
  107400    295.15061    -40.99404    132107.87   -42261.302    3602.7315   -45864.034   0.14570218 
  107600    287.03976   -58.898793    132056.49   -42238.731    3503.7271   -45742.458   0.15395306 
  107800    294.13273    122.37461    131934.93   -42259.765    3590.3069   -45850.071   0.14580681 
  108000    295.14743    34.679672    132033.11   -42237.718    3602.6926   -45840.411   0.14868716 
  108200    289.61618   -64.957855    132120.45   -42269.955    3535.1759   -45805.131   0.14885346 
  108400    291.18124   -4.4816158    132011.52   -42267.883    3554.2797   -45822.162   0.14359164 
  108600    292.33716    58.393757    131955.38    -42245.45    3568.3893   -45813.839   0.14615351 
  108800    290.88256   -77.297329    132090.46   -42261.795    3550.6339   -45812.429   0.14723701 
  109000    290.67205   -34.176103    132116.96   -42294.727    3548.0644   -45842.792    0.1464021 
  109200    289.45215    37.529567    131983.02   -42304.002    3533.1737   -45837.176   0.15080946 
  109400    287.39184    31.510437    131967.53   -42282.922    3508.0247   -45790.947   0.15060752 
  109600    289.94285   -30.905715    132095.98   -42249.641    3539.1634   -45788.805   0.14753669 
  109800    292.74647   -75.968841    132113.76   -42302.128    3573.3855   -45875.513   0.14788192 
  110000    296.25591    77.763554    132007.59   -42238.038    3616.2233   -45854.261   0.14959451 
  110200    290.20604    42.641084     132058.2   -42227.024     3542.376     -45769.4   0.15799162 
  110400    288.47694   -28.902592    132193.83   -42277.179    3521.2698   -45798.448   0.14942021 
  110600      290.046   -51.294135    132089.64   -42348.517    3540.4225    -45888.94   0.14817897 
  110800    289.18346    121.68143    131912.88   -42343.781    3529.8939   -45873.675   0.14479784 
  111000    284.86212    23.116188    132052.11   -42345.276    3477.1459   -45822.422   0.14824714 
  111200    280.10313    -127.2008    132212.02   -42326.713    3419.0557   -45745.768   0.15350072 
  111400    288.07187   -1.4698153    132071.76   -42378.325    3516.3254    -45894.65   0.14866334 
  111600    287.64032    105.00595    131941.73   -42422.423    3511.0578   -45933.481   0.13927679 
  111800    283.39281   -25.638796    132066.29   -42453.832    3459.2109   -45913.043   0.13949384 
  112000    285.16828   -68.518751    132127.01    -42453.74     3480.883   -45934.623   0.13683444 
  112200    289.41489    36.843351    131996.13   -42407.041    3532.7188    -45939.76   0.14481849 
  112400    287.58445    83.387428    131979.58   -42385.714    3510.3758    -45896.09   0.14289938 
  112600    291.51937   -62.281534     132140.1   -42362.389     3558.407   -45920.796   0.14173246 
  112800    285.35633   -50.023147    132150.84   -42379.024    3483.1784   -45862.202    0.1382511 
  113000     294.8957    85.897489    131991.35   -42359.241      3599.62   -45958.861   0.13535212 
  113200    285.88898    44.146052    132005.31   -42390.579    3489.6802   -45880.259   0.14070023 
  113400    288.89113   -56.689161    132147.51    -42372.06    3526.3257   -45898.385   0.14673482 
  113600     292.9098   -25.647881    132110.13   -42376.602    3575.3792   -45951.981   0.14309827 
  113800    287.43971    65.858938    131958.34   -42360.804     3508.609   -45869.413   0.14551317 
  114000    289.98462    55.053912    132026.46   -42347.604    3539.6732   -45887.278   0.13934383 
  114200    289.70426   -97.833659    132172.16   -42359.537     3536.251   -45895.788   0.14375245 
  114400    283.03857   -3.3856631    132062.51   -42303.202    3454.8869   -45758.089   0.15767899 
  114600    286.87485    117.11129    131951.31   -42280.936     3501.714    -45782.65   0.15462024 
  114800    289.36317   -87.045264    132135.95   -42253.283    3532.0875    -45785.37   0.15324023 
  115000    292.58674    -149.1733    132209.81   -42276.338    3571.4358   -45847.774   0.14714958 
  115200    291.47926    97.872435    131958.77   -42302.999    3557.9174   -45860.917   0.14351429 
  115400    285.62949    111.82746    131941.08   -42318.842    3486.5127   -45805.354   0.14765693 
  115600    289.31973   -136.60478    132226.37   -42297.504    3531.5574   -45829.062   0.14731264 
  115800    288.46469   -101.49965    132175.69   -42314.821    3521.1204   -45835.942   0.14785788 
  116000    290.78839    211.69659    131864.63   -42305.393    3549.4844   -45854.877   0.14087092 
  116200    291.59096    74.738067    132014.41    -42321.64    3559.2809   -45880.921   0.13473878 
  116400    292.39948   -238.72724    132345.05   -42368.932      3569.15   -45938.082   0.13691146 
  116600    290.21954    31.922889    132047.48   -42385.497    3542.5408   -45928.038   0.13785794 
  116800    290.42378     297.3314    131737.35   -42334.127    3545.0338    -45879.16   0.14271724 
  117000    286.11106   -102.95657    132152.76   -42355.507    3492.3909   -45847.898   0.14267443 
  117200    287.58036   -247.83504    132375.07   -42351.036    3510.3259   -45861.362   0.13904135 
  117400    284.04958    150.42852    131894.26   -42363.109    3467.2276   -45830.337   0.13775556 
  117600    288.01243    281.71772    131749.34   -42337.281    3515.5998   -45852.881   0.14533323 
  117800    289.55362   -187.64493    132297.91   -42301.759    3534.4123   -45836.171   0.15102539 
  118000    293.29496   -252.65299    132370.45   -42290.668    3580.0807   -45870.749    0.1507784 
  118200    291.13516    291.18638    131761.92     -42330.4    3553.7172   -45884.118   0.14504147 
  118400    287.06422    204.76212    131804.42   -42365.284    3504.0256   -45869.309   0.14680126 
  118600    283.56064    -310.8339    132409.22   -42390.171    3461.2594    -45851.43   0.15304899 
  118800    284.28441    -152.2995    132207.12   -42428.427    3470.0941   -45898.521   0.15107996 
  119000    289.25891    386.54785    131600.05       -42437    3530.8149   -45967.815   0.14955066 
  119200    284.62172     120.5496    131928.28   -42440.888    3474.2114   -45915.099   0.14657198 
  119400    281.88047   -373.86416    132474.43   -42469.495    3440.7507   -45910.246   0.14357309 
  119600    284.15201    9.4781379     132023.9   -42410.918     3468.478   -45879.396   0.14527961 
  119800    288.59026    378.21812    131615.79   -42403.961    3522.6531   -45926.614   0.14543253 
  120000    289.09979   -112.55123    132144.53   -42432.043    3528.8726   -45960.916   0.14690765 
  120200    288.12252   -311.11035    132394.81   -42403.194    3516.9437   -45920.137   0.14464664 
  120400    288.68153    148.20875    131850.83   -42439.861    3523.7671   -45963.628   0.13751696 
  120600    284.32628    237.64646    131747.21   -42425.411    3470.6052   -45896.016   0.13678966 
  120800     286.2459   -160.05917    132260.94   -42425.545    3494.0369   -45919.582   0.13250165 
  121000    288.00245   -157.61234    132246.56   -42412.569    3515.4781   -45928.047   0.13808067 
  121200    284.01291    200.17215    131814.64   -42419.935    3466.7801   -45886.715   0.14311246 
  121400    284.99478    79.172875    131951.83   -42412.008    3478.7652   -45890.773   0.14242151 
  121600    284.94937   -203.28695    132302.83   -42403.401    3478.2109   -45881.612   0.13890069 
  121800      285.708    3.9872463    132147.36   -42401.137     3487.471   -45888.608    0.1335884 
  122000    287.21441    122.56323    131890.68   -42382.446    3505.8589   -45888.305    0.1451099 
  122200    285.68222    8.9804906    132065.34   -42357.007    3487.1564   -45844.164   0.14653358 
  122400    286.56667    -170.6355    132265.78   -42316.792    3497.9523   -45814.745   0.15198864 
  122600    291.27387    7.5451823    132063.21   -42237.304    3555.4104   -45792.714   0.14954182 
  122800    291.48829    117.97111    131949.02   -42232.614    3558.0277   -45790.642   0.14655447 
  123000    294.94768   -37.084507    132150.42   -42269.716    3600.2544    -45869.97   0.14771007 
  123200    290.58432   -112.89959    132200.64   -42293.876    3546.9934    -45840.87   0.15374744 
  123400    285.97778    25.758941    131944.71   -42373.291    3490.7641   -45864.055   0.15580724 
  123600     293.3765    127.71129    131894.21   -42332.655    3581.0759   -45913.731   0.14876433 
  123800    290.42865   -60.631157    132150.79   -42344.126    3545.0932   -45889.219    0.1435735 
  124000    293.32114   -94.894609    132153.73   -42323.279    3580.4003   -45903.679   0.14332207 
  124200    293.25461    125.26569    131894.93   -42313.184    3579.5881   -45892.772   0.14542992 
  124400    289.21825    52.029237    131952.26   -42333.101    3530.3186    -45863.42   0.14697708 
  124600    288.05938   -142.45869    132174.67   -42346.155     3516.173   -45862.328   0.14506153 
  124800    288.26158   -19.894474    132071.81   -42351.888    3518.6411   -45870.529   0.13952553 
  125000    285.31021    128.48912    131903.33   -42363.045    3482.6154   -45845.661   0.13749918 
  125200     287.1742   -4.3071478    132043.76   -42352.664    3505.3681   -45858.033   0.14209143 
  125400    288.23114    -127.1545    132189.33   -42404.279    3518.2695   -45922.549   0.13741943 
  125600    285.30133    26.915365    132006.16   -42415.162    3482.5071   -45897.669   0.13810645 
  125800    286.29387    116.18094    131889.59   -42388.776    3494.6224   -45883.398   0.14085749 
  126000    287.07919    -69.43609    132072.97   -42376.105    3504.2083   -45880.313   0.14535833 
  126200    289.43964   -89.581845    132145.75   -42348.896     3533.021   -45881.917   0.14286514 
  126400    288.80931    86.831827    131954.54   -42379.411    3525.3269   -45904.738   0.14236239 
  126600    283.47852    93.834797    131931.57   -42387.956     3460.257   -45848.213   0.14409188 
  126800    284.52382   -96.246715     132164.5   -42369.925    3473.0165   -45842.942   0.14844347 
  127000    291.15129   -121.63752     132188.3   -42391.326    3553.9141   -45945.241   0.14397957 
  127200    287.66879    123.81242    131926.97   -42423.421    3511.4053   -45934.826   0.14360439 
  127400    286.44784    127.43972    131939.53   -42415.947    3496.5018   -45912.449   0.14285724 
  127600    286.73148   -166.91504    132200.99    -42412.62     3499.964   -45912.584   0.14649809 
  127800    290.60586   -45.759379    132082.65   -42414.006    3547.2564   -45961.262   0.14493676 
  128000     285.7497    180.26825    131817.88   -42391.173    3487.9801   -45879.153   0.14206583 
  128200    281.83181   -13.097844    132010.84   -42361.134    3440.1567   -45801.291   0.14442379 
  128400    287.71265   -209.29925    132272.63   -42393.284    3511.9406   -45905.225   0.14248821 
  128600    285.53478    33.232085    132028.82   -42410.412    3485.3567   -45895.769    0.1429727 
  128800    282.11973    153.13017    131785.63   -42467.554    3443.6711   -45911.226   0.14122892 
  129000    281.86973   -55.395133    132060.34   -42485.743    3440.6195   -45926.362   0.13695092 
  129200    286.84908   -195.06609    132226.49    -42463.38    3501.3995   -45964.779   0.13635786 
  129400    288.19383    79.880528    131880.55   -42453.428    3517.8142   -45971.243   0.13805629 
  129600    281.22884    127.62603    131768.82   -42436.462    3432.7965   -45869.258    0.1462947 
  129800    280.43813   -105.50658     132154.5   -42446.892    3423.1448   -45870.036   0.14050102 
  130000    284.24198   -186.05929    132197.43   -42468.989    3469.5762   -45938.565   0.14430726 
  130200     286.4655    211.78824    131772.53   -42471.703    3496.7174   -45968.421   0.14170907 
  130400    283.13759    151.06444    131813.36   -42466.487    3456.0955   -45922.583   0.14241243 
  130600     287.0983   -229.09991    132233.23   -42424.222    3504.4416   -45928.663    0.1477657 
  130800    284.19143   -112.40554    132094.23   -42443.222    3468.9591   -45912.181   0.14826568 
  131000    286.38791    248.67904    131682.82   -42467.159    3495.7703   -45962.929   0.14865703 
  131200    281.28021    33.941641    131917.93    -42435.98    3433.4235   -45869.403   0.15034634 
  131400    284.94717   -288.72708    132290.07   -42443.619     3478.184   -45921.803   0.14650425 
  131600    286.49166    67.226796    131944.81   -42430.383    3497.0367    -45927.42   0.14582032 
  131800    286.87814    326.95425    131677.77   -42407.099    3501.7543   -45908.854   0.14628953 
  132000    285.55702   -99.956788    132158.54    -42360.83    3485.6281   -45846.458   0.14940719 
  132200    284.44747   -325.78426     132370.7   -42378.567    3472.0845   -45850.652    0.1494222 
  132400    284.23235    190.52189    131802.16   -42386.466    3469.4586   -45855.925   0.14650197 
  132600    287.97715    311.73174    131680.92   -42347.525    3515.1692   -45862.694   0.14385214 
  132800    292.45465   -262.10942    132321.96   -42326.572    3569.8235   -45896.395   0.14274112 
  133000    288.12726   -262.70388     132341.2   -42313.094    3517.0015   -45830.095   0.14548109 
  133200    294.65746    343.97799    131683.12   -42286.969    3596.7119   -45883.681   0.14496063 
  133400     291.0745    225.22961    131828.59   -42265.202    3552.9768   -45818.179   0.14444087 
  133600    291.13869   -358.90369    132538.94   -42268.438    3553.7603   -45822.199   0.14304001 
  133800     292.5323   -149.09091    132255.91   -42295.661    3570.7713   -45866.432    0.1433279 
  134000    295.52083    502.82435    131538.73   -42249.916    3607.2505   -45857.166   0.13956053 
  134200    294.02867    93.042071     131979.2   -42263.702    3589.0366   -45852.739   0.14480616 
  134400    286.88471   -518.59431    132628.73   -42250.171    3501.8344   -45752.006   0.15361931 
  134600    287.48231     7.813905    132035.69   -42274.001     3509.129    -45783.13   0.14940239 
  134800    293.12236    497.51328    131490.09   -42304.967    3577.9738   -45882.941   0.14712898 
  135000    286.48862   -142.88099    132142.16   -42376.447    3496.9996   -45873.447   0.15014457 
  135200    287.34687   -390.29686    132488.91   -42358.204    3507.4758    -45865.68   0.14812585 
  135400    282.53431    163.85318     131830.1     -42374.9    3448.7317   -45823.631    0.1529901 
  135600    284.64621    365.86846    131650.88   -42348.917    3474.5103   -45823.428    0.1472124 
  135800     288.1959   -218.96286    132261.35   -42423.184    3517.8394   -45941.024   0.15043995 
  136000    283.81547   -238.97509    132286.86   -42444.953      3464.37   -45909.323   0.14781683 
  136200    286.24805    236.39733    131767.56   -42440.496    3494.0631   -45934.559   0.14579167 
  136400    289.88098    168.54868    131846.64   -42411.006    3538.4082   -45949.415     0.143424 
  136600    283.99042   -197.07008    132265.88   -42354.271    3466.5055   -45820.777   0.14862109 
  136800    289.06358    -70.70019    132153.41   -42367.352    3528.4306   -45895.783    0.1443403 
  137000    291.69543    177.76779    131811.46   -42373.898    3560.5561   -45934.454   0.14284391 
  137200    282.45736    74.332564    131940.72   -42399.296    3447.7924   -45847.088   0.14231898 
  137400      293.617   -129.43878    132211.15   -42364.977    3584.0115   -45948.988   0.14365271 
  137600     292.3206   -24.422947    132073.62   -42356.282    3568.1871   -45924.469   0.14343444 
  137800    287.47875    158.21868    131878.49    -42321.11    3509.0855   -45830.195   0.14571564 
  138000    287.39114    4.3898663    132025.14   -42343.136    3508.0161   -45851.152   0.14362529 
  138200    291.89472   -90.145497    132145.52   -42383.511    3562.9887     -45946.5   0.14292848 
  138400    291.68353    55.984786    131969.79   -42360.675    3560.4108   -45921.086   0.14817477 
  138600    287.08733    102.48932    131894.17   -42376.647    3504.3077   -45880.955   0.14634218 
  138800    287.51567   -26.924272    132083.68   -42310.345    3509.5362   -45819.881   0.15041327 
  139000    286.44411    -120.3972    132145.61   -42320.404    3496.4563    -45816.86   0.15257031 
  139200    288.54876    71.277171    131969.18    -42317.51    3522.1465   -45839.656    0.1500378 
  139400    289.01496    74.432473    131949.92   -42345.483    3527.8372    -45873.32   0.15077035 
  139600    290.79827   -64.631052    132118.11   -42329.209    3549.6049   -45878.814   0.14829429 
  139800    294.73731   -30.592503    132093.15   -42285.799    3597.6866   -45883.486   0.15015855 
  140000    287.43675    89.834564    131983.73   -42267.299    3508.5729   -45775.872   0.15368354 
  140200    284.97127   -10.209458    132087.03   -42300.936    3478.4783   -45779.414    0.1513499 
  140400    293.56735   -82.514923    132164.34   -42328.377    3583.4055   -45911.782   0.14532692 
  140600    288.73831    44.624331    132022.72   -42329.718    3524.4603   -45854.178   0.14676157 
  140800    286.99674    43.557759    131986.39   -42323.003    3503.2019   -45826.205   0.15238764 
  141000    289.75805   -56.438111    132135.37    -42362.31    3536.9076   -45899.217   0.14643573 
  141200    288.95143   -33.686539    132128.21   -42319.366    3527.0617   -45846.428   0.14365471 
  141400    295.95527    129.33552    131998.24   -42312.861    3612.5534   -45925.415   0.13583058 
  141600    289.23647    46.082779     132041.3   -42293.555    3530.5411   -45824.096   0.14310458 
  141800    286.60491   -101.02931    132130.53   -42355.075     3498.419   -45853.494   0.14955321 
  142000     284.4326    9.2636881    132023.54   -42355.393    3471.9029   -45827.296   0.14932462 
  142200    291.82233    113.39823    131950.75   -42371.946    3562.1051   -45934.051   0.13980927 
  142400    288.52159   -65.061414    132096.59   -42368.516    3521.8149    -45890.33   0.14215627 
  142600    288.68425   -108.33429    132129.89   -42339.658    3523.8004   -45863.459   0.14760466 
  142800    286.27991    49.283368    131942.65   -42362.444    3494.4521   -45856.896    0.1509528 
  143000    288.05838    68.557335    131905.05   -42392.729    3516.1608    -45908.89   0.15054344 
  143200    286.19817   -89.897068    132106.41   -42380.615    3493.4543    -45874.07   0.15114176 
  143400    284.38518   -134.23404    132131.82   -42358.432    3471.3241   -45829.756   0.15735556 
  143600    286.76321    98.472254    131881.41   -42336.657    3500.3513   -45837.009   0.15383276 
  143800    287.51971    68.380766    131871.28   -42343.288    3509.5855   -45852.874   0.15344134 
  144000    285.47401   -132.54099    132157.44   -42325.377    3484.6148   -45809.991   0.15526993 
  144200    285.79564   -107.90221    132114.24   -42302.688    3488.5408   -45791.229   0.15454757 
  144400    289.77111    175.50683    131784.25   -42300.297     3537.067   -45837.364   0.15567194 
  144600    289.34444    96.374064    131891.66   -42278.797    3531.8589   -45810.656   0.14983147 
  144800    292.00945   -207.00967    132259.86    -42262.97    3564.3891   -45827.359   0.14587802 
  145000    289.41061   -100.28893    132089.82   -42304.245    3532.6666   -45836.912   0.15133589 
  145200    290.68369    241.99533    131729.14   -42332.101    3548.2064   -45880.308   0.15001066 
  145400    290.94544   -28.176205    131982.27   -42329.114    3551.4015   -45880.516   0.14792472 
  145600    284.89772   -283.13039    132288.55   -42349.595    3477.5804   -45827.175   0.14489129 
  145800    286.49172    25.343205     131960.3   -42369.597    3497.0374   -45866.634   0.14358155 
  146000    286.94812    250.07767    131695.61   -42351.017    3502.6085   -45853.625    0.1471242 
  146200    281.79763   -98.628335    132086.79   -42381.788    3439.7394   -45821.527   0.14808692 
  146400    288.54634   -230.71309    132306.16   -42335.364     3522.117   -45857.481   0.14598772 
  146600    285.82757    127.91251    131878.68   -42287.888    3488.9305   -45776.818   0.15066005 
  146800      290.391    211.77559    131786.97   -42252.877    3544.6336    -45797.51   0.15316866 
  147000    289.36698   -214.40443    132270.74   -42253.237    3532.1341   -45785.371    0.1557807 
  147200    299.05729    -153.6212     132294.6   -42231.097    3650.4181   -45881.515   0.14885732 
  147400    294.20644    187.50265    131783.46    -42282.01    3591.2066   -45873.216    0.1534329 
  147600    291.30304    151.68813    131833.97   -42311.418    3555.7664   -45867.185   0.15374727 
  147800    284.89285   -320.04568    132307.93   -42351.284     3477.521   -45828.805   0.16040555 
  148000    289.66242   -94.386724    132107.72   -42317.698    3535.7403   -45853.439   0.15439288 
  148200    288.43678    309.41483    131641.59   -42369.415    3520.7796   -45890.195   0.14884134 
  148400    287.30192    32.276379    131967.75   -42392.596    3506.9271   -45899.523   0.14826418 
  148600    284.46119   -356.34477    132388.92    -42363.31     3472.252   -45835.562   0.15472627 
  148800    286.28284    36.979408    131984.71   -42376.148    3494.4878   -45870.636   0.14832661 
  149000    285.38419    294.34619    131652.31   -42382.677    3483.5185   -45866.196   0.14763175 
  149200    290.10944   -31.634288     132094.3   -42402.964    3541.1968   -45944.161   0.13798229 
  149400    284.59081   -325.40652    132321.83   -42421.764    3473.8341   -45895.598   0.14560629 
  149600    290.02675    200.08467    131806.01   -42403.012    3540.1875     -45943.2   0.14286195 
  149800    288.51415    248.87883    131703.22    -42416.62     3521.724   -45938.344   0.14368019 
  150000     283.4337   -195.98203    132231.98   -42358.266      3459.71   -45817.976   0.14833491 
  150200    284.97962   -202.91289    132256.96   -42303.356    3478.5801   -45781.936   0.15261883 
  150400    292.13634    235.64694     131768.2   -42305.036     3565.938   -45870.974   0.14934509 
  150600    289.42105    161.09854    131854.24   -42315.851    3532.7941   -45848.645   0.14737192 
  150800    289.35802   -273.35714    132332.81   -42306.745    3532.0247   -45838.769   0.15439547 
  151000     290.7605   -120.68714    132161.88   -42333.191    3549.1439   -45882.335   0.15539014 
  151200    290.66991    300.89331    131699.16   -42319.509    3548.0382   -45867.548    0.1522053 
  151400    289.70788    47.913499    131981.08   -42249.466    3536.2952   -45785.762   0.15771204 
  151600    290.94133   -284.34508    132437.86   -42232.769    3551.3513    -45784.12   0.15337152 
  151800    294.31261   -24.994131    132105.63   -42202.767    3592.5025    -45795.27   0.15699542 
  152000    294.13564     317.2199    131731.27   -42227.859    3590.3424   -45818.202   0.15762073 
  152200    290.01576   -51.601225    132099.18   -42248.553    3540.0534   -45788.606    0.1592654 
  152400    286.05918   -282.33643    132368.13   -42285.564    3491.7577   -45777.322   0.15483739 
  152600    292.91596    97.658443    131950.49   -42276.806    3575.4544   -45852.261   0.14776042 
  152800    296.75965    256.27066    131785.19   -42217.946    3622.3721   -45840.318   0.15070466 
  153000    292.32117   -154.38258    132211.51   -42268.115    3568.1942   -45836.309   0.15264888 
  153200    293.49103   -182.11533    132249.56   -42212.064     3582.474   -45794.538   0.14897372 
  153400    289.20657    156.84845    131862.03   -42258.956     3530.176   -45789.132   0.14999639 
  153600    288.72887     125.0157    131888.86   -42298.461    3524.3451   -45822.806   0.14750472 
  153800     294.5351   -155.39056    132212.54   -42305.166    3595.2183   -45900.385   0.14817005 
  154000    288.11828    -46.07519    132112.77   -42336.514    3516.8919   -45853.406   0.14643581 
  154200    286.61978     200.2121       131845   -42290.585    3498.6006   -45789.185   0.14729391 
  154400    294.83832    53.999642    132016.49   -42274.067    3598.9196   -45872.987   0.14618312 
  154600    291.77836   -146.61958    132241.49     -42292.4    3561.5684   -45853.968   0.14849606 
  154800    289.16339    22.093372    132028.81   -42322.882     3529.649   -45852.531   0.14920542 
  155000    288.56545    81.375028    131871.14   -42297.209    3522.3503   -45819.559   0.15501197 
[...]
  163000    287.37783   -62.359432    132139.24   -42375.277    3507.8536    -45883.13   0.14583812 
  163200    289.79723    233.54152    131856.39   -42366.607    3537.3859   -45903.993   0.13835994 
  163400    290.53331    42.117797    132024.69    -42395.51    3546.3708   -45941.881   0.13854432 
  163600    289.08516   -229.88577    132303.98   -42361.892    3528.6941   -45890.586   0.14839084 
  163800    285.06338   -16.147707    132030.03     -42422.5    3479.6026   -45902.103   0.14938691 
  164000    283.71294    284.43926    131716.32   -42415.811    3463.1185   -45878.929   0.14634628 
  164200    282.28929   -69.772537    132068.79   -42428.181    3445.7409   -45873.922   0.14780778 
  164400    283.55579   -283.62165    132344.92   -42382.116    3461.2002   -45843.316   0.15115532 
  164600    291.23725    135.59639    131886.78   -42348.217    3554.9634    -45903.18   0.14687602 
  164800    283.32767     286.3498    131682.31   -42393.391    3458.4158   -45851.807   0.14808211 
  165000     286.5391    -226.7761    132274.22   -42381.394    3497.6157    -45879.01   0.14388789 
  165200    289.72574   -270.71238    132360.59   -42365.371    3536.5132   -45901.885    0.1415626 
  165400    288.61716    335.58462    131702.94   -42379.825    3522.9815   -45902.806   0.14384161 
  165600    284.69764    232.07282    131774.66   -42336.166    3475.1382   -45811.304   0.14730154 
  165800    287.71592   -317.51435    132484.58   -42339.333    3511.9806   -45851.314   0.13953471 
  166000    285.44518   -165.42124    132257.93   -42304.004    3484.2629   -45788.267   0.14495857 
  166200    286.28312    459.84972    131581.79   -42346.407    3494.4911   -45840.898   0.14364366 
  166400    287.68572    106.82459    131951.53   -42342.533    3511.6119   -45854.145   0.14247936 
  166600    281.82979   -484.97013    132522.94     -42339.5     3440.132   -45779.632   0.15053214 
  166800    285.66613      6.42644    131995.46   -42404.394    3486.9599   -45891.354   0.14035102 
  167000    289.15545    419.80867    131527.19   -42393.098     3529.552    -45922.65   0.14628835 
  167200      289.336   -108.53172    132109.39   -42359.376    3531.7559   -45891.132   0.14594061 
  167400    281.62388    -398.8722    132440.29       -42383    3437.6186   -45820.619   0.15200451 
  167600    293.32786    168.62132    131860.84   -42380.366    3580.4822   -45960.848   0.14059523 
  167800    284.32024    265.52279    131714.65    -42423.86    3470.5315   -45894.392   0.14385147 
  168000    281.31598    -178.9652    132231.48   -42437.645    3433.8603   -45871.505   0.14626016 
  168200    284.12007   -188.93087    132243.12   -42425.527    3468.0881   -45893.616   0.14420056 
  168400    286.87318    230.93671    131780.85   -42403.894    3501.6937   -45905.588   0.14170618 
  168600    286.19776    141.84714    131866.05   -42362.052    3493.4493   -45855.501   0.14991592 
  168800     284.2197   -207.91726    132244.33   -42427.179    3469.3042   -45896.483   0.14616874 
  169000    288.69037   -96.541257    132069.88     -42418.4     3523.875   -45942.275   0.14732054 
  169200    289.56382    227.90559    131786.85   -42400.543    3534.5368   -45935.079   0.13693767 
  169400    280.01954   -37.161515    132050.22   -42416.488    3418.0353   -45834.523   0.14315806 
  169600      284.028   -146.55637    132234.42   -42428.077    3466.9643   -45895.042   0.14270544 
  169800    284.55042    6.0940594    131955.04   -42426.146    3473.3412   -45899.487   0.14986613 
  170000    284.98632    137.72679    131830.55   -42464.751    3478.6619   -45943.413   0.14172882 
  170200    280.29299   -86.833394    132063.64   -42468.986    3421.3732   -45890.359   0.14221026 
  170400      278.803   -95.920613    132091.37   -42456.266    3403.1857   -45859.452   0.14250839 
  170600    284.84297    80.854662    131873.77    -42429.59    3476.9121   -45906.502   0.14316635 
  170800    286.23428    78.061296    131885.81   -42461.643     3493.895   -45955.538   0.14222746 
  171000    288.24844   -93.981132    132086.24   -42444.498    3518.4807   -45962.979   0.14154064 
  171200    281.56602    -59.98428    132020.79   -42462.811    3436.9123   -45899.723   0.14498061 
  171400    285.03949    84.563594    131839.09   -42466.556     3479.311   -45945.867   0.14457912 
  171600    283.71389    84.891236    131959.14   -42438.485    3463.1301   -45901.615   0.13911392 
  171800    281.35771   -129.85135    132153.32   -42407.882    3434.3696   -45842.251   0.14788569 
  172000    289.39989   -21.623125    132008.75   -42411.756    3532.5358   -45944.291   0.14519065 
  172200    286.20086     127.7701       131831   -42443.151    3493.4871   -45936.638   0.14811457 
  172400    282.04428   -21.381331    131979.98   -42416.681    3442.7501   -45859.431   0.14580221 
  172600    286.26019   -108.38553    132135.77   -42382.696    3494.2113   -45876.907   0.14165713 
  172800    286.72653   -5.3126578    131984.82   -42390.605    3499.9037   -45890.508   0.14805363 
  173000    284.31996     119.5135    131902.03   -42400.443     3470.528   -45870.971   0.14908229 
  173200    285.43484   -62.233225    132081.83   -42434.703    3484.1368   -45918.839   0.14769915 
  173400    287.00133   -104.38856    132117.59   -42436.151    3503.2579   -45939.409   0.14383722 
  173600    290.75516    92.376118    131910.48   -42391.087    3549.0788   -45940.166   0.13938916 
  173800    283.66835    88.836745    131894.72   -42380.921    3462.5742   -45843.495   0.14488594 
  174000    288.48203   -103.82453    132104.82   -42348.301    3521.3321   -45869.633   0.14343331 
  174200    290.96345   -74.849395    132100.24   -42336.362    3551.6213   -45887.984   0.14946427 
  174400    285.86105    100.02678    131875.65   -42325.092    3489.3392   -45814.431   0.15234393 
  174600    289.27555    37.172863    131918.52   -42329.995    3531.0181   -45861.013   0.15169111 
  174800    289.23388   -79.407311    132147.01   -42312.443    3530.5094   -45842.953   0.14159981 
  175000    291.19684   -14.208567    132087.53   -42342.596    3554.4701   -45897.066   0.14166133 
  175200     290.8036    121.88319     131845.6   -42345.061    3549.6701   -45894.731   0.14949939 
  175400    287.73824    34.260493    131945.66   -42361.217     3512.253    -45873.47   0.15052776 
  175600    281.63419   -171.48179    132180.07   -42368.221    3437.7444   -45805.966   0.15021204 
  175800    286.95427   -13.401601    131972.28     -42340.5    3502.6835   -45843.184   0.14671856 
  176000     292.6027    192.96254     131750.4   -42348.578    3571.6307   -45920.209   0.14495618 
  176200     291.1459   -68.253416    132045.88   -42297.536    3553.8483   -45851.385   0.15608052 
  176400    291.40749   -190.32646    132264.05   -42311.034    3557.0414   -45868.075   0.14841185 
  176600    292.07887    83.677129    131882.46   -42300.504    3565.2366   -45865.741    0.1510136 
  176800     293.3128    266.68113    131738.71   -42321.248    3580.2984   -45901.547   0.14427945 
  177000    287.42061   -205.17586     132204.1   -42312.865    3508.3759   -45821.241   0.15164369 
  177200    288.00477   -169.40429    132243.96   -42345.876    3515.5064   -45861.382   0.15069812 
  177400    283.83948      223.814    131727.35    -42406.94    3464.6631   -45871.603    0.1475818 
  177600     285.1374    214.39477    131765.43   -42400.731     3480.506   -45881.237   0.14554116 
  177800    286.09866   -313.52767    132318.74   -42363.925    3492.2396   -45856.165   0.14944704 
  178000    292.75783   -127.92385    132144.74   -42340.281    3573.5242   -45913.805   0.14439677 
  178200    289.03853    337.39308    131581.93   -42345.918    3528.1249   -45874.043   0.14952897 
  178400    290.38242    125.65621    131880.42   -42358.565     3544.529   -45903.094   0.14445378 
  178600    288.36708   -347.45877    132432.97   -42342.477    3519.9289   -45862.406   0.14760345 
  178800    292.84747    34.452838    132034.74   -42329.479    3574.6184   -45904.098   0.14174808 
  179000    288.39099    362.15861    131586.37   -42294.548    3520.2207   -45814.768   0.14756145 
  179200    290.17892   -79.816567    132099.53   -42325.693    3542.0449   -45867.738   0.14443561 
  179400    287.79041   -374.81736    132435.83   -42311.213    3512.8898   -45824.103   0.15086686 
  179600    294.69636    187.28151    131845.92   -42316.366    3597.1867   -45913.553   0.14439032 
  179800    283.42091    318.87998    131654.79   -42330.604    3459.5538   -45790.158   0.15097574 
  180000    289.33679   -233.80976    132301.06     -42316.6    3531.7656   -45848.366   0.14371769 
  180200    294.33156   -257.56277    132371.29   -42267.212    3592.7338   -45859.946   0.14661984 
  180400    291.73013    268.35763    131749.65   -42242.689    3560.9797   -45803.668   0.14818298 
  180600    286.35755    198.09869     131800.9   -42290.593    3495.3997   -45785.993   0.14567973 
  180800    290.28274   -228.81902    132346.01   -42285.411    3543.3122   -45828.723   0.14507085 
  181000    289.05422   -141.86113    132190.61   -42322.039    3528.3164   -45850.355   0.14714294 
  181200     291.5041    254.05488    131729.49   -42305.016    3558.2207   -45863.237   0.15009771 
  181400    288.90822     9.006549    131938.66   -42344.818    3526.5343   -45871.352   0.15044558 
  181600    288.05286    -218.2362    132243.57    -42360.74    3516.0934   -45876.833   0.14373607 
  181800    287.84241   -14.781687    132010.41   -42354.259    3513.5245   -45867.783   0.14687923 
  182000    286.55282    172.60932    131847.06   -42331.409    3497.7833   -45829.193   0.14836835 
  182200     288.8994   -25.617353    132084.63   -42344.267    3526.4265   -45870.694   0.14531529 
  182400    285.58207   -141.25868    132154.88   -42351.395    3485.9339   -45837.329   0.14749239 
  182600     283.6754    126.54061    131907.35   -42329.176    3462.6603   -45791.836   0.14368314 
  182800    295.36349    116.82622    131898.82   -42302.747      3605.33   -45908.077   0.14827823 
  183000     291.4369   -86.190676    132132.84   -42276.382    3557.4004   -45833.782   0.14750795 
  183200    294.37532   -53.582421    132121.06   -42266.752     3593.268    -45860.02   0.14404214 
  183400    283.74297    71.650181    131920.48   -42273.552    3463.4851   -45737.037   0.15326197 
  183600    289.53991    61.422832     131955.4   -42310.421    3534.2449   -45844.666   0.14759555 
  183800    289.24392   -100.13123    132119.66   -42320.138    3530.6319    -45850.77   0.14959097 
  184000     290.6723    26.714463    132044.18   -42350.004    3548.0674   -45898.072   0.14081956 
  184200    290.40847    121.73815    131896.49   -42390.694    3544.8469   -45935.541   0.14304797 
  184400    288.36038   -17.208418     131977.6   -42376.429    3519.8471   -45896.276   0.14902902 
  184600    283.91134   -78.650365    132092.39   -42402.924    3465.5403   -45868.464   0.14687782 
  184800    286.06309   -33.920926    132004.81   -42384.971    3491.8055   -45876.776   0.14794861 
  185000    286.80328    84.390572    131939.07   -42384.642    3500.8405   -45885.483   0.14232131 
  185200    286.51957    -19.05035    132058.14   -42428.148    3497.3774   -45925.526   0.14206733 
  185400    286.81429   -71.278913    132089.75   -42407.758    3500.9749   -45908.733   0.14535958 
  185600    290.76561    30.801767    131965.67   -42415.756    3549.2064   -45964.962   0.14146952 
  185800    286.41891    5.5871321    131931.32   -42371.954    3496.1487   -45868.102   0.14740791 
  186000    284.50404   -71.714775    132071.43   -42366.778     3472.775   -45839.553   0.14837023 
  186200     289.8467   -9.5440211    132099.82   -42347.254    3537.9897   -45885.244   0.14323754 
  186400    285.57293    47.036594    131962.96   -42312.748    3485.8223    -45798.57   0.14813093 
  186600    290.80954    70.487498    131982.71    -42326.25    3549.7426   -45875.992   0.14124741 
  186800    288.36605   -65.761935    132132.31     -42352.4    3519.9162   -45872.316     0.144374 
  187000    292.56486   -31.303465    132085.75   -42314.794    3571.1687   -45885.963   0.14613846 
  187200    287.29452    49.672198    131949.01    -42346.85    3506.8367   -45853.687   0.14743155 
  187400    289.62518    45.178151     132022.2   -42331.006    3535.2858   -45866.292   0.14365092 
  187600    293.77607   -88.842581    132190.41    -42372.69    3585.9533   -45958.643   0.13858691 
  187800    289.53472   -44.600481    132061.83   -42373.869    3534.1816   -45908.051   0.14475282 
  188000    287.46337    97.768617    131883.09   -42344.646    3508.8978   -45853.544   0.14760739 
  188200    293.14963   -5.3184045    132055.61   -42318.157    3578.3067   -45896.464   0.14294098 
  188400    289.46479   -169.06757    132234.28   -42306.213     3533.328   -45839.541   0.14808957 
  188600    287.34642    51.149076    131982.17   -42314.955    3507.4702   -45822.425   0.14570458 
  188800    290.14566    193.53562    131833.24   -42325.293    3541.6389   -45866.932   0.14305368 
  189000    293.74828   -83.151117    132163.05     -42325.1     3585.614   -45910.714   0.13840381 
  189200    289.65764   -200.46832    132287.91   -42325.849     3535.682   -45861.531   0.14309583 
  189400    290.99724    133.84828    131889.32   -42315.839    3552.0337   -45867.873   0.14693255 
  189600    291.92228    212.57339    131800.26   -42309.616    3563.3252   -45872.941   0.14692536 
  189800    288.08188   -200.40752    132225.02   -42350.636    3516.4476   -45867.083   0.14480944 
  190000    286.75074   -191.61127     132206.3   -42373.039    3500.1992   -45873.238   0.13986789 
  190200    292.80097    247.68891    131741.74   -42352.376    3574.0508   -45926.427   0.14046994 
  190400    289.17981    59.078247    131867.04   -42357.645    3529.8494   -45887.494    0.1521914 
  190600    290.92249   -233.01846    132335.48    -42308.62    3551.1213   -45859.741   0.14561539 
  190800    286.38699   -84.169336    132148.08   -42303.028    3495.7591   -45798.787   0.14543197 
  191000     287.5734    290.12646    131706.53   -42344.263    3510.2408   -45854.504   0.14097799 
  191200    285.50099    16.284676    131974.16   -42353.419    3484.9442   -45838.363   0.14351284 
  191400    289.87283    -292.5602    132381.59   -42362.887    3538.3087   -45901.195   0.14098997 
  191600    290.35321    24.740064    132039.87   -42308.951    3544.1724   -45853.124   0.14446207 
  191800    287.15698    306.23877    131698.89   -42343.838    3505.1579   -45848.996   0.14430563 
  192000    283.11173   -65.747632    132134.56   -42358.337    3455.7799   -45814.117   0.14342872 
  192200    290.34579   -305.99526    132399.61   -42323.181    3544.0819   -45867.263   0.14070245 
  192400     292.1159    131.85684    131897.17     -42326.3    3565.6886   -45891.989   0.13967617 
  192600    290.98163    296.95443    131734.99    -42366.05    3551.8431   -45917.894   0.13664235 
  192800    286.79369   -261.14323    132258.94   -42342.578    3500.7234   -45843.302    0.1476229 
  193000    287.06485   -205.39407    132315.69   -42331.001    3504.0333   -45835.035   0.14152455 
  193200    289.08885    229.50599    131807.28   -42302.342     3528.739   -45831.081   0.14001519 
  193400    290.68417    190.38549    131835.57   -42288.579    3548.2122   -45836.791   0.14000825 
  193600    289.16325   -243.83538     132318.4   -42312.964    3529.6473   -45842.611   0.14333371 
  193800    293.80664   -79.723114    132178.83   -42337.408    3586.3265   -45923.734   0.14063234 
  194000    287.47872    228.88648    131770.79   -42374.801    3509.0851   -45883.886   0.14417037 
  194200    290.95398    36.985524    131968.32   -42350.216    3551.5056   -45901.722   0.13781253 
  194400    287.37133   -201.52403    132304.62   -42342.419    3507.7744   -45850.193   0.14146856 
  194600    291.98355   -13.499459    132086.27    -42344.76     3564.073   -45908.833   0.13813987 
  194800    288.83403    186.72253     131835.7   -42350.637    3525.6286   -45876.266   0.14195484 
  195000    291.62491   -64.277304    132084.38   -42330.607    3559.6953   -45890.302   0.14769832 
  195200    291.99677   -161.58183    132283.73   -42300.668    3564.2343   -45864.903    0.1402677 
  195400    286.06933    17.546133    132032.68   -42321.837    3491.8816   -45813.719   0.14215369 
  195600    286.05251    171.96704    131860.65   -42328.245    3491.6763   -45819.922   0.13890729 
  195800    287.62143    -40.24372    132111.97   -42366.994    3510.8271   -45877.821   0.13991177 
  196000    289.52313   -119.52658    132215.53    -42350.66    3534.0401     -45884.7   0.14241023 
  196200    286.88968    81.658207    131955.62   -42313.859    3501.8951   -45815.754    0.1460671 
  196400    283.50014    111.74587    131944.46   -42336.856    3460.5209   -45797.377    0.1437137 
  196600    286.60594   -99.772398    132212.88   -42383.798    3498.4317   -45882.229   0.13360415 
  196800    290.75774   -90.822016    132144.73   -42370.894    3549.1103   -45920.005   0.13673673 
  197000    288.39325    128.02513    131918.91   -42377.783    3520.2483   -45898.032   0.14532225 
  197200    283.79843    31.975393    132007.41   -42414.393    3464.1621   -45878.555   0.14064788 
  197400    287.52078   -129.21867    132149.27   -42409.962    3509.5986    -45919.56   0.14273958 
  197600    291.80242    13.761274     132041.8   -42343.748    3561.8621    -45905.61   0.13416692 
  197800    290.13707    67.387007    131962.62   -42310.158    3541.5342   -45851.692   0.13966863 
  198000     283.0907   -19.544426    132096.36   -42334.622    3455.5232   -45790.145   0.14598769 
  198200    285.32379   -101.29703    132133.79   -42358.683    3482.7812   -45841.464   0.14599532 
  198400    294.32011    113.82941    131977.95   -42298.583    3592.5941   -45891.177   0.13923101 
  198600    292.16302    38.135194    132012.52   -42276.817    3566.2637    -45843.08   0.14141325 
  198800    288.71212   -84.303009    132156.73   -42312.027    3524.1406   -45836.167    0.1380382 
  199000    289.05766   -13.210662    132079.88    -42302.12    3528.3584   -45830.478   0.14057294 
  199200    287.00992    93.919045    131945.61   -42311.167    3503.3628    -45814.53   0.14086645 
  199400    289.31201   -11.659789    132062.25   -42318.844    3531.4631   -45850.307    0.1479019 
  199600    293.15813   -66.757187    132165.91   -42343.873    3578.4105   -45922.283   0.14347689 
  199800    289.36595    21.318519    132022.65    -42323.14    3532.1215   -45855.262   0.13991888 
  200000    290.72186    117.09104    131970.74    -42327.28    3548.6723   -45875.952   0.13514378 
Loop time of 109.8 on 11 procs for 200000 steps with 4096 atoms

Performance: 786.885 ns/day, 0.030 hours/ns, 1821.494 timesteps/s
99.5% CPU use with 11 MPI tasks x no OpenMP threads

MPI task timing breakdown:
Section |  min time  |  avg time  |  max time  |%varavg| %total
---------------------------------------------------------------
Pair    | 73.428     | 78.144     | 82.258     |  34.0 | 71.17
Neigh   | 7.3551     | 7.8895     | 8.2756     |  10.4 |  7.19
Comm    | 7.9511     | 11.438     | 17.598     |  97.4 | 10.42
Output  | 2.6457     | 2.6469     | 2.657      |   0.2 |  2.41
Modify  | 6.9979     | 8.3795     | 9.3548     |  25.4 |  7.63
Other   |            | 1.303      |            |       |  1.19

Nlocal:    372.364 ave 384 max 344 min
Histogram: 1 0 0 2 1 0 0 0 2 5
Nghost:    1623.27 ave 1718 max 1553 min
Histogram: 1 3 2 0 1 0 0 2 1 1
Neighs:    0 ave 0 max 0 min
Histogram: 11 0 0 0 0 0 0 0 0 0
FullNghs:  10617.1 ave 10967 max 9797 min
Histogram: 1 0 1 1 1 0 0 0 2 5

Total # of neighbors = 116788
Ave neighs/atom = 28.5127
Neighbor list builds = 12337
Dangerous builds = 0

Total wall time: 0:02:41
