
# Define the lattice
#
variable	    lattice_constant equal 6.36339
lattice		    diamond ${lattice_constant}
lattice		    diamond 6.36339
Lattice spacing in x,y,z = 6.36339 6.36339 6.36339

# Define region
# multiples of lattice spacing
#
region 		    simbox block 0 8 0 8 0 8

# Create Atoms
#
create_box          1 simbox
Created orthogonal box = (0 0 0) to (50.9071 50.9071 50.9071)
  1 by 1 by 11 MPI processor grid
create_atoms        1 box
Created 4096 atoms
  create_atoms CPU = 0.000367403 secs
mass                1 18.015

# Define potential
#
pair_style          sw
pair_coeff          * * ML_mW.sw mW
Reading potential file ML_mW.sw with DATE: 2019-02-27

# Add velocity/set timestep
#
velocity            all create ${TEMP} 120598 rot yes dist gaussian
velocity            all create 289 120598 rot yes dist gaussian
timestep            5.0

# Define output
#
compute	            1 all msd
thermo              100
thermo_style        custom step temp press vol etotal ke pe c_1[4]

# Neighbor lists
#
neigh_modify        delay 0 every 1 check yes

# Set fixes
#
fix                 1 all momentum 10 linear 1 1 1 rescale
fix                 2 all nve
fix                 3 all temp/csvr ${TEMP} ${TEMP} 500.0 928347
fix                 3 all temp/csvr 289 ${TEMP} 500.0 928347
fix                 3 all temp/csvr 289 289 500.0 928347
fix                 4 all press/berendsen iso ${PRES} ${PRES} 1000.0 modulus 20000
fix                 4 all press/berendsen iso 1 ${PRES} 1000.0 modulus 20000
fix                 4 all press/berendsen iso 1 1 1000.0 modulus 20000

# Run 0.5 ns equilibration
#
dump		    1 all custom 1000 eq.${NAME}.dump id type x y z vx vy vz
dump		    1 all custom 1000 eq.ice_289K_1atm_ML.dump id type x y z vx vy vz
run                 100000
Neighbor list info ...
  update every 1 steps, delay 0 steps, check yes
  max neighbors/atom: 2000, page size: 100000
  master list distance cutoff = 6.00329
  ghost atom cutoff = 6.00329
  binsize = 3.00165, bins = 17 17 17
  1 neighbor lists, perpetual/occasional/extra = 1 0 0
  (1) pair sw, perpetual
      attributes: full, newton on
      pair build: full/bin/atomonly
      stencil: full/bin/3d
      bin: standard
Per MPI rank memory allocation (min/avg/max) = 4.791 | 4.803 | 4.808 Mbytes
Step Temp Press Volume TotEng KinEng PotEng c_1[4] 
       0          289   -639.97682    131927.58   -46158.731    3527.6546   -49686.386            0 
     100    189.08972    104.53458    131273.27   -44733.487    2308.1079   -47041.595  0.098144344 
     200    222.88845    64.733742    131498.71   -43881.821    2720.6694    -46602.49   0.11474835 
     300    239.48774    71.145843    131641.88   -43323.015    2923.2872   -46246.302   0.12850585 
     400    259.39439   -78.803309    131780.53   -43000.594    3166.2761    -46166.87   0.13936666 
     500    275.74193      12.7612    131917.76   -42758.186     3365.821   -46124.007   0.12566789 
     600    282.58387   -7.2180733    131978.33   -42478.499    3449.3365   -45927.836   0.14299595 
     700     282.9391    5.7507932    132050.87   -42441.791    3453.6727   -45895.464   0.14615558 
     800    294.63999    13.983257    132036.29   -42345.898    3596.4986   -45942.396   0.14598774 
     900    283.47009   -70.322615    132031.12   -42339.382    3460.1541   -45799.536   0.16203891 
    1000    288.03534    48.091364    132019.25   -42403.122    3515.8795   -45919.002   0.12716077 
    1100    292.60663    5.3633806    132042.34   -42351.153    3571.6786   -45922.832   0.13796378 
    1200    286.77597    -4.122613     132014.7   -42315.806    3500.5071   -45816.313   0.14402993 
    1300    292.64985   0.56794234    132050.36   -42253.018    3572.2061   -45825.224   0.14746638 
    1400    293.59418   -9.4795696    132032.41   -42318.884     3583.733   -45902.617    0.1447558 
    1500    292.01262    37.684963    132021.66   -42378.703    3564.4279   -45943.131   0.13023248 
    1600    287.51654   -6.3780912    132022.53   -42330.244    3509.5469   -45839.791   0.14309788 
    1700    297.31651    59.415346    132008.19    -42345.35    3629.1694   -45974.519   0.13605353 
    1800    290.23064    30.435892    131977.61   -42301.303    3542.6763    -45843.98   0.15280015 
    1900    296.74534    29.497337    132027.92   -42237.074    3622.1975   -45859.272   0.13598501 
    2000    298.61106 -0.024359306    132073.26   -42203.459    3644.9712    -45848.43   0.14639721 
    2100    285.32176   -48.452309    132023.91   -42346.447    3482.7564   -45829.204   0.14460616 
    2200    285.25705   -11.956199    131997.16   -42283.814    3481.9666   -45765.781   0.15456572 
    2300    291.78116    41.875694    132029.05   -42239.289    3561.6026   -45800.892   0.15144144 
    2400    289.46166    24.359293    132066.29     -42273.3    3533.2897   -45806.589   0.14413042 
    2500    291.32901    10.431436    132059.35   -42292.136    3556.0834   -45848.219   0.14382362 
    2600    287.49879   -34.585062    132049.32   -42330.013    3509.3302   -45839.343   0.14531867 
    2700    293.52516     51.70521    132044.34   -42328.806    3582.8906   -45911.697   0.12978575 
    2800    293.56786  -0.17894253    132058.91   -42234.532    3583.4118   -45817.943   0.15387535 
    2900    293.57381   -12.570015    132086.72   -42238.812    3583.4844   -45822.297   0.13762775 
    3000    295.07945   -4.4334172    132039.03   -42289.165    3601.8628   -45891.028   0.14725125 
    3100    293.24541    9.1594296    132044.01   -42262.087    3579.4758   -45841.563    0.1442936 
    3200    293.27761    26.216764    132030.97   -42355.109    3579.8689   -45934.978   0.13550419 
    3300     284.6577    22.110413    131970.79   -42440.409    3474.6507   -45915.059   0.15002698 
    3400    282.98395   -23.674983     132022.7   -42377.705    3454.2202   -45831.925   0.14074242 
    3500    286.75565    38.254115    132031.14   -42340.214    3500.2591   -45840.473   0.14605562 
    3600    285.69869    -7.340812    132054.33   -42349.491    3487.3573   -45836.849   0.14167092 
    3700    286.81605   -5.2068771    132025.11   -42302.798    3500.9963   -45803.795   0.14162335 
    3800    287.52733     37.30264    132046.56   -42289.185    3509.6786   -45798.864    0.1462197 
    3900    292.72607    24.266492    132047.65   -42294.522    3573.1365   -45867.658   0.14102525 
    4000    292.77139     42.84604    132050.46   -42338.609    3573.6898   -45912.298   0.13525487 
    4100    281.94268   -6.4991246    132052.99   -42358.365      3441.51   -45799.875   0.14818615 
    4200     292.1284    8.2458666    132034.16   -42311.719    3565.8412   -45877.561   0.13884905 
    4300    289.11456    11.197533     131999.6   -42438.603    3529.0529   -45967.656   0.14275707 
    4400    288.63536     16.83594    132024.01   -42334.078    3523.2036   -45857.281   0.13585133 
    4500    285.31411   -21.985133     132013.9    -42386.65    3482.6631   -45869.313   0.14623299 
    4600    283.59184    37.060649    131978.46   -42408.277    3461.6402   -45869.917   0.13896327 
    4700    288.41844    33.346536     132017.4   -42323.149    3520.5558   -45843.705   0.14067664 
    4800    295.19588    26.218681     132051.1   -42231.585     3603.284   -45834.869   0.13979685 
    4900    286.69906   -45.496118    132036.94    -42201.07    3499.5683   -45700.638   0.15711153 
    5000    284.50624   -20.726302    132026.32    -42317.95    3472.8019   -45790.752   0.14686118 
    5100     292.1257    42.457858    132027.04    -42252.48    3565.8082   -45818.288   0.14154002 
    5200    289.11042   -9.6561688    132021.21   -42324.002    3529.0024   -45853.004   0.14543781 
    5300    283.02799    10.863095    131975.48   -42414.737    3454.7577   -45869.495   0.14106785 
    5400    286.03789    8.7005696    131978.49   -42384.484    3491.4978   -45875.981   0.14625767 
    5500    291.65552    34.441832    132008.14   -42355.237     3560.069   -45915.306   0.13985681 
    5600    292.45133     21.00783    132005.36   -42387.291    3569.7829   -45957.074    0.1381594 
    5700    285.20625   -58.734806    132015.21   -42380.026    3481.3465   -45861.372   0.14792957 
    5800    290.60403     2.986923    132031.71   -42324.706     3547.234    -45871.94   0.14035431 
    5900    285.46107    2.7291908    132024.34   -42398.834    3484.4569   -45883.291   0.13935351 
    6000    283.97687    16.694195    132026.23   -42379.798    3466.3402   -45846.138   0.14518643 
    6100    290.11506    5.6450435    131999.16    -42451.38    3541.2654   -45992.645    0.1315394 
    6200    284.76946    -10.23133    131993.16   -42427.794    3476.0148   -45903.809   0.14923788 
    6300    285.52338   -26.182103    132032.44     -42314.9    3485.2175   -45800.118   0.13596324 
    6400    290.10539    18.444722    132030.67   -42365.953    3541.1474     -45907.1   0.14437175 
    6500    284.72518   -16.845301    132019.39   -42383.491    3475.4743   -45858.966    0.1439358 
    6600    292.41158    56.088434    131993.69   -42384.777    3569.2977   -45954.074    0.1358088 
    6700    282.75153     12.04848    132006.69   -42439.686    3451.3832   -45891.069   0.14278975 
    6800    286.74192   -5.9690765    132016.57   -42400.041    3500.0915   -45900.133   0.14195618 
    6900    288.22862   -21.768481     132016.9   -42320.348    3518.2388   -45838.587   0.14570192 
    7000    290.72313   -23.564789    132025.79   -42324.968    3548.6878   -45873.656   0.14772432 
    7100    289.05553    25.852869    132038.97   -42331.916    3528.3323   -45860.248   0.13221643 
    7200    287.26031    10.303435    132023.79   -42440.913    3506.4192   -45947.332   0.13934393 
    7300    280.89864    19.196873    131998.45   -42484.935    3428.7659     -45913.7   0.13581825 
    7400    285.07058    22.633153    132020.96   -42373.003    3479.6904   -45852.694   0.14135071 
    7500    287.15637   -4.6468827    132029.72   -42312.694    3505.1504   -45817.844   0.14482374 
    7600    289.64363    19.535541    132041.93   -42291.849    3535.5109    -45827.36   0.13896615 
    7700    286.74723   -15.014366       132033    -42382.18    3500.1563   -45882.336   0.14188091 
    7800      287.863    12.949161    132008.82   -42438.091    3513.7759   -45951.867   0.13578409 
    7900    283.68216   -20.430765    131995.56   -42379.814    3462.7428   -45842.557   0.14657076 
    8000    288.36105   -8.9038961    132023.05   -42288.396    3519.8553   -45808.251   0.14609729 
    8100    287.49228   -7.6681325    132021.46   -42256.554    3509.2507   -45765.804   0.15367354 
    8200    292.79933    20.185483    132026.84   -42278.183    3574.0307   -45852.213   0.13985461 
    8300    289.65007    11.516558    132028.36    -42239.54    3535.5896    -45775.13    0.1494084 
    8400    289.84025    46.533832       132057   -42216.001     3537.911   -45753.912   0.14215393 
    8500     290.1943     28.80197    132051.86   -42302.419    3542.2327   -45844.651   0.14205436 
    8600    290.76061   -28.338088    132056.58   -42323.624    3549.1454   -45872.769   0.14283614 
    8700    292.12413    13.226625    132036.44   -42291.344    3565.7889   -45857.133    0.1401762 
    8800    289.71068    6.4014477    132024.78    -42327.68    3536.3294    -45864.01   0.14060466 
    8900    291.73505    22.835125    132019.14   -42390.465    3561.0397   -45951.505   0.14037719 
    9000     291.1631    30.507611    132036.47   -42317.001    3554.0582    -45871.06   0.13682159 
    9100     286.8899   -12.221407    132014.81   -42366.291    3501.8979   -45868.189   0.14550421 
    9200    288.09914   -7.1627915    132026.29   -42265.083    3516.6583   -45781.742    0.1420201 
    9300    280.44757   -43.648706    132015.04    -42407.74      3423.26       -45831   0.14822192 
    9400    281.80505   -7.3268352    132017.47   -42373.569      3439.83   -45813.399   0.14827881 
    9500    286.61853    13.639824     132010.7   -42410.247    3498.5853   -45908.832   0.13728121 
    9600    284.74171   -33.523249    131999.12   -42408.189     3475.676   -45883.865   0.14637239 
    9700    291.43133   -24.071187    132010.97   -42285.495    3557.3324   -45842.828   0.14034937 
    9800     294.8546   -14.057006    132008.76   -42234.422    3599.1183    -45833.54   0.14866364 
    9900    290.70024   -30.218817    132022.82    -42270.18    3548.4083   -45818.588   0.14733828 
   10000    286.79774   0.59897011    132018.59   -42317.706    3500.7729   -45818.479   0.14416117 
   10100    293.63837   -15.093637    132023.63   -42273.476    3584.2724   -45857.748   0.14427203 
   10200    290.76986   -34.327214    132041.56   -42243.436    3549.2582   -45792.694   0.14460029 
   10300    291.19679   -4.9875431    132047.51    -42242.44    3554.4695    -45796.91   0.14032795 
   10400    290.98181     46.36699    132052.66   -42235.031    3551.8454   -45786.876   0.14866783 
   10500    287.57372   -9.5379683    132059.48   -42291.268    3510.2448   -45801.513   0.14221011 
   10600    288.07193     27.41999    132057.25   -42315.841    3516.3262   -45832.168   0.14293671 
   10700    286.63512    9.2380651    132037.61   -42349.178    3498.7878   -45847.966   0.13789747 
   10800    287.66084   -21.109715    132032.54   -42466.382    3511.3083   -45977.691   0.13746045 
   10900    277.91865   -56.461009     131990.4    -42449.31     3392.391   -45841.701   0.14824836 
   11000    287.87033    17.229628    132005.48   -42462.494    3513.8653   -45976.359   0.13988255 
   11100    285.45852   -31.427584    132029.52   -42378.639    3484.4258   -45863.065   0.13784845 
   11200    280.88779   -53.157707     132023.2   -42475.028    3428.6335   -45903.662   0.14077389 
   11300    285.95521   -14.465547    132013.83   -42392.754    3490.4886   -45883.243   0.13865959 
   11400    287.85701     -36.1509    132017.01    -42369.48    3513.7028   -45883.183    0.1470146 
   11500    288.78884    8.5217197    132042.79   -42278.077    3525.0771   -45803.154   0.14457508 
   11600    294.41757    26.085957    132062.53   -42279.515    3593.7837   -45873.299   0.13758017 
   11700    293.21275    36.175413    132073.02   -42146.845    3579.0771   -45725.922   0.14403384 
   11800    291.81309   -8.8833169    132074.01   -42239.095    3561.9923   -45801.087   0.14152621 
   11900    292.34322  -0.84253603    132045.84   -42282.938    3568.4633   -45851.401   0.14526635 
   12000    289.52665   -48.151085    132061.95   -42234.542     3534.083   -45768.625    0.1503344 
   12100    291.99075     22.57948    132065.07   -42308.306    3564.1608   -45872.467   0.13517047 
   12200    294.30958   -13.818376    132054.02   -42298.079    3592.4655   -45890.544   0.13797366 
   12300    287.45196    52.505391    132040.13   -42351.437    3508.7585   -45860.195   0.13727367 
   12400    291.83764   -5.9149781    132027.76   -42316.726     3562.292   -45879.018    0.1405362 
   12500    290.50427    13.798752    132058.39   -42261.817    3546.0163   -45807.833   0.14837041 
   12600    291.50477   -18.103091    132067.58   -42256.754    3558.2288   -45814.983   0.13850957 
   12700    291.39623   -1.9374606    132069.36   -42287.513     3556.904   -45844.417   0.14036561 
   12800    293.98857    40.766319    132065.47    -42317.25    3588.5471   -45905.797   0.13985031 
   12900    291.15617    10.039686    132044.97   -42360.326    3553.9737     -45914.3   0.14092031 
   13000    293.26414    37.925095    132043.21   -42356.881    3579.7045   -45936.586   0.14108681 
   13100    286.96089   -13.838196    132055.06   -42389.115    3502.7643    -45891.88   0.13953229 
   13200    287.55768    7.3539423    132065.32    -42428.62     3510.049   -45938.669   0.13091438 
   13300    283.67158    -25.94532    132050.44   -42486.186    3462.6136     -45948.8   0.13798595 
   13400    279.76637   -11.478278    132025.28   -42530.939     3414.945   -45945.884   0.13391735 
   13500    286.60031   -26.424984    132034.45   -42413.701    3498.3629   -45912.064   0.14242828 
   13600    288.97174    7.9983967    132042.71   -42387.238    3527.3097   -45914.548   0.13667679 
   13700     287.4775    42.236575    132042.46   -42396.427    3509.0703   -45905.497   0.13180813 
   13800    290.53922    49.120292    132056.17   -42357.485    3546.4429   -45903.927   0.13963918 
   13900    291.87094    30.935895    132047.27   -42319.868    3562.6984   -45882.566    0.1372444 
   14000    292.36012   -16.448259    132052.03   -42225.757    3568.6695   -45794.427   0.14627449 
   14100    282.44993   -43.376701    132044.36   -42311.088    3447.7017   -45758.789   0.14694469 
   14200    289.18931    21.498818    132055.97   -42310.219    3529.9653   -45840.184   0.13614739 
   14300    289.84507    1.6293008    132044.29   -42345.045    3537.9698   -45883.015   0.13988051 
   14400    288.92072   -25.106227    132029.85   -42392.428    3526.6868   -45919.115    0.1417678 
   14500    289.05709    35.942206    132028.54   -42395.659    3528.3514   -45924.011   0.13506407 
   14600    283.17286   -52.071352    132020.97   -42388.645     3456.526   -45845.171   0.14702159 
   14700     292.7147    14.123229    132035.14    -42344.79    3572.9977   -45917.788   0.13478283 
   14800    292.69964    42.667812    132045.18   -42306.391    3572.8139   -45879.205   0.14046079 
   14900    292.37399    40.366332    132050.21   -42290.483    3568.8389   -45859.322   0.13833717 
   15000    290.46492    15.093967    132049.96   -42359.921    3545.5359   -45905.457   0.13595345 
   15100    279.56174    -4.027342    132030.79    -42376.81    3412.4472   -45789.258    0.1420872 
   15200     288.3282   -37.390671    132065.37   -42340.286    3519.4543    -45859.74   0.14192443 
   15300    288.07559   0.10671189    132055.16   -42384.852    3516.3708   -45901.223   0.13589707 
   15400     281.7914   -11.640961    132039.71   -42424.578    3439.6634   -45864.241   0.14239379 
   15500    292.34021    29.366941    132059.12   -42348.165    3568.4265   -45916.591     0.132585 
   15600    295.12228   -30.238017    132061.58   -42230.079    3602.3857   -45832.464   0.14572181 
   15700    294.87803    14.655134    132096.19   -42219.649    3599.4042   -45819.053   0.14012398 
   15800    291.26074   -3.8242415    132098.92   -42231.477      3555.25   -45786.727   0.13716701 
   15900    295.41636    12.266631     132089.1   -42233.628    3605.9753   -45839.603   0.14003697 
   16000    291.11915   -6.4352841    132101.94   -42292.356    3553.5217   -45845.878   0.13476993 
   16100    286.55501   -12.685831    132061.82   -42359.279    3497.8101   -45857.089   0.13936722 
   16200    289.58543    -3.568853       132081   -42327.991    3534.8006   -45862.792   0.13785002 
   16300    287.78916    25.587794    132072.42   -42336.097    3512.8745   -45848.972   0.13452259 
   16400    284.90745   -22.329896    132070.32   -42357.415    3477.6992   -45835.114   0.13663352 
   16500    291.20657    5.5558947    132070.64   -42268.005    3554.5889   -45822.594   0.14179771 
   16600    291.52781   -38.272271    132087.69   -42244.463    3558.5101   -45802.973   0.13771765 
   16700    294.47921    21.167246    132101.14   -42277.282    3594.5361   -45871.818   0.14148058 
   16800    289.07682  -0.80335372    132087.79   -42321.738    3528.5922    -45850.33   0.13204387 
   16900    282.67278    22.151432    132063.61   -42334.902    3450.4219   -45785.324   0.14047961 
   17000    285.57776   -28.400716    132070.29   -42394.954    3485.8812   -45880.836   0.13806774 
   17100    288.75327   -13.331329    132086.64   -42331.478    3524.6428   -45856.121   0.14012596 
   17200    288.39412    15.747787    132064.88   -42387.044    3520.2589   -45907.303   0.13580337 
   17300    285.97101   -18.996469    132062.68   -42460.736    3490.6815   -45951.417   0.13415613 
   17400    290.38736    3.0094447    132044.47   -42482.698    3544.5893   -46027.287   0.12545051 
   17500    288.37703    7.4434124    132052.32   -42361.009    3520.0503   -45881.059   0.14307243 
   17600    284.91809   -24.221791    132067.02   -42374.388     3477.829   -45852.217   0.13852227 
   17700    285.18379   -8.9948793     132046.6   -42411.269    3481.0723   -45892.342   0.14065315 
   17800    285.25266    3.3769503    132030.25   -42401.469     3481.913   -45883.383   0.13769351 
   17900    287.05862    25.394877     132046.7   -42326.042    3503.9573   -45829.999   0.13383979 
   18000    289.09412   -7.2848327    132052.05   -42282.139    3528.8035   -45810.942   0.14510581 
   18100    293.17253    3.5371574    132092.51   -42254.497    3578.5862   -45833.083   0.14199718 
   18200    288.06029    13.608497    132064.19   -42348.178     3516.184   -45864.362   0.14193475 
   18300    290.79021    23.846498    132050.84   -42287.809    3549.5066   -45837.316   0.14104902 
   18400    292.99472    33.823888    132051.38   -42396.585    3576.4157   -45973.001    0.1308338 
   18500     289.8896    3.5251217    132037.36   -42358.087    3538.5134   -45896.601   0.13788748 
   18600    287.84673    -18.16628    132046.52   -42282.919    3513.5773   -45796.497   0.14687473 
   18700    289.86291   -17.118275    132051.05   -42314.896    3538.1877   -45853.084   0.13783291 
   18800     287.5619     11.87333     132045.7   -42342.456    3510.1005   -45852.556   0.14165545 
   18900    286.26448    7.8227755     132061.8   -42315.617    3494.2637    -45809.88    0.1336919 
   19000     292.9363    1.9767953    132067.79   -42292.359    3575.7027   -45868.061   0.14212376 
   19100    289.28767   -18.182834    132063.24   -42266.336     3531.166   -45797.502   0.14290674 
   19200    283.78409   -32.772067    132045.66   -42319.361     3463.987   -45783.348    0.1474958 
   19300    297.22416    13.797143    132069.64    -42177.28     3628.042   -45805.322   0.14087508 
   19400    290.94007   -17.350227    132058.95   -42261.323    3551.3359   -45812.658   0.14102993 
   19500    296.50477    0.4591495    132062.62   -42221.535    3619.2609   -45840.796    0.1388864 
   19600    293.27906   -17.593883    132080.94   -42255.859    3579.8865   -45835.746   0.14690332 
   19700    289.56122  -0.45909088    132082.83   -42261.802     3534.505   -45796.307   0.14286239 
   19800    293.57131    14.929274    132063.96   -42256.357    3583.4539   -45839.811   0.13785362 
   19900    289.42456    25.319853    132069.64   -42274.034    3532.8369   -45806.871   0.13600604 
   20000     294.1769   -18.344096    132059.66   -42315.648     3590.846   -45906.494   0.13752187 
   20100    285.14203    -44.99396    132041.54    -42357.59    3480.5625   -45838.152   0.14502437 
   20200    283.52107   -6.1755575    132041.51   -42381.456    3460.7765   -45842.233   0.14154738 
   20300    289.99661    35.607433    132040.22   -42307.435    3539.8197   -45847.255   0.13632355 
   20400    285.94527   -9.5292765    132062.39   -42323.282    3490.3673   -45813.649   0.13988476 
   20500    285.83626   -9.4615006    132061.53     -42378.5    3489.0367   -45867.537   0.13827034 
   20600    282.41419   -28.771771    132045.65   -42407.995    3447.2654   -45855.261   0.13994982 
   20700    287.65878    27.928802    132042.78   -42370.216     3511.283   -45881.499   0.14115284 
   20800    291.85013    14.398537    132057.94   -42288.611    3562.4445   -45851.055   0.13543842 
   20900     288.4324   -64.956439    132045.68   -42298.833    3520.7262    -45819.56   0.14796188 
   21000    291.56578    8.8113681    132054.88   -42343.664    3558.9736   -45902.638   0.13374362 
   21100    284.90636   -42.064114    132063.31   -42294.461    3477.6859   -45772.147   0.14496179 
   21200    289.94657    19.307752    132086.08   -42289.754    3539.2088   -45828.963   0.14052447 
   21300    299.97204    6.5850621    132079.03   -42248.613    3661.5839   -45910.197   0.13424582 
   21400    289.61677    17.984801       132075   -42294.701    3535.1831   -45829.884   0.13779635 
   21500    293.84828    20.032813    132089.11   -42240.132    3586.8347   -45826.966    0.1401416 
   21600    290.12141   -14.252156    132110.89   -42220.804     3541.343   -45762.147   0.13855245 
   21700    287.21675   -28.881306    132088.92    -42326.79    3505.8875   -45832.678   0.14234276 
   21800     287.2007   -1.2300946    132069.08   -42345.882    3505.6915   -45851.574   0.13546533 
   21900    292.28713    12.004201    132043.14   -42342.405    3567.7786   -45910.183   0.13866089 
   22000    286.99603   -1.7966419    132029.47   -42405.142    3503.1933   -45908.335   0.14014212 
   22100    285.96818    8.1136615    132032.94    -42379.68    3490.6469   -45870.327   0.13922896 
   22200    278.40848    -64.46245    131987.64   -42497.609    3398.3701   -45895.979   0.14123376 
   22300    284.43937   -13.518142    132009.31   -42416.659    3471.9856   -45888.645   0.13762516 
   22400    291.95619    22.287901    132037.41   -42306.006     3563.739   -45869.745   0.13849707 
   22500    290.61025   -21.710691    132047.53   -42315.793      3547.31   -45863.103   0.14071785 
   22600    290.56773   -7.5503074    132035.99   -42332.726    3546.7909   -45879.517   0.13961298 
   22700    288.75603    10.504336    132027.77   -42380.469    3524.6766   -45905.146   0.13675949 
   22800    294.68058    5.6426943    132045.02   -42309.758    3596.9941   -45906.752   0.14044492 
   22900    286.91191   -11.253491     132032.9   -42341.677    3502.1664   -45843.844    0.1393242 
   23000    284.27835   -9.7115056     132012.3   -42397.954    3470.0201   -45867.974   0.14188982 
   23100    291.06213    16.406592    132015.41   -42315.295    3552.8258   -45868.121   0.13793436 
   23200    287.46884   -23.833193    132024.14   -42310.831    3508.9646   -45819.796   0.14159885 
   23300    281.83195   -30.367016    132007.82   -42311.729    3440.1583   -45751.887   0.14127474 
   23400    292.58884    18.739004    132031.33   -42294.067    3571.4615   -45865.528    0.1417233 
   23500    295.77899     9.287241    132023.88   -42275.468    3610.4018    -45885.87   0.13826737 
   23600    293.99951   -35.152859    132039.54   -42223.367    3588.6806   -45812.048   0.14952778 
   23700    293.45798     40.79428    132031.55   -42250.907    3582.0705   -45832.977   0.13843795 
   23800    288.82736   -3.6781505    132011.36   -42252.074    3525.5472   -45777.622   0.14728262 
   23900    287.32422    17.289934    131988.82   -42345.241    3507.1992   -45852.441   0.13920946 
   24000    291.82097    6.0515269    132000.19   -42295.667    3562.0885   -45857.755   0.13935191 
   24100    292.80895    8.3756052    132012.96   -42265.447    3574.1482   -45839.595   0.14272955 
   24200     288.7714   -2.6834958    132011.13   -42321.804    3524.8641   -45846.668   0.13565041 
   24300    288.15951   -39.838335    131995.69   -42369.787    3517.3952   -45887.182   0.14064797 
   24400    286.50599     25.74883    131972.45   -42416.568    3497.2117    -45913.78   0.13669459 
   24500    286.12695   -34.455632     131955.4   -42370.986    3492.5849   -45863.571   0.14340827 
   24600    286.68761    -27.96622    131962.02   -42417.721    3499.4286    -45917.15    0.1429775 
   24700    285.93796   -16.986203    131973.32   -42421.361    3490.2781   -45911.639   0.13843814 
   24800    285.93132    10.751216    131978.71   -42391.825    3490.1969   -45882.022   0.13862056 
   24900     284.8068   -2.9973565    132000.18   -42407.672    3476.4706   -45884.143   0.14286103 
   25000    290.59721   -20.195473    131986.19   -42371.855    3547.1508   -45919.006   0.13742088 
   25100    287.73591    12.639754    131971.91   -42419.451    3512.2245   -45931.676   0.14340696 
   25200    281.14438   -15.126964    131988.76   -42530.347    3431.7656   -45962.112   0.12988961 
   25300    284.71293    24.157129     131979.5   -42473.281    3475.3248   -45948.606   0.13777926 
   25400    285.26721    11.289273    132011.55   -42414.048    3482.0905   -45896.139   0.13540559 
   25500    288.96046   -18.960931    132015.41   -42363.553    3527.1719   -45890.725   0.13936214 
   25600    293.56681   -20.971613    132040.79   -42222.254    3583.3989   -45805.653   0.14343893 
   25700    286.00529   -8.4321071    132020.89   -42331.858    3491.0999   -45822.958   0.14206584 
   25800     293.3423    16.637146    132038.48   -42226.865    3580.6585   -45807.524   0.13924046 
   25900    293.25487    20.029078    132047.33   -42226.534    3579.5913   -45806.125   0.14391545 
   26000    293.71559    2.4301332    132040.89   -42260.516     3585.215   -45845.731   0.13693541 
   26100    287.98705     2.406719     132045.5   -42281.289    3515.2901   -45796.579   0.14113819 
   26200    285.29533   -0.3486356    132037.45   -42319.542    3482.4338   -45801.975    0.1427948 
   26300    287.46125    8.5299367    132016.67   -42378.198     3508.872    -45887.07   0.13734914 
   26400    282.06716   -43.567784    132001.02   -42394.578    3443.0295   -45837.607   0.14312352 
   26500    294.83283    22.006383    132041.63   -42305.284    3598.8525   -45904.136   0.13662788 
   26600     291.8307   -15.843926    132034.96   -42264.242    3562.2073   -45826.449   0.14237222 
   26700    296.24155    21.882701    132044.23   -42228.677     3616.048   -45844.725   0.14151594 
   26800    291.18973    9.4535982    132026.17   -42288.734    3554.3833   -45843.117   0.14229444 
   26900    285.72841   -19.225461     132041.7   -42259.095    3487.7202   -45746.815   0.14054173 
   27000    293.02159      3.72009    132048.79    -42257.19    3576.7438   -45833.934   0.14317762 
   27100    291.62332   -2.6326606    132039.33   -42240.705    3559.6758   -45800.381   0.13903404 
   27200    290.09357   -34.039142    132040.72   -42281.422    3541.0031   -45822.426   0.14681466 
   27300    297.69569    5.0277349    132078.28   -42189.048    3633.7978   -45822.845   0.13959649 
   27400    290.98102   -19.490812    132072.41    -42220.36    3551.8357   -45772.195   0.14406297 
   27500    290.68408    2.0843923    132066.61   -42330.629    3548.2111    -45878.84   0.13331822 
   27600    285.46907   -18.808536    132013.57   -42434.468    3484.5546   -45919.022   0.13636205 
   27700    285.86472    -18.11629    132011.92   -42346.353     3489.384   -45835.737   0.14183163 
   27800     290.4441    5.3899667    132031.05   -42262.172    3545.2818   -45807.454   0.14410962 
   27900    290.82387    1.8747919    132038.91   -42359.658    3549.9175   -45909.575   0.13381114 
   28000    282.47384    8.5343288    132013.21   -42417.016    3447.9936    -45865.01   0.13776397 
   28100    285.57012   -2.9854524    132025.47   -42394.818    3485.7881   -45880.606   0.13640406 
   28200    290.69479    1.8412003    132031.16   -42373.781    3548.3418   -45922.123   0.13777194 
   28300    288.56504   -6.7024684    132040.23   -42364.249    3522.3453   -45886.594   0.14079301 
   28400    288.23952    4.8500669    132049.06   -42353.912    3518.3718   -45872.283   0.13540106 
   28500    289.59916   -50.737562    132015.05   -42358.286    3534.9682   -45893.255    0.1385395 
   28600    286.62546   -27.397818    132025.77   -42379.085    3498.6699   -45877.755   0.13336662 
   28700    290.91941    6.2415856    132010.69   -42363.417    3551.0837   -45914.501   0.13708497 
   28800    287.40233    2.3747657    132023.71   -42396.464    3508.1528   -45904.617   0.13691653 
   28900    288.61788    28.469441    132031.87   -42361.846    3522.9902   -45884.837   0.13845735 
   29000    286.86961    14.751749    132045.43   -42334.378    3501.6501   -45836.028   0.13507179 
   29100    290.74306    17.051043    132043.06   -42297.726    3548.9311   -45846.657   0.14221939 
   29200    293.84995    59.494926    132074.28   -42214.362    3586.8551   -45801.217    0.1368994 
   29300     289.9526    4.1889009    132042.13   -42240.753    3539.2825   -45780.035   0.14789868 
   29400    286.99115   -34.804369    132054.48   -42289.561    3503.1338   -45792.694   0.13855163 
   29500    294.14346    7.8157799    132063.51   -42275.308    3590.4378   -45865.746   0.13687308 
   29600    294.78858    28.558582    132057.42   -42266.331    3598.3123   -45864.643    0.1347595 
   29700    288.36806   -46.314062    132045.66   -42328.993    3519.9408   -45848.934    0.1404338 
   29800    287.49771   -26.838005     132006.2   -42428.642     3509.317   -45937.959   0.13811484 
   29900    288.17374    11.267609    132018.28    -42374.23    3517.5688   -45891.799   0.13989529 
   30000    287.00412    28.178391    132005.64   -42425.103    3503.2921   -45928.395   0.13022766 
   30100      290.724    11.558778    132020.03   -42326.724    3548.6985   -45875.422   0.13956265 
   30200    284.36702   -13.440246    132046.55   -42375.374    3471.1025   -45846.477   0.13825724 
   30300    290.92881    8.1558773    132061.36   -42372.599    3551.1985   -45923.798   0.13732544 
   30400    285.18262   -35.896486    132060.93    -42341.33     3481.058   -45822.388   0.14200678 
   30500    282.19563   -4.0324607    132025.52    -42459.05    3444.5976   -45903.647   0.13372719 
   30600    286.69422    29.611289    132018.88   -42397.146    3499.5093   -45896.655   0.13900782 
   30700    288.22074     20.27063     132036.6    -42431.19    3518.1426   -45949.332    0.1346855 
   30800    284.36349    4.8838378    132032.41   -42375.638    3471.0594   -45846.697   0.14039692 
   30900    285.03993   -15.026705    132082.88   -42311.688    3479.3162   -45791.004    0.1433648 
   31000    288.64163   -13.835043    132088.87   -42337.169    3523.2801   -45860.449   0.13924786 
   31100    286.75329    -18.94851    132080.51   -42348.324    3500.2303   -45848.554   0.13618488 
   31200    285.79083   -7.3788393    132068.87   -42336.607    3488.4821   -45825.089   0.13909566 
   31300    289.56373   -15.345716    132098.92   -42233.587    3534.5357   -45768.123   0.13576694 
   31400    291.89365   -7.1235357     132073.2   -42316.871    3562.9757   -45879.847    0.1398963 
   31500    290.40499   -6.7557864    132059.64   -42273.184    3544.8044   -45817.988   0.13752604 
   31600    288.67578   -18.662335    132059.91   -42301.691     3523.697   -45825.388   0.14294175 
   31700     287.9304    32.712802    132071.02   -42296.603    3514.5985   -45811.201   0.14138714 
   31800    286.93787   -14.965194    132071.67   -42276.633    3502.4833   -45779.117   0.14345342 
   31900     290.5117   -2.9444917    132065.42   -42339.978     3546.107   -45886.085   0.13749089 
   32000     297.8095    20.606193    132053.67   -42327.471     3635.187   -45962.658   0.13671484 
   32100    291.42134   -8.1154073    132060.06   -42354.804    3557.2105   -45912.015   0.13460352 
   32200     289.0845   -44.212055    132038.56   -42462.369     3528.686   -45991.054   0.13910294 
   32300    284.58223     2.483711    132036.02   -42420.073    3473.7294   -45893.803   0.13520054 
   32400    288.15628     -17.8662    132041.52   -42439.053    3517.3558   -45956.409   0.13505316 
   32500     288.8889   -8.5048021    132060.14   -42342.736    3526.2984   -45869.035   0.13987694 
   32600    291.04038   -13.330881    132082.78   -42296.798    3552.5603   -45849.358   0.13491283 
   32700    289.32868    14.001109    132057.36   -42387.442    3531.6666   -45919.109   0.13684946 
   32800    287.93754    24.252939     132097.6   -42268.626    3514.6857   -45783.312   0.13607077 
   32900    285.54201   -21.548489    132090.29   -42314.249    3485.4449   -45799.694   0.14110937 
   33000    291.06106    6.4858584    132090.75   -42304.649    3552.8127   -45857.462   0.13738382 
   33100    289.05468     16.97516    132076.87   -42315.667     3528.322   -45843.989   0.13699697 
   33200    283.71257    5.3841309    132066.86   -42333.691     3463.114   -45796.805   0.13686854 
   33300    287.21454   -50.773358    132064.92    -42311.99    3505.8605    -45817.85   0.14360368 
   33400    287.29084    7.8038512    132060.12   -42347.772    3506.7918   -45854.563   0.13469935 
   33500    283.59341   -26.881576    132030.82   -42399.066    3461.6594   -45860.726   0.14534871 
   33600    287.34157    9.8686849    132051.55     -42376.1    3507.4111   -45883.512   0.13717769 
   33700    294.59695    18.277773    132081.64   -42337.154    3595.9733   -45933.128   0.13489439 
   33800    297.57956   -11.712581    132105.75   -42200.051    3632.3803   -45832.431   0.13792265 
   33900    294.10707    15.610229    132111.63   -42187.662    3589.9936   -45777.656    0.1395205 
   34000    290.36295   -3.2841209    132068.35   -42345.474    3544.2913   -45889.766    0.1372081 
   34100    289.17112    8.9258291    132053.51   -42335.919    3529.7434   -45865.663    0.1393203 
   34200    288.49075   -7.9679788    132028.86   -42368.169    3521.4385   -45889.608   0.13514278 
   34300    285.65819   -28.517618    132010.64   -42414.801     3486.863   -45901.664   0.13759338 
   34400    286.38083   -14.076814    132001.54   -42383.223    3495.6838   -45878.906   0.13845974 
   34500     292.4288     18.90007    132031.17   -42254.094    3569.5079   -45823.602   0.14047847 
   34600    297.42844     32.38778    132044.06   -42216.897    3630.5356   -45847.433   0.14309695 
   34700     291.9067    10.160472    132038.13    -42313.43     3563.135   -45876.565   0.13643699 
   34800    286.82797   -5.3489298    132008.61   -42360.979    3501.1419   -45862.121   0.14040608 
   34900    290.56918    32.653169    132023.69   -42322.067    3546.8087   -45868.875   0.13857667 
   35000    289.64207    11.622936    132000.58   -42336.295    3535.4919   -45871.787   0.14030498 
   35100    292.46797    31.503791    132019.66   -42303.572     3569.986   -45873.558   0.14036191 
   35200    290.66728    24.779927    132041.64   -42257.654    3548.0061    -45805.66   0.14223844 
   35300    290.71584    16.535041    132061.79   -42295.276    3548.5988   -45843.875   0.13595228 
   35400    288.38553   -28.033793    132073.53   -42342.248    3520.1541   -45862.403   0.14288495 
   35500    289.83509    3.7457046     132057.3   -42352.232     3537.848   -45890.081   0.13239251 
   35600    289.42082    8.2128873    132078.75   -42337.012    3532.7913   -45869.803   0.13899021 
   35700    292.11435    22.949117    132072.32   -42290.601    3565.6696   -45856.271   0.13199682 
   35800    298.65882    39.973184    132105.91   -42161.691    3645.5541   -45807.245   0.13627499 
   35900     291.8673    23.574285    132097.19   -42255.001     3562.654   -45817.655    0.1377154 
   36000     287.4551    14.114317    132073.29   -42326.973    3508.7968   -45835.769   0.13733569 
   36100    285.93679    15.377304    132051.36   -42367.079    3490.2637   -45857.343   0.14040501 
   36200    291.04959   -16.398147    132049.58    -42349.69    3552.6727   -45902.363   0.13699753 
   36300    290.38549   -6.8283042    132038.99   -42351.591    3544.5664   -45896.157    0.1377898 
   36400    288.98759   -42.327832    132039.29   -42365.513    3527.5031   -45893.016   0.14248024 
   36500    285.76271    -28.40295    132024.84   -42371.333    3488.1388   -45859.472   0.14013853 
   36600    287.93306    12.200494    132025.21   -42330.353    3514.6311   -45844.984   0.13669235 
   36700    285.79409   -8.8468123    132035.94   -42382.979    3488.5218     -45871.5   0.13757745 
   36800    285.01527   -25.853528    132016.88   -42442.492    3479.0153   -45921.507   0.13157472 
   36900    289.15287    25.570547    132032.15   -42391.674    3529.5206   -45921.195   0.13694953 
   37000     293.2924    30.779211    132031.12   -42373.107    3580.0494   -45953.156   0.13209671 
   37100    286.53522    29.251718    132027.86   -42401.408    3497.5684   -45898.976   0.13586503 
   37200    279.98575   -12.351421    132022.71   -42409.807    3417.6228    -45827.43   0.13742083 
   37300    288.37982    17.871477    132027.48   -42419.588    3520.0844   -45939.672   0.13264424 
   37400    282.63495    6.3609255    132019.94   -42446.734    3449.9601   -45896.694   0.13603131 
   37500    290.59488   -2.6700392    132029.69   -42404.445    3547.1224   -45951.567   0.13587963 
   37600    286.52168    21.143577    131999.39   -42428.205    3497.4032   -45925.609   0.13606953 
   37700    278.79234   -1.8763432    131980.46   -42528.892    3403.0556   -45931.948   0.13528674 
   37800    277.85184    -13.95427    131967.77   -42557.286    3391.5754   -45948.862   0.13188051 
   37900    284.10566    31.265957    131987.79   -42439.175    3467.9122   -45907.087   0.13777934 
   38000    284.16028    24.228362    132035.81   -42357.536    3468.5789   -45826.115   0.13659615 
   38100    288.07508      49.2615    132052.83   -42352.097    3516.3646   -45868.462   0.13493613 
   38200    294.71525    29.914291    132066.24   -42305.979    3597.4173   -45903.397   0.13082215 
   38300    287.61312    8.0056729    132069.49   -42334.993    3510.7258   -45845.719   0.13408006 
   38400    289.59612   -56.414874    132062.99   -42297.921    3534.9311   -45832.852   0.14156494 
   38500    289.91055     15.92136     132069.2   -42332.883    3538.7692   -45871.652   0.13603761 
   38600    288.75136   -23.899758    132077.54   -42321.149    3524.6196   -45845.768   0.13997339 
   38700    293.60687   -27.366919    132098.03   -42298.526    3583.8879   -45882.414   0.13293728 
   38800    288.29877    22.377518     132065.6   -42340.146    3519.0951   -45859.241   0.13820033 
   38900    284.73328    19.372159    132082.06   -42243.475    3475.5732   -45719.048    0.1406624 
   39000    285.56922   -24.008544    132085.91   -42291.332     3485.777   -45777.109   0.14358134 
   39100    285.05486   -27.208684    132078.75   -42327.612    3479.4985   -45807.111   0.14252697 
   39200    287.23116    3.5799522    132071.92   -42434.529    3506.0634   -45940.593   0.12796605 
   39300    286.99576    13.960948    132025.51   -42469.141      3503.19   -45972.331   0.13283862 
   39400    293.12355   -20.494861    132059.84   -42312.276    3577.9883   -45890.265   0.13911315 
   39500    291.31912    7.2831926    132058.53   -42333.411    3555.9628   -45889.374    0.1370569 
   39600     290.2361 -0.021962323    132081.23   -42309.221    3542.7429   -45851.964    0.1405386 
   39700    289.01652   -11.034316    132079.23   -42319.197    3527.8562   -45847.053   0.13531769 
   39800     287.1421    31.093757    132058.41   -42345.721    3504.9762   -45850.697   0.13899081 
   39900    290.54173    36.622599    132050.26   -42292.967    3546.4735    -45839.44   0.14145239 
   40000    285.94809   -5.4829772    132058.11   -42337.723    3490.4017   -45828.125   0.13844863 
   40100    287.52274   -13.606905     132071.1   -42365.725    3509.6226   -45875.348   0.14039334 
   40200    287.47216    5.4857666    132050.93   -42335.942    3509.0052   -45844.947   0.13382757 
   40300    285.84251   -33.375624    132033.96   -42399.064    3489.1129   -45888.177    0.1378655 
   40400    282.70637   -29.145394     132043.2   -42439.745    3450.8319   -45890.577   0.13913531 
   40500    285.65789    14.252276    132049.73   -42332.349    3486.8594   -45819.209   0.13910947 
   40600     288.6765    9.5364582    132051.04   -42343.706    3523.7058   -45867.411   0.14375124 
   40700    286.39838   -23.226535    132011.49   -42403.677    3495.8982   -45899.576   0.13456432 
   40800    283.17798   -8.4510719    132028.96   -42316.868    3456.5886   -45773.457   0.14321479 
   40900    288.26607    -6.372548    132038.01   -42379.534    3518.6959    -45898.23   0.14039699 
   41000    285.15538   -17.772236    132023.63   -42380.048    3480.7256   -45860.774    0.1386641 
   41100    290.14469    14.277219    132026.56   -42386.539    3541.6271   -45928.166   0.13993343 
   41200    291.20971   -4.3899765    132048.56   -42285.093    3554.6272    -45839.72   0.13696821 
   41300    289.08807   -54.530837    132060.58   -42334.808    3528.7296   -45863.537    0.1416441 
   41400    294.62949   -19.728531    132077.07   -42316.686    3596.3704   -45913.057    0.1375564 
   41500    290.32286  -0.13537786    132070.52   -42286.524     3543.802   -45830.326   0.13911307 
   41600    288.19721   -13.268533    132072.78   -42309.023    3517.8554   -45826.878   0.14048953 
   41700    287.44954    -6.013541    132055.52   -42414.013     3508.729   -45922.742    0.1340852 
   41800    290.40981    8.5277763    132083.26   -42341.303    3544.8633   -45886.166   0.13627884 
   41900    288.33299    6.2174795    132048.45   -42414.588    3519.5127   -45934.101   0.13628675 
   42000    286.86671   -24.226053    132051.81   -42388.347    3501.6147   -45889.962   0.13999929 
   42100    287.68663    47.478514    132030.54   -42457.499     3511.623   -45969.122   0.13097913 
   42200    284.67363   -8.0161773    132032.11   -42399.789    3474.8451   -45874.634   0.13580608 
   42300    290.31085   -16.975184    132059.47   -42385.861    3543.6553   -45929.516   0.13658022 
   42400    286.20795   -18.833595    132052.23   -42385.274    3493.5736   -45878.848    0.1389156 
   42500    284.95658    1.0017576    132044.33   -42355.739    3478.2989   -45834.038   0.14261837 
   42600    287.29282   -20.855677     132055.3   -42376.894     3506.816    -45883.71   0.13597327 
   42700    284.13861   -44.304443    132032.74   -42459.094    3468.3144   -45927.409   0.13643958 
   42800    290.23911    5.6846005    132033.55   -42384.406    3542.7797   -45927.185   0.13647277 
   42900    287.50649   -2.7227323    132027.13   -42410.399    3509.4242   -45919.824   0.13291331 
   43000    285.12688   -9.9171042    132028.31   -42389.983    3480.3777   -45870.361    0.1431676 
   43100    285.26939   -11.628329    132034.29   -42342.802    3482.1171   -45824.919   0.13770213 
   43200    290.48902    42.968006       132055   -42359.709    3545.8302   -45905.539   0.13556579 
   43300    285.89885   -29.093082    132024.15   -42408.211    3489.8006   -45898.011   0.13802777 
   43400    292.30029    5.3852636    132047.18   -42337.508    3567.9393   -45905.448   0.13288801 
   43500    282.44474   -23.068037    132040.44    -42339.26    3447.6383   -45786.898   0.14717888 
   43600    286.68415    2.8851353    132028.02   -42366.066    3499.3863   -45865.453   0.13641193 
   43700    284.19586   -10.077696    131996.93   -42437.769    3469.0132   -45906.782   0.14051692 
   43800    281.89423      -14.713    132018.39   -42459.132    3440.9185   -45900.051    0.1377827 
   43900    286.95961    15.701216    132013.29    -42377.79    3502.7487   -45880.539   0.13397001 
   44000    283.53792  -0.32557777    132020.27   -42471.484    3460.9821   -45932.466    0.1384376 
   44100     285.1232    29.893235    132037.06   -42473.995    3480.3327   -45954.328   0.13146627 
   44200    284.83017    20.107157    132037.96   -42386.741    3476.7559   -45863.497    0.1416806 
   44300     283.5007   -38.630202    132043.77   -42395.832    3460.5278    -45856.36   0.14072084 
   44400    288.66776    10.280356    132020.78   -42430.605    3523.5991   -45954.205   0.13236256 
   44500    285.56743   -30.403033    132039.94   -42417.339    3485.7552   -45903.094   0.13883993 
   44600    287.72453    12.559163    132016.37   -42402.132    3512.0856   -45914.218   0.13852367 
   44700    285.87515    31.566571    132017.74   -42385.152    3489.5113   -45874.663   0.13997359 
   44800     293.7138    24.683646    132029.57    -42385.41    3585.1932   -45970.603   0.13556686 
   44900    286.40157   0.11487771    132062.32   -42359.743     3495.937    -45855.68   0.13735844 
   45000    281.34266    9.1463174    132040.86   -42364.309    3434.1858   -45798.495   0.14170531 
   45100    286.70325    24.606713    132050.37   -42268.173    3499.6194   -45767.793   0.14447954 
   45200    292.78613    19.819587    132067.97   -42314.982    3573.8696   -45888.851   0.14008471 
   45300    292.32591    11.865038    132048.05   -42350.634     3568.252   -45918.886   0.13782063 
   45400    292.02558   -6.9914869    132023.05   -42368.145     3564.586   -45932.731   0.13890034 
   45500    291.29524    10.230224    132022.71   -42326.004    3555.6713   -45881.675   0.13711969 
   45600    286.44025   -26.430712    132021.18   -42293.321    3496.4091   -45789.731   0.14853442 
   45700    284.79756   -32.151411    132016.94   -42275.047    3476.3578   -45751.405   0.15164617 
   45800    289.25999   -1.4858505    132021.63   -42320.723    3530.8281   -45851.552   0.14099114 
   45900    291.75077   0.66277288    132033.91   -42254.692    3561.2316   -45815.923   0.14557955 
   46000    292.31971    38.801245    132056.27   -42285.988    3568.1764   -45854.164   0.13690509 
   46100    291.65804   -43.415445    132070.56   -42201.901    3560.0997   -45762.001   0.14843346 
   46200    291.34035    -17.76742    132075.53   -42261.719    3556.2218    -45817.94    0.1463784 
   46300    295.42652    21.007087    132079.07   -42230.927    3606.0994   -45837.026   0.13773142 
   46400    288.77436   -1.2079685    132071.33   -42295.193    3524.9003   -45820.093   0.13980839 
   46500     292.8136    -24.21956    132065.27   -42230.061     3574.205   -45804.266   0.14154174 
   46600    282.64372    4.1352614    132045.56   -42328.292    3450.0672   -45778.359   0.14263316 
   46700      286.117   -6.4658076    132063.56   -42263.212    3492.4635   -45755.675   0.14685277 
   46800     288.1547    25.559333    132081.65    -42254.52    3517.3364   -45771.856   0.13672226 
   46900    293.79633    14.352978     132079.8   -42290.583    3586.2006   -45876.783   0.13926888 
   47000    287.97627   0.92041028     132073.5   -42345.753    3515.1585   -45860.911   0.13837255 
   47100    286.90144   -6.0799128    132058.34   -42358.961    3502.0387       -45861   0.13964545 
   47200    290.46348    3.1289513    132048.19   -42363.202    3545.5184    -45908.72   0.14146734 
   47300    285.76901   -19.598885    132052.49   -42426.781    3488.2157   -45914.996   0.13277698 
   47400    288.65353    9.9636712     132052.7   -42374.626    3523.4254   -45898.052   0.13662561 
   47500    286.61561     10.53663    132045.81   -42400.615    3498.5497   -45899.165   0.13773092 
   47600    290.86449   -23.753261    132066.83   -42376.082    3550.4133   -45926.495   0.13709366 
   47700    291.18311    8.9415943    132069.75   -42322.216    3554.3025   -45876.519   0.14242841 
   47800    286.10497   -11.018633     132043.8   -42362.989    3492.3166   -45855.306   0.13697152 
   47900    289.04724    24.487497    132047.51   -42412.327    3528.2312   -45940.558   0.13297153 
   48000    282.22239   -2.3809046       132052   -42370.119    3444.9243   -45815.043   0.13952418 
   48100    282.90994    19.183106    132042.17   -42420.236    3453.3167   -45873.552   0.13752074 
   48200     288.2194   -5.5252599    132029.16   -42408.515    3518.1262   -45926.641   0.14154725 
   48300     292.5855    18.633131    132052.72   -42379.505    3571.4207   -45950.926   0.13310313 
   48400    290.29626    15.572261    132058.39   -42382.623    3543.4773     -45926.1   0.13385036 
   48500    285.20897   -9.4728895    132053.56   -42465.819    3481.3796   -45947.199   0.13526035 
   48600    282.55647    -13.83659    132043.18   -42462.264    3449.0022   -45911.266   0.13843328 
   48700    287.39463     22.14838    132053.37   -42361.163    3508.0587   -45869.222   0.13789312 
   48800    285.63914    6.2999271    132048.35   -42369.993    3486.6305   -45856.623   0.13845299 
   48900    287.17057    37.196425    132074.83   -42350.223    3505.3237   -45855.547   0.13357311 
   49000    290.13919    26.771325    132041.55   -42396.914      3541.56   -45938.474   0.13557908 
   49100    287.28372   -9.7774383    132062.38   -42336.142    3506.7049   -45842.847   0.14082233 
   49200    287.12297    16.215517    132054.34   -42338.121    3504.7428   -45842.864   0.13766475 
   49300    285.76363   -31.069613    132043.35   -42396.096    3488.1501   -45884.246   0.13879022 
   49400    285.62052     14.64809    132033.73   -42438.557    3486.4032    -45924.96   0.13195125 
   49500    282.94414   -18.182324    132048.03   -42354.663    3453.7342   -45808.397   0.14051238 
   49600    284.74637    25.675852     132046.7   -42377.987     3475.733    -45853.72    0.1387093 
   49700    290.87023    37.697128    132044.19   -42400.239    3550.4834   -45950.722   0.13432528 
   49800    284.53181   -20.209703    132026.65   -42374.423     3473.114   -45847.537    0.1390398 
   49900    288.50642    23.665546     132016.9   -42333.618    3521.6298   -45855.247   0.13850559 
   50000     289.6011    10.099176    132047.02   -42339.365    3534.9918   -45874.357   0.13504156 
   50100    290.39904   -65.662754    132074.35   -42224.901    3544.7318   -45769.633   0.14778936 
   50200    290.77585    8.3111294    132072.34   -42304.468    3549.3313   -45853.799   0.13767851 
   50300    288.18311   0.32769246    132056.34   -42320.423    3517.6833   -45838.106   0.13880209 
   50400    287.73448    7.5979811    132058.34   -42340.743    3512.2072    -45852.95    0.1339349 
   50500    293.23151    32.678074     132063.3   -42282.933    3579.3062   -45862.239   0.13506795 
   50600    295.59524   -36.210824    132090.58    -42182.03    3608.1588   -45790.188   0.14425065 
   50700    287.99044    3.7769685    132040.48   -42411.145    3515.3314   -45926.477   0.13545256 
   50800    280.75088    8.8989834    132020.26   -42416.699    3426.9623   -45843.661    0.1351713 
   50900    280.72869   -28.479234    132019.91   -42429.474    3426.6915   -45856.165   0.13854696 
   51000    285.06504    -13.01479    132027.63   -42389.308    3479.6228   -45868.931   0.13693281 
   51100    286.13792    34.321863     132033.3   -42392.583    3492.7188   -45885.302   0.13631939 
   51200    283.49454   -11.819849    132013.56   -42439.904    3460.4526   -45900.356   0.13674003 
   51300    289.62131     28.17274    132017.57   -42457.974    3535.2386   -45993.212   0.13041007 
   51400    286.50347    24.274398    132048.51   -42391.704    3497.1809   -45888.885   0.13269689 
   51500    282.53443    33.945924    132037.42   -42421.637    3448.7331    -45870.37   0.13383578 
   51600    292.16297     25.62114    132037.84   -42369.062    3566.2631   -45935.325   0.13271144 
   51700    288.00192    -11.80898    132058.94   -42314.669    3515.4716    -45830.14    0.1406475 
   51800    291.78789    15.760572    132074.88   -42309.314    3561.6848   -45870.999    0.1344255 
   51900    292.62158     19.53045    132067.23   -42366.816     3571.861   -45938.677   0.13224007 
   52000    289.18018   -7.1315459    132077.41   -42369.011     3529.854   -45898.865   0.13639021 
   52100    286.24693    27.754777    132059.82   -42443.169    3494.0495   -45937.219    0.1284875 
   52200    284.18392    7.5668274    132044.83   -42476.152    3468.8675    -45945.02   0.13621711 
   52300     283.7787    27.642125    132037.42   -42467.161    3463.9212   -45931.082   0.13086926 
   52400    282.34681    13.087836    132023.44    -42549.77    3446.4429   -45996.213   0.13077844 
   52500    284.79885    20.359762    132022.77   -42426.694    3476.3735   -45903.068   0.13476309 
   52600    289.74695   -1.9017418    132071.47   -42352.873    3536.7721   -45889.645   0.13498151 
   52700    287.96633    25.994754     132089.2   -42364.544    3515.0371   -45879.581   0.13582679 
   52800    291.23846    7.9763111    132114.15   -42259.799    3554.9781   -45814.777   0.13777057 
   52900    290.31396   -9.8153109    132103.74   -42309.409    3543.6933   -45853.103   0.13655168 
   53000    293.31772    28.129826    132110.27   -42283.011    3580.3585    -45863.37   0.13460844 
   53100    287.25357     -29.6928    132064.97   -42398.778    3506.3369   -45905.115     0.133627 
   53200    288.84984    5.4724265    132059.24   -42446.217    3525.8216   -45972.038   0.13506911 
   53300    286.38244   -20.831266    132047.63   -42440.517    3495.7035    -45936.22   0.13307351 
   53400    287.67197   -2.8155591    132054.45   -42354.314    3511.4441   -45865.758   0.13705721 
   53500    290.20215    -3.575177    132058.29    -42321.77    3542.3286   -45864.099   0.13733057 
   53600    284.80008    -11.47327    132048.15   -42401.484    3476.3886   -45877.873   0.13473297 
   53700    287.88107     1.690503    132068.63   -42360.937    3513.9964   -45874.934   0.13974279 
   53800    289.04627   -5.0933616    132036.92   -42397.303    3528.2194   -45925.523    0.1380821 
   53900    279.25901   -26.020498    132043.06   -42405.747    3408.7519   -45814.499    0.1404774 
   54000    285.62549    24.477861    132047.87   -42436.905    3486.4638   -45923.369   0.13248538 
   54100    283.66065    0.6604438    132069.96   -42380.669    3462.4803   -45843.149    0.1372368 
   54200    292.30125    1.3546741    132074.09   -42330.167    3567.9509   -45898.118   0.13724311 
   54300    295.78125    24.256352    132091.17   -42265.153    3610.4294   -45875.582    0.1411458 
   54400    292.55783    34.701946    132111.21    -42224.84    3571.0829   -45795.923   0.13721799 
   54500    295.80705   -3.2819115    132113.11   -42290.737    3610.7443   -45901.481   0.13586411 
   54600    292.03401   -37.317009    132099.98   -42272.237     3564.689   -45836.926   0.14063921 
   54700    287.47795    15.507915    132086.15   -42298.355    3509.0758   -45807.431   0.13716146 
   54800    286.91267    24.772408    132096.88   -42276.979    3502.1757   -45779.155   0.14226832 
   54900    295.61928     10.96687    132109.39   -42290.878    3608.4523    -45899.33   0.13706552 
   55000    287.28241   -40.621315    132081.38   -42305.331    3506.6889    -45812.02   0.13886048 
   55100     293.2877    29.013626     132092.6   -42308.014     3579.992   -45888.006   0.13807929 
   55200    285.35454   -22.447238    132037.93   -42441.879    3483.1566   -45925.035   0.13476493 
   55300     288.2464    11.538738    132019.84   -42494.225    3518.4558   -46012.681   0.13459154 
   55400    283.64276    2.4227011    132020.21   -42433.061    3462.2618   -45895.323   0.13963986 
   55500    282.28247     11.04897    132042.37   -42432.313    3445.6576   -45877.971   0.13358613 
   55600    291.62538    37.023997    132058.98   -42318.346     3559.701   -45878.047   0.13776462 
   55700    293.93847     4.021449    132099.59   -42271.009    3587.9356   -45858.945   0.13459175 
   55800    289.48601    20.008274    132068.75   -42253.815     3533.587   -45787.402   0.14409344 
   55900    291.31343   -33.980595    132079.03   -42293.973    3555.8933   -45849.867    0.1390278 
   56000    289.52345   -8.6938407    132076.41   -42298.018     3534.044   -45832.062   0.13679084 
   56100    293.65282   -20.521062    132057.75   -42276.152    3584.4488   -45860.601   0.14374006 
   56200    290.43273   -24.702137     132063.6   -42302.606     3545.143   -45847.749   0.14126507 
   56300    286.00524   -28.565369    132029.43   -42380.942    3491.0993   -45872.042   0.14244997 
   56400    286.52311    23.507982    132020.17   -42418.876    3497.4206   -45916.297   0.13502188 
   56500    282.12129   -13.702887    132006.05   -42471.885    3443.6901   -45915.575   0.13717848 
   56600     279.6034   -7.5652916    131996.62   -42512.092    3412.9557   -45925.048   0.13989616 
   56700    286.04249    37.534027    132008.09   -42462.743     3491.554   -45954.298   0.13489309 
   56800    292.89362    22.389319    132018.35   -42363.535    3575.1818   -45938.717   0.13768857 
   56900    282.17449   -20.438134    132006.92   -42471.795    3444.3395   -45916.134   0.13701548 
   57000     283.6691     13.39324    131996.97   -42489.795    3462.5834   -45952.378   0.13537952 
   57100    291.48507    18.229788    132015.09   -42371.099    3557.9884   -45929.088   0.14004898 
   57200    289.47018   -14.407139    132047.09   -42339.306    3533.3938     -45872.7   0.14117213 
   57300    286.16627   -1.2460807    132007.42    -42464.47    3493.0649   -45957.535   0.13772746 
   57400    291.31955   -16.334777    132000.18   -42370.718     3555.968   -45926.686   0.13786724 
   57500    289.68628     8.275098    132002.86   -42361.802    3536.0316   -45897.834   0.13781928 
   57600    284.54141    15.121224    131979.12   -42431.766    3473.2311   -45904.997   0.13717119 
   57700    285.50098    3.7084015    131987.29   -42388.266    3484.9441    -45873.21   0.14309665 
   57800     289.2446    25.287114    132004.87   -42306.859    3530.6403   -45837.499    0.1424324 
   57900     287.8915    32.165842    132003.39   -42378.944    3514.1237   -45893.068   0.13671568 
   58000    294.25205    25.704056    132017.18   -42310.143    3591.7632   -45901.906   0.13984045 
   58100    284.22558    2.0554313    132038.61   -42375.611    3469.3759   -45844.987    0.1421753 
   58200    297.22905    14.213362    132041.89   -42218.441    3628.1018   -45846.543   0.14428225 
   58300    292.97541    16.876145    132049.12   -42299.475      3576.18   -45875.655   0.14197142 
   58400    289.75133   -16.562271    132042.18    -42338.48    3536.8256   -45875.306   0.13809841 
   58500     287.4661    1.7555523    132026.77    -42361.82    3508.9311   -45870.751   0.14124323 
   58600    287.89737    30.927083    132014.37   -42400.926    3514.1954   -45915.122   0.13480687 
   58700    282.35877    17.694367    132024.69   -42357.339    3446.5889   -45803.928   0.14268026 
   58800    289.82457   -9.6493656    132034.55   -42369.421    3537.7196   -45907.141   0.14253093 
   58900    289.09159    17.827153    132041.38   -42312.808    3528.7725   -45841.581   0.13860759 
   59000    301.66369     -5.70345    132058.57   -42233.271    3682.2329   -45915.504   0.14305501 
   59100    298.90498    2.0317282    132056.93   -42247.394    3648.5589   -45895.953   0.14247476 
   59200    286.49133    12.501085    132054.96   -42327.247    3497.0326   -45824.279   0.14336508 
   59300    285.75432   -18.593301    132057.22   -42342.816    3488.0364   -45830.853   0.14623259 
   59400    285.82982   -24.834015     132055.1   -42323.973     3488.958   -45812.931   0.14302069 
   59500    281.72611    2.2795125    132037.22   -42420.788    3438.8664   -45859.655   0.14269144 
   59600    289.14389    29.666781    132015.45   -42361.904    3529.4109   -45891.315   0.13893591 
   59700    290.10075   -13.460079    132040.27   -42317.097    3541.0908   -45858.188   0.14599647 
   59800    282.88301    18.772107    132018.98   -42446.901    3452.9881   -45899.889   0.14233595 
   59900    282.55376     12.30517    132017.88   -42443.919     3448.969   -45892.888   0.13748404 
   60000    290.02775    38.703207    132014.21   -42391.391    3540.1997   -45931.591   0.14143672 
   60100    285.77217   -1.9132002     132027.5   -42389.128    3488.2544   -45877.383   0.14227802 
   60200    286.33988   -16.582816    132025.78   -42348.872    3495.1841   -45844.056    0.1457566 
   60300    289.30675   -11.522189    132055.66   -42293.943    3531.3989   -45825.342   0.14336366 
   60400    290.74072    21.016625    132061.58   -42254.429    3548.9025   -45803.332   0.14242021 
   60500    287.16488   -24.540769     132054.8   -42241.431    3505.2544   -45746.685   0.14744215 
   60600    286.82537    29.818943    132047.64   -42324.181    3501.1102   -45825.291   0.14337108 
   60700    293.09029    18.610205    132063.03   -42193.016    3577.5823   -45770.598   0.14662581 
   60800     290.5479   -17.443566    132080.07    -42199.74    3546.5489   -45746.289   0.14911755 
   60900    293.21168   -15.393878    132080.56   -42252.655    3579.0641   -45831.719    0.1449935 
   61000    288.35569   -7.5752059    132039.47   -42337.419    3519.7898   -45857.209   0.14385925 
   61100    294.39035    11.929492    132059.41   -42279.578    3593.4514    -45873.03   0.14201577 
   61200    290.29102    10.601581    132052.22   -42298.433    3543.4132   -45841.846   0.14306682 
   61300    287.21255    8.5652807    132048.24   -42319.539    3505.8362   -45825.375   0.14322818 
   61400    287.83137     -39.4314    132046.39   -42342.511    3513.3897   -45855.901   0.14504016 
   61500    287.39001    28.785348    132020.34   -42326.563    3508.0024   -45834.566   0.14349599 
   61600    290.30198   -22.178412    132040.07   -42387.557    3543.5471   -45931.104   0.14378661 
   61700    286.93554    -23.09929    132016.84   -42400.478    3502.4549   -45902.933   0.14394071 
   61800    287.19315    33.726907    132022.25   -42396.041    3505.5994   -45901.641   0.13860985 
   61900     289.0802    22.857214    132049.61   -42312.418    3528.6335   -45841.052   0.14504759 
   62000    289.75357    16.571017    132041.47   -42330.895    3536.8529   -45867.748   0.14036317 
   62100    286.49051   -33.822581    132018.72    -42350.29    3497.0227   -45847.313   0.14453515 
   62200    292.57223    12.355144    132025.03   -42266.785    3571.2587   -45838.043   0.14348306 
   62300     286.8245   -24.938433    132005.49   -42370.579    3501.0995   -45871.679    0.1423988 
   62400    286.02987    2.3649294    131999.27   -42367.553    3491.3999   -45858.953   0.14626474 
   62500    285.86956    5.0787616    132010.54   -42370.088    3489.4431   -45859.531   0.14699579 
   62600    288.12359    44.549569    132020.08   -42397.373    3516.9568    -45914.33   0.13845479 
   62700    284.77743   -12.942757       131997   -42391.571    3476.1121   -45867.684    0.1471618 
   62800    287.16382    19.761882    131996.03    -42392.99    3505.2414   -45898.232   0.13898193 
   62900    287.98866    4.8945647    132020.76   -42341.527    3515.3097   -45856.836   0.14560555 
   63000    288.52881   -7.5144077    132019.68   -42388.045     3521.903   -45909.948   0.14290346 
   63100    286.05294   -37.221194    132007.35   -42445.937    3491.6815   -45937.619   0.14091254 
   63200    285.34457   -6.8425243    132015.86   -42313.911    3483.0348   -45796.946   0.14721082 
   63300     290.2083   -7.6616417    131994.04   -42402.745    3542.4036   -45945.148   0.14147881 
   63400    285.13024    22.970722    131994.42   -42466.867    3480.4187   -45947.285   0.13823935 
   63500    289.48726    16.053525    131983.71    -42423.08    3533.6022   -45956.682   0.14396104 
   63600    280.75523   -1.0911462    131987.56   -42493.924    3427.0154   -45920.939   0.13849782 
   63700    278.72246    17.911677    131959.59   -42500.181    3402.2026   -45902.384   0.14178592 
   63800    283.32371   -11.099943    131954.43   -42524.096    3458.3674   -45982.463   0.14173491 
   63900    285.29756    26.992263    131981.84   -42423.192     3482.461   -45905.653   0.14122122 
   64000    285.45021    40.546686    131974.21   -42343.539    3484.3244   -45827.864   0.14963183 
   64100    285.35254   -20.600016    132022.86   -42320.247    3483.1321   -45803.379   0.14550935 
   64200    290.50557   -13.938591    132016.38   -42283.669    3546.0322   -45829.702   0.14731385 
   64300    289.89645    27.676537    132015.67   -42297.586     3538.597   -45836.183   0.14598725 
   64400     288.1546   -26.983838    132005.56   -42377.524    3517.3353   -45894.859   0.14372776 
   64500    286.01031    19.615842    131994.99    -42361.85    3491.1611   -45853.012   0.14686171 
   64600    282.83845   -2.4998047    132013.37   -42431.049    3452.4442   -45883.493   0.14131766 
   64700    281.23572    18.864073    132002.09   -42450.937    3432.8805   -45883.818   0.13647806 
   64800     290.9507    -4.249345    132012.57   -42381.398    3551.4656   -45932.863   0.14056938 
   64900    291.93417     9.527977    132025.92   -42316.761    3563.4702   -45880.232    0.1417012 
   65000    285.46265   -4.3529238    132038.67   -42285.023    3484.4762   -45769.499   0.14916662 
   65100    286.30057     9.852148    132057.45   -42340.404    3494.7042   -45835.108   0.14107378 
   65200     284.1369    10.127964    132046.93   -42364.066    3468.2935    -45832.36   0.14263756 
   65300    288.57359    27.252493    132050.53   -42276.373    3522.4496   -45798.823   0.14433699 
   65400    286.13994    12.201493    132032.65   -42326.817    3492.7434    -45819.56   0.14788158 
   65500    292.41913    29.624642    132047.57   -42264.069    3569.3899   -45833.459   0.14332337 
   65600    292.30856    25.724327    132062.28   -42259.147    3568.0402   -45827.187   0.14378679 
   65700    290.01143    26.683334    132056.16   -42253.399    3540.0005     -45793.4   0.14223977 
   65800    289.79733   -17.064967    132064.14   -42305.091    3537.3871   -45842.479   0.14153596 
   65900    290.12556    -2.982983    132054.03   -42325.998    3541.3936   -45867.392   0.14398933 
   66000    288.04037   -20.166723    132050.65   -42322.336    3515.9409   -45838.277   0.14323257 
   66100    287.95098    39.107544    132040.64   -42353.329    3514.8498   -45868.179   0.14058479 
   66200    285.88025   -6.5233986    132021.66   -42422.763    3489.5736   -45912.337    0.1404599 
   66300    288.55811    16.116831    132002.62   -42408.857    3522.2607   -45931.117    0.1376961 
   66400    289.78195     11.32032    131993.38   -42389.222    3537.1993   -45926.422    0.1477881 
   66500    290.05723  0.059650928    132007.86   -42361.796    3540.5595   -45902.355   0.14281322 
   66600    287.89001    8.0259508     132008.4   -42403.086    3514.1056   -45917.192   0.14114145 
   66700     279.9123   -4.5438996    132000.71   -42394.844    3416.7263    -45811.57   0.14652359 
   66800    288.92697   -15.302526    131997.16   -42435.248    3526.7631   -45962.011   0.13677139 
   66900    282.92722   -8.8829117    131975.12   -42412.371    3453.5277   -45865.899   0.15004914 
   67000    283.79905    10.616481    131984.92    -42520.93    3464.1696     -45985.1   0.13592398 
   67100    291.70555    21.927078    132001.39   -42344.907    3560.6796   -45905.587   0.14298676 
   67200    290.50168    13.558771    132027.77   -42405.187    3545.9846   -45951.172   0.14032064 
   67300    289.82835    21.757931    132017.28   -42399.399    3537.7657   -45937.164   0.13630831 
   67400    290.28993   -29.040885    132018.68   -42365.639       3543.4   -45909.039   0.14693095 
   67500    291.06129   -4.9825674    132032.98   -42346.228    3552.8156   -45899.043     0.139342 
   67600    289.58829   -19.163174    132038.05    -42227.43    3534.8355   -45762.265   0.14939905 
   67700    294.72691   -6.0290905     132047.9   -42276.432    3597.5596   -45873.991   0.14341689 
   67800    292.26259   -35.694164     132032.2   -42316.878    3567.4791   -45884.358   0.14027282 
   67900    290.15932    24.007992    132045.21   -42338.905    3541.8057    -45880.71    0.1411674 
   68000    287.00987    3.6014149    132023.99   -42388.646    3503.3622   -45892.008   0.13810761 
   68100    289.64957   -36.972714    132000.21   -42389.632    3535.5835   -45925.215   0.14229913 
   68200    283.48877    12.356293    131994.21   -42396.331    3460.3822   -45856.713    0.1399461 
   68300    289.05707    15.702971    132026.16   -42320.952    3528.3512   -45849.303   0.14267241 
   68400    294.40439    36.790514    132052.29   -42248.249    3593.6228   -45841.872   0.14248199 
   68500    288.59599     4.598226    132072.72   -42284.921     3522.723   -45807.644   0.14302985 
   68600    290.47219   -22.579162    132067.98   -42310.711    3545.6247   -45856.335   0.14068391 
   68700    289.41509    16.945787    132060.15    -42350.34    3532.7213   -45883.061   0.13817473 
   68800    287.67975   -32.332612    132048.12   -42344.786    3511.5391   -45856.325   0.14482978 
   68900    291.00934    41.977379     132060.5   -42339.052    3552.1814   -45891.233    0.1343382 
   69000    286.61193   -1.7573829     132032.9   -42323.744    3498.5048   -45822.249   0.14641678 
   69100    283.17715   -16.381567    132038.06   -42436.948    3456.5784   -45893.526   0.13778284 
   69200    282.90169    27.831021    132047.59   -42407.728     3453.216   -45860.944   0.13574631 
   69300    284.82879    12.373845    132055.78   -42429.789     3476.739   -45906.528   0.13688233 
   69400    288.15356    27.017209    132046.82   -42489.961    3517.3225   -46007.283   0.12991178 
   69500    284.58033    20.169696    132046.76   -42420.251    3473.7062   -45893.958   0.13804128 
   69600    289.60988   -3.3486236    132084.49   -42230.696    3535.0989   -45765.795    0.1465407 
   69700    286.71401   -43.329771    132086.01   -42312.745    3499.7508   -45812.495   0.14195735 
   69800     291.8285   -4.6567774    132061.67   -42364.237    3562.1805   -45926.417   0.14147611 
   69900    285.71287   -7.5473898    132060.11   -42430.487    3487.5305   -45918.018   0.13498537 
   70000     292.6426    13.401041    132047.51   -42347.508    3572.1176   -45919.625   0.13777503 
   70100    282.12467    9.5842356    132048.74   -42455.573    3443.7314   -45899.304   0.14003145 
   70200    289.48293    -4.711155    132067.06   -42340.868    3533.5494   -45874.417     0.138244 
   70300    288.92479   -5.3685331    132061.23   -42385.571    3526.7365   -45912.307   0.14167646 
   70400    293.06559 -0.053324383    132082.85   -42255.076    3577.2808   -45832.357   0.13974473 
   70500    289.29012    3.0832784    132064.33   -42353.202    3531.1959   -45884.398   0.13763559 
   70600    290.12643   -29.048877    132068.75   -42356.371    3541.4043   -45897.775   0.13771377 
   70700    287.25187   -11.662843    132067.74   -42364.599    3506.3162   -45870.915    0.1368076 
   70800    286.03844   -44.467957    132060.13   -42387.096    3491.5045   -45878.601    0.1408733 
   70900    285.00739    2.0771391    132068.39    -42416.54    3478.9191   -45895.459    0.1358977 
   71000    294.42981    54.339279    132060.06   -42384.134    3593.9331   -45978.067   0.13155601 
   71100    286.56972   -1.6777424    132024.74   -42439.668    3497.9896   -45937.657   0.14032309 
   71200    287.58726    1.4340314    132043.19    -42370.42    3510.4101    -45880.83   0.13869861 
   71300    282.22399    2.6833541    132030.26   -42469.504    3444.9438   -45914.448   0.14086287 
   71400    283.27702   -27.457613    132044.51   -42410.978    3457.7975   -45868.775   0.13955125 
   71500    289.62018   -4.7049904    132035.53   -42367.055    3535.2247   -45902.279   0.14182295 
   71600     287.5495   -6.8878166    132025.67   -42350.204    3509.9491   -45860.154   0.13912298 
   71700    291.66018   -17.406467    132021.47   -42380.813    3560.1258   -45940.938     0.136261 
   71800    286.47738   -9.2965983    132035.93   -42478.605    3496.8625   -45975.467   0.13228581 
   71900    281.11675   -19.620684     132005.9   -42486.765    3431.4283   -45918.194   0.13649543 
   72000    279.90396    -29.13248    132017.26   -42471.796    3416.6244   -45888.421   0.13795153 
   72100    285.85175    26.077844    132047.55   -42337.311    3489.2257   -45826.537    0.1371983 
   72200    293.65539    13.138374    132074.92   -42217.239    3584.4802   -45801.719   0.14289921 
   72300    288.73214     12.75961    132094.06    -42153.47     3524.385   -45677.855   0.14655154 
   72400     292.1103    8.0040835    132074.04   -42304.715    3565.6201   -45870.335   0.13853692 
   72500     283.8679    21.233683    132059.67   -42311.078      3465.01   -45776.088   0.14093096 
   72600    289.55551   -1.1886012    132074.06   -42243.333    3534.4354   -45777.768   0.13903374 
   72700    283.90985    -27.94258    132055.47   -42353.688     3465.522    -45819.21   0.14319459 
   72800     289.6513    5.9054488    132050.73   -42336.683    3535.6046   -45872.288    0.1403922 
   72900    289.58786    33.353237    132067.76   -42324.576    3534.8302   -45859.407   0.13848617 
   73000    288.56435     39.19839     132050.7   -42363.638    3522.3369   -45885.974   0.13737909 
   73100    290.80526    60.700226    132058.98   -42338.343    3549.6903   -45888.034   0.13139993 
   73200    288.90437   -10.731952     132083.2   -42254.179    3526.4872   -45780.666    0.1423673 
   73300    293.03383    10.273068       132090   -42205.013    3576.8932   -45781.906   0.13673328 
   73400    290.84753   -8.7122677    132108.72   -42216.035    3550.2062   -45766.242   0.14160894 
   73500    299.32037   0.62351124    132121.01   -42202.583    3653.6293   -45856.213   0.14260406 
   73600    295.38517    19.674133     132117.9   -42233.535    3605.5946    -45839.13   0.13569564 
   73700     292.9273 -0.085863923    132085.38   -42349.625    3575.5928   -45925.217   0.13630467 
   73800    287.15203   -20.720062    132050.04   -42429.919    3505.0975   -45935.016   0.13650708 
   73900    285.34216   -8.4892363    132067.68   -42391.534    3483.0055   -45874.539   0.13826616 
   74000    286.69455   -19.477625    132060.56   -42373.115    3499.5133   -45872.628   0.14264444 
   74100     291.3432   -10.374688    132102.01   -42215.461    3556.2566   -45771.718   0.14212928 
   74200    287.39598   -25.791611    132113.52   -42319.136    3508.0752   -45827.211   0.14078018 
   74300    285.96305   -15.834483    132074.07   -42375.032    3490.5843   -45865.617    0.1366994 
   74400    287.79579     15.59888    132075.13   -42346.257    3512.9555   -45859.212   0.13749243 
   74500    288.93053    25.086737    132064.16   -42410.819    3526.8066   -45937.625   0.13421939 
   74600    287.19729    30.705683    132069.04   -42363.373    3505.6499   -45869.023   0.13317936 
   74700    290.68911    18.369087     132073.2   -42303.955    3548.2725   -45852.227   0.14022828 
   74800    283.95908    12.037214     132053.2   -42365.618     3466.123   -45831.741   0.13904035 
   74900    286.44565    15.955953     132039.4   -42328.238    3496.4751   -45824.713   0.14067504 
   75000    288.35672    21.639755     132030.2    -42381.56    3519.8024   -45901.362   0.13367325 
   75100    287.31743     14.69464    132066.15   -42288.538    3507.1163   -45795.655   0.14120686 
   75200    293.84719    6.6804307    132059.59   -42294.594    3586.8214   -45881.416   0.14054983 
   75300    293.79536    7.5361309    132056.95   -42362.705    3586.1887   -45948.894   0.13592163 
   75400    287.46188   -15.289052    132047.44   -42386.109    3508.8796   -45894.989   0.14091765 
   75500    283.41566   -19.614009     132045.2    -42403.54    3459.4898    -45863.03   0.13950753 
   75600    288.59248    8.8302391    132069.21   -42329.279    3522.6802   -45851.959   0.14002402 
   75700    296.71575    54.093376    132081.05   -42252.724    3621.8362    -45874.56   0.13749595 
   75800     292.6161    27.253002    132089.03   -42245.787    3571.7942   -45817.581   0.13575785 
   75900    292.12589   -7.8734897    132076.39   -42311.216    3565.8105   -45877.026   0.14201041 
   76000    286.46147    1.6924031    132062.11   -42291.951    3496.6682   -45788.619   0.14088893 
   76100    288.31771    14.371849    132027.41   -42382.926    3519.3263   -45902.253   0.13704113 
   76200    284.62688   -3.3517162    132023.03   -42432.323    3474.2745   -45906.597   0.13642339 
   76300     288.2662     2.428198     132026.9   -42389.163    3518.6975   -45907.861   0.13307083 
   76400    289.23527   -2.5390129    132034.73   -42403.225    3530.5263   -45933.751   0.13747413 
   76500    289.22885    45.874779    132047.18   -42351.765     3530.448   -45882.213   0.13674304 
   76600    285.12186   -5.5687883    132055.76   -42345.821    3480.3163   -45826.137   0.14322826 
   76700    287.81995    16.522985    132068.54    -42311.06    3513.2504   -45824.311   0.14159332 
   76800    288.41806    11.818831    132086.28    -42353.55    3520.5511   -45874.101   0.13682516 
[...]
   81800    283.23648   -26.131399    132021.77   -42498.996    3457.3026   -45956.298   0.13474369 
   81900    284.92277    14.940169    132027.26   -42409.929    3477.8862   -45887.815   0.14260993 
   82000    288.51751    62.939613    132045.34   -42342.398    3521.7651   -45864.163   0.13647791 
   82100     290.2638    34.359826    132105.02    -42295.39     3543.081   -45838.471   0.13754405 
   82200    292.89315    23.775847     132096.5    -42260.49    3575.1759   -45835.666   0.13726289 
   82300    288.09854     19.71609    132079.09   -42357.196     3516.651   -45873.847   0.13618815 
   82400     289.3088   -18.113629    132067.66   -42272.786    3531.4239    -45804.21   0.14646161 
   82500    290.25386    32.204548    132104.05   -42169.166    3542.9597   -45712.125   0.14348978 
   82600    290.27354    14.523256    132106.77   -42222.833    3543.1999   -45766.032   0.13935318 
   82700    286.60474   -8.6021469     132068.4   -42344.592     3498.417   -45843.009   0.13938884 
   82800    290.48094    28.089944    132042.46   -42334.313    3545.7316   -45880.045   0.13702193 
   82900    285.69894    25.335354    132061.27   -42299.255    3487.3604   -45786.616   0.13979747 
   83000    288.64747   -28.545237    132074.97   -42262.373    3523.3515   -45785.725   0.14524262 
   83100    290.57006    -18.80651    132099.09   -42247.537    3546.8194   -45794.356   0.14074191 
   83200    287.53396   -16.230251    132074.84   -42302.135    3509.7594   -45811.894   0.14229932 
   83300    290.34761   -8.4077915     132079.5   -42324.657     3544.104   -45868.761   0.14093632 
   83400    295.49308    50.779063    132090.16   -42329.134    3606.9118   -45936.046   0.13544775 
   83500    283.09774   -68.342405    132063.21   -42454.825    3455.6091   -45910.434   0.14515811 
   83600     284.1335    7.0777767    132043.97   -42428.201     3468.252   -45896.453   0.13228456 
   83700    288.99308     8.550764    132068.39   -42426.926    3527.5701   -45954.496   0.13372701 
   83800    287.78306   -22.340707    132060.96   -42413.329    3512.8001   -45926.129   0.13786224 
   83900    288.73188     21.50789    132065.18   -42385.204    3524.3818   -45909.586   0.13557149 
   84000    282.11474   -11.678957    132076.14   -42394.244    3443.6102   -45837.855   0.14356679 
   84100    286.58085    34.449523    132082.46   -42359.879    3498.1254   -45858.005   0.13381411 
   84200    286.90932    28.564291     132081.9   -42335.842    3502.1349   -45837.977    0.1376795 
   84300    288.81803   -12.607871    132063.03   -42394.549    3525.4334   -45919.982   0.13799401 
   84400    289.02064    5.4341845    132048.89   -42382.936    3527.9066   -45910.842   0.13445761 
   84500     285.7511   -33.106891    132040.66   -42397.985    3487.9971   -45885.982   0.14399655 
   84600    287.54871   -34.952962    132074.08   -42330.305    3509.9395   -45840.244   0.14116893 
   84700    294.43361     42.63648    132075.31   -42346.729    3593.9795   -45940.709   0.13194112 
   84800    296.34717    33.891388    132070.56   -42337.968    3617.3372   -45955.306   0.13563168 
   84900    293.26308     14.75978    132080.91   -42266.834    3579.6915   -45846.526   0.13666074 
   85000    289.81047    -45.22563    132063.44   -42338.212    3537.5475    -45875.76   0.14624365 
   85100    283.29804   -21.875925    132070.84   -42376.238    3458.0541   -45834.292   0.14078688 
   85200    290.96679   -12.174587       132060   -42350.244     3551.662   -45901.906   0.13573522 
   85300    286.98145   -12.729597    132078.68   -42354.741    3503.0152   -45857.756    0.1386105 
   85400    289.20392    22.850796    132064.05   -42409.774    3530.1437   -45939.918    0.1326642 
   85500    287.16084    11.029487     132070.7   -42366.887     3505.205   -45872.092   0.14113927 
   85600    285.28451   -26.039845    132065.93   -42399.879    3482.3018   -45882.181   0.14221497 
   85700    286.93126   -28.764853    132069.26    -42392.36    3502.4027   -45894.762   0.13869833 
   85800    288.33013   -2.8839525    132058.32   -42351.059    3519.4778   -45870.536   0.14348764 
   85900    289.35271   -6.3644635     132078.3   -42310.317    3531.9599   -45842.277   0.14145574 
   86000    283.18866    7.7713879    132066.66   -42360.595    3456.7189   -45817.314   0.14232949 
   86100    291.87047    20.973579    132062.98   -42329.299    3562.6927   -45891.991   0.14064594 
   86200    289.55097   -15.864863    132076.53   -42337.529    3534.3799   -45871.909   0.13915457 
   86300    286.06358   -15.741647    132053.99   -42360.458    3491.8114    -45852.27   0.14228294 
   86400    285.81668   -19.608699    132052.15   -42398.478    3488.7976   -45887.275   0.14119567 
   86500    280.09478   -13.621322    132040.52   -42441.878    3418.9537   -45860.831   0.14072165 
   86600     292.7429   -5.4827367    132061.73   -42318.164    3573.3419   -45891.506    0.1469415 
   86700    293.50689   -15.455122    132073.34   -42330.412    3582.6676    -45913.08   0.14109316 
   86800    290.54451    3.2456291    132052.01   -42392.784    3546.5075   -45939.292   0.13803616 
   86900    284.90925    2.8791194    132060.08   -42350.105    3477.7212   -45827.826   0.14344181 
   87000    290.52285   -14.832645    132074.92   -42321.519     3546.243   -45867.762   0.14098217 
   87100    296.32315   -7.7442675    132064.29   -42357.923     3617.044   -45974.967   0.13908707 
   87200    290.23957   -20.803425    132084.94   -42320.763    3542.7853   -45863.548   0.14141512 
   87300    293.48521   -9.6498247    132073.92   -42287.741    3582.4029   -45870.144   0.13857047 
   87400    290.70106    12.541171    132042.96    -42331.98    3548.4184   -45880.399   0.14215037 
   87500    296.01277   -13.859281    132048.25   -42295.752    3613.2554   -45909.008   0.14090933 
   87600    288.68632   -91.713992    132071.74   -42329.772    3523.8257   -45853.598   0.14596064 
   87700    286.22751    -35.84362    132079.61   -42322.387    3493.8123   -45816.199   0.14534287 
   87800    289.43423   -18.641364    132067.55    -42356.19     3532.955   -45889.145   0.13841683 
   87900    286.53781   -6.9998338    132048.23   -42410.408    3497.6001   -45908.008   0.14056812 
   88000    287.00679    56.497793    132036.33   -42366.299    3503.3245   -45869.624   0.14027926 
   88100    288.59832    42.699459       132054   -42337.014    3522.7515   -45859.765    0.1395174 
   88200    284.60372    2.3318327    132048.83   -42426.921    3473.9917   -45900.912   0.14367636 
   88300    279.98183   -49.815787    132045.81   -42396.869    3417.5751   -45814.444   0.14152569 
   88400    287.63844   -3.9639773    132065.39   -42335.182    3511.0348   -45846.217     0.142367 
   88500    287.70853   -17.850604    132069.53   -42390.513    3511.8903   -45902.403   0.14099413 
   88600    289.61868    14.063026    132050.33   -42361.005    3535.2064   -45896.211   0.13709972 
   88700    283.16366    28.435015    132027.34   -42334.626    3456.4138    -45791.04   0.14450853 
   88800    283.42125   -4.1277593     132050.8   -42378.748     3459.558   -45838.306   0.13729623 
   88900    284.89983   -19.977075    132046.27   -42382.321    3477.6062   -45859.927   0.14029658 
   89000    291.31279    1.4898632    132064.22    -42327.01    3555.8854   -45882.896   0.14305571 
   89100    289.65207   -3.7812131    132051.73   -42371.202     3535.614   -45906.816   0.13866134 
   89200    291.70494    36.706103    132068.91   -42320.774    3560.6721   -45881.446   0.14281587 
   89300    284.87407   -28.758671     132068.3   -42439.146    3477.2917   -45916.437   0.13678002 
   89400    287.04725   -24.714458    132058.45   -42321.867    3503.8185   -45825.686   0.14320058 
   89500    289.12024    -20.91446    132055.54   -42397.351    3529.1222   -45926.473   0.14243472 
   89600     282.0706   -22.821586    132043.95    -42490.98    3443.0714   -45934.052    0.1358719 
   89700    284.57509   -14.253774    132038.31   -42386.595    3473.6423   -45860.237   0.14414111 
   89800    284.94042   -3.1580042    132045.23   -42336.364    3478.1016   -45814.466   0.14085642 
   89900    288.89503    2.9540093    132074.32   -42317.851    3526.3732   -45844.224   0.13720196 
   90000    292.40228    4.3614702    132071.25   -42356.516    3569.1842     -45925.7   0.13725995 
   90100    288.22943    -27.58711    132079.94    -42304.03    3518.2487   -45822.278    0.1412699 
   90200    287.83118   -16.305235    132084.65   -42362.734    3513.3874   -45876.121   0.13850542 
   90300    289.77345   -7.7912739    132050.66    -42378.45    3537.0956   -45915.545   0.13805599 
   90400    289.53655    2.1198126    132085.15   -42351.574     3534.204   -45885.778   0.13698351 
   90500    289.83529     17.68317    132065.19   -42349.536    3537.8505   -45887.386   0.13725997 
   90600    288.35492    2.4159606    132051.12   -42323.043    3519.7804   -45842.823    0.1419323 
   90700    286.61307    4.9384928    132057.75   -42370.495    3498.5187   -45869.013    0.1376073 
   90800     282.5855    3.3691166     132042.6   -42405.163    3449.3565   -45854.519    0.1392255 
   90900    287.05289   -3.7937065       132057    -42334.02    3503.8873   -45837.908    0.1414633 
   91000    279.62576     15.58617    132034.19   -42418.683    3413.2286   -45831.911   0.13619308 
   91100    278.03085   -21.527308    132044.07   -42485.697    3393.7605   -45879.457   0.14024181 
   91200    288.33663    13.075249     132028.5   -42482.011    3519.5572   -46001.568   0.13334355 
   91300    285.47739   -7.6050351    132064.34   -42432.164    3484.6561    -45916.82   0.13677565 
   91400     286.0545     1.527111    132084.33   -42374.806    3491.7006   -45866.507   0.13918117 
   91500    294.94505    25.223114    132096.68   -42218.029    3600.2223   -45818.252   0.13539241 
   91600    291.30763   -17.263353    132095.32   -42263.791    3555.8224   -45819.614    0.1463989 
   91700    290.32328     47.60865    132067.33   -42355.612     3543.807    -45899.42   0.13311342 
   91800     290.5619    19.023939    132092.77   -42247.833    3546.7197   -45794.553   0.14020143 
   91900    292.00297    30.033981    132089.85   -42306.965      3564.31   -45871.276    0.1442918 
   92000    290.27277    22.407651    132080.73   -42313.488    3543.1905   -45856.678   0.13783881 
   92100    288.11119   -14.263672    132065.71   -42364.473    3516.8054   -45881.278   0.14336092 
   92200    287.48418   -59.731469    132070.96   -42396.476    3509.1519   -45905.628   0.14121799 
   92300    286.30916    17.591867     132093.2    -42273.34     3494.809   -45768.149   0.13934431 
   92400    285.96174   -35.657143    132081.73   -42322.391    3490.5683   -45812.959   0.14576046 
   92500    295.65651    32.622968    132077.27   -42298.521    3608.9067   -45907.427    0.1334902 
   92600    290.09235    10.043859    132096.55   -42243.303    3540.9883   -45784.291   0.14454032 
   92700    290.94234    27.586133    132092.96   -42326.921    3551.3636   -45878.285   0.13533286 
   92800    290.62833     31.83736     132073.8   -42322.251    3547.5306   -45869.782   0.13508347 
   92900    288.21237   -23.179951    132059.38   -42351.283    3518.0405   -45869.323   0.14202308 
   93000    288.56839    25.153781    132047.18   -42366.959    3522.3862   -45889.345   0.13720754 
   93100    285.65636    28.371519    132049.21   -42351.271    3486.8407   -45838.112   0.14078447 
   93200      280.145   -7.0044101    132065.04    -42341.56    3419.5668   -45761.126    0.1439428 
   93300    287.05762    1.7380034    132045.42   -42401.561    3503.9451   -45905.506   0.13813861 
   93400    288.02723  -0.77713124    132031.69   -42449.095    3515.7806   -45964.875   0.13825721 
   93500    292.18078    33.894582     132030.5   -42411.753    3566.4805   -45978.234   0.13415828 
   93600    289.18309    23.334043    132041.68   -42383.281    3529.8895   -45913.171   0.13791304 
   93700    288.63242   -20.250717    132035.81   -42367.566    3523.1677   -45890.733   0.14244874 
   93800    289.34089    15.496215    132020.36   -42412.628    3531.8156   -45944.444   0.13676553 
   93900    281.42757   -34.562601    132020.85   -42443.151    3435.2223   -45878.374   0.13983187 
   94000    286.14649    9.4372328    132005.16   -42450.794    3492.8235   -45943.618   0.13911699 
   94100    288.14259   -14.408309    132033.12   -42346.014    3517.1886   -45863.203   0.14232588 
   94200    288.41877    4.6313851    132035.05   -42293.879    3520.5599   -45814.439   0.14168366 
   94300    291.39663   -33.791339    132027.41   -42325.549    3556.9088   -45882.458   0.14252143 
   94400    289.65756    -4.953231    132009.62   -42353.062     3535.681   -45888.743    0.1412407 
   94500    291.91466    -3.213915    132005.06   -42261.065    3563.2321   -45824.297   0.15032874 
   94600    292.83385    20.342956    132005.26   -42375.173    3574.4521   -45949.625   0.13741959 
   94700     288.7784    5.0096269    131989.42   -42375.276    3524.9496   -45900.226   0.14416186 
   94800    289.83406   -35.020603    131992.87   -42371.566    3537.8354   -45909.402   0.14424788 
   94900    290.38769   -22.447271    131972.59   -42418.191    3544.5933   -45962.784   0.13820782 
   95000    284.29553   -18.543751    131966.84   -42383.145    3470.2299   -45853.375   0.14714937 
   95100    288.95194   -14.339366    131997.03   -42373.995    3527.0679   -45901.063   0.14016844 
   95200    288.09958   -10.350345    131981.03   -42339.958    3516.6637   -45856.622   0.14373529 
   95300    281.78425   -23.060794    131981.65   -42359.006    3439.5762   -45798.582   0.14743564 
   95400    286.44698    34.509041    131982.06   -42322.962    3496.4913   -45819.453   0.14077735 
   95500    289.06075   -7.8858888    131991.79    -42281.06    3528.3961   -45809.456   0.15069606 
   95600    290.59608    8.0076531    131991.25   -42334.184     3547.137   -45881.321   0.14445808 
   95700    292.92398    2.0154649    131984.97   -42305.502    3575.5523   -45881.054   0.14322943 
   95800    288.72422    17.373874    131974.85    -42323.41    3524.2882   -45847.698   0.14653148 
   95900    288.81308   -5.8897268    131976.35   -42337.609    3525.3729   -45862.982   0.14216018 
   96000    290.52189   -18.608509    131993.68   -42302.684    3546.2314   -45848.915   0.14432931 
   96100    292.78159   -40.635741    132023.64   -42224.942    3573.8143   -45798.756   0.14563813 
   96200    293.00318    50.759292    132026.89    -42256.45    3576.5191   -45832.969   0.14096425 
   96300    291.73756    11.921158    132011.55   -42288.355    3561.0703   -45849.425   0.14303916 
   96400    290.62269    36.465424    132008.49   -42324.055    3547.4617   -45871.516    0.1416171 
   96500    285.93292      11.3994    131981.72   -42298.123    3490.2165    -45788.34   0.14332042 
   96600    285.22776   -43.871123    131989.88   -42354.228     3481.609   -45835.837   0.14580718 
   96700    290.79661    45.496509    131982.04    -42328.93    3549.5848   -45878.515   0.14093874 
   96800    283.25777   -11.166842    131987.58   -42348.455    3457.5625   -45806.017   0.14401381 
   96900    287.36378   -20.493082    132003.52   -42396.741    3507.6822   -45904.423   0.14430647 
   97000    284.40812     16.79458    132007.45   -42409.196    3471.6042     -45880.8   0.13750312 
   97100    285.04291   -34.542973    131978.17   -42397.829    3479.3526   -45877.182   0.14494608 
   97200    285.33298     8.359381    131989.56   -42389.623    3482.8934   -45872.516    0.1450327 
   97300    292.39381    14.498866    132032.51   -42253.953    3569.0808   -45823.034   0.14022676 
   97400    286.81936   -38.988138    132026.07   -42302.743    3501.0367   -45803.779   0.14776367 
   97500     296.7675    23.611077    132045.85   -42273.248    3622.4679   -45895.716   0.13593562 
   97600    288.52281     -18.3099    132036.51   -42263.813    3521.8298   -45785.643    0.1481042 
   97700    293.08786    17.788504     132044.3   -42249.458    3577.5527   -45827.011    0.1453056 
   97800    291.86253   -24.063152    132026.44    -42297.49    3562.5958   -45860.086   0.14120425 
   97900    290.08454    17.188879    132033.25   -42289.251    3540.8929   -45830.143   0.14715445 
   98000    288.32414    -1.054594    132012.75   -42335.412    3519.4047   -45854.817   0.13846493 
   98100    287.94101   -15.462454    132005.76   -42327.509    3514.7281   -45842.237   0.14546701 
   98200    284.22996    12.050898    132013.79   -42357.113    3469.4294   -45826.542   0.14451828 
   98300    292.70664   -1.5124635     132018.9   -42258.816    3572.8994   -45831.715   0.14221527 
   98400    293.41612    14.186847    132025.15   -42299.192    3581.5596   -45880.752   0.14303719 
   98500    290.86999    9.3908076    132008.41   -42313.575    3550.4804   -45864.055   0.13828132 
   98600    286.83952    19.021766    132039.08   -42311.774    3501.2828   -45813.057   0.14397119 
   98700     292.6422   -2.4768879    132024.15   -42267.556    3572.1128   -45839.669   0.14686321 
   98800    292.10475   -10.792329    132053.94   -42253.597    3565.5524   -45819.149   0.14341932 
   98900    289.65538   -17.729288    132027.05   -42333.663    3535.6544   -45869.317   0.14613876 
   99000    290.97747   -2.7778999     132031.2   -42316.496    3551.7924   -45868.288   0.13951542 
   99100    283.73257   -18.398682    132011.66   -42386.103    3463.3581   -45849.462   0.14480622 
   99200    291.37725    7.5381711    132015.06   -42358.699    3556.6723   -45915.372    0.1424942 
   99300    286.56271    10.166142    132032.55   -42337.417     3497.904   -45835.321   0.14166445 
   99400    287.93052    2.7163831    132016.02    -42370.72    3514.6001    -45885.32   0.14171996 
   99500    288.23279    40.178863    132007.46   -42328.256    3518.2897   -45846.546   0.14045755 
   99600    288.89453    18.130124    131998.05   -42308.576    3526.3672   -45834.943   0.14331288 
   99700    286.59521    16.177186     131990.8   -42360.622    3498.3007   -45858.922   0.14287575 
   99800    290.82776    9.8695339    132001.91   -42343.878     3549.965   -45893.843   0.14338653 
   99900     286.9984   -2.4396003    132004.43   -42385.617    3503.2222   -45888.839   0.14018137 
  100000    286.35552   0.64453412    132027.47   -42352.073     3495.375   -45847.448   0.14100485 
Loop time of 51.2343 on 11 procs for 100000 steps with 4096 atoms

Performance: 843.186 ns/day, 0.028 hours/ns, 1951.819 timesteps/s
99.6% CPU use with 11 MPI tasks x no OpenMP threads

MPI task timing breakdown:
Section |  min time  |  avg time  |  max time  |%varavg| %total
---------------------------------------------------------------
Pair    | 34.645     | 38.352     | 40.536     |  28.6 | 74.86
Neigh   | 3.5224     | 3.8346     | 4.0433     |   7.5 |  7.48
Comm    | 3.1367     | 5.4724     | 9.9976     |  85.1 | 10.68
Output  | 0.16307    | 0.16441    | 0.17549    |   0.9 |  0.32
Modify  | 2.2164     | 2.7973     | 3.3092     |  21.9 |  5.46
Other   |            | 0.6138     |            |       |  1.20

Nlocal:    372.364 ave 385 max 349 min
Histogram: 2 0 0 1 1 0 0 1 2 4
Nghost:    1623.45 ave 1704 max 1563 min
Histogram: 2 3 0 0 1 0 1 3 0 1
Neighs:    0 ave 0 max 0 min
Histogram: 11 0 0 0 0 0 0 0 0 0
FullNghs:  10622 ave 11003 max 9939 min
Histogram: 1 1 0 1 1 0 0 1 2 4

Total # of neighbors = 116842
Ave neighs/atom = 28.5259
Neighbor list builds = 6149
Dangerous builds = 0

undump              1
unfix               2
unfix               3
unfix               4




################################################
#######         Run Simulation         #########
################################################

reset_timestep      0
log                 log.run_${NAME}
log                 log.run_ice_289K_1atm_ML
