
# Set production fixes - Nose/Hoover
#
fix                 2 all nph iso ${PRES} ${PRES} ${PCOUPL}
fix                 2 all nph iso 1 ${PRES} ${PCOUPL}
fix                 2 all nph iso 1 1 ${PCOUPL}
fix                 2 all nph iso 1 1 10000.0
fix                 3 all temp/csvr ${TEMP} ${TEMP} ${TCOUPL} 837492
fix                 3 all temp/csvr 289 ${TEMP} ${TCOUPL} 837492
fix                 3 all temp/csvr 289 289 ${TCOUPL} 837492
fix                 3 all temp/csvr 289 289 5000.0 837492

# Define Order parameter
#
compute             2 all orientorder/atom nnn NULL cutoff 3.5
thermo              1000
thermo_style        custom step temp press vol etotal ke pe c_1[4]

# Run 5ns simulation
dump		    1 all custom 1000 prod.${NAME}.dump id type x y z vx vy vz c_2[*]
dump		    1 all custom 1000 prod.ice_289K_1atm_ML.dump id type x y z vx vy vz c_2[*]
run                 2000000
Neighbor list info ...
  update every 1 steps, delay 0 steps, check yes
  max neighbors/atom: 2000, page size: 100000
  master list distance cutoff = 6.00329
  ghost atom cutoff = 6.00329
  binsize = 3.00165, bins = 17 17 17
  2 neighbor lists, perpetual/occasional/extra = 1 1 0
  (1) pair sw, perpetual
      attributes: full, newton on
      pair build: full/bin/atomonly
      stencil: full/bin/3d
      bin: standard
  (2) compute orientorder/atom, occasional, copy from (1)
      attributes: full, newton on
      pair build: copy
      stencil: none
      bin: none
Per MPI rank memory allocation (min/avg/max) = 5.767 | 5.767 | 5.767 Mbytes
Step Temp Press Volume TotEng KinEng PotEng c_1[4] 
       0    292.16258    179.28443     121357.1   -34369.676    3566.2584   -37935.934    3218.6959 
    1000    285.96763   -509.85868    120647.46    -34443.97    3490.6402    -37934.61    3220.7702 
    2000    291.03499    226.40423    119827.77    -34479.22    3552.4945   -38031.714    3224.8048 
    3000    281.08355    348.44853     120208.1   -34528.333    3431.0231   -37959.356    3246.7867 
    4000    286.51799   -190.34599    120133.43   -34478.375    3497.3581   -37975.733    3257.2483 
    5000     285.9491   -291.73125    120557.37   -34457.213     3490.414   -37947.627    3288.9337 
    6000    293.74215     539.1886       119916    -34378.03    3585.5392   -37963.569    3295.6862 
    7000    283.78012    1.7642596    121215.28    -34405.94    3463.9385   -37869.879    3342.0588 
    8000    291.04377   -442.97613    121143.92   -34355.337    3552.6017   -37907.939    3362.0864 
    9000    292.91939  0.053339876     120468.3    -34297.26    3575.4963   -37872.756     3359.027 
   10000    292.38558    240.85572    121558.13   -34302.069    3568.9804    -37871.05    3396.4959 
   11000    296.98658   -64.702123    121039.59   -34338.907     3625.142   -37964.049    3396.7028 
   12000    289.89985    58.550687    120308.32   -34429.229    3538.6385   -37967.867    3398.5335 
   13000    289.16991    143.11496    120556.05    -34384.25    3529.7285   -37913.978    3416.6669 
   14000    285.48351   -85.332287    120700.64   -34394.499    3484.7308   -37879.229     3433.856 
   15000    288.01056    399.73793    120253.79   -34471.369    3515.5771   -37986.946    3446.2123 
   16000    283.76572    80.115303    120256.18   -34505.764    3463.7627   -37969.527    3460.2403 
   17000    287.59297    140.46824    120907.72   -34452.071    3510.4798   -37962.551    3494.6846 
   18000    282.84528   -4.8092123    120020.86   -34576.921    3452.5275   -38029.449    3490.1083 
   19000    281.97858   -347.51472    119883.64   -34549.032    3441.9482    -37990.98    3498.2205 
   20000      284.677   -202.73538    120567.71   -34551.982    3474.8862   -38026.868     3525.123 
   21000    286.47909    227.08945    120083.24   -34544.373    3496.8833   -38041.256    3528.8494 
   22000    287.74439    232.19569     120226.6   -34444.662    3512.3281    -37956.99    3542.7723 
   23000    285.55965   -262.75225    120717.61   -34433.584    3485.6602   -37919.244    3567.6438 
   24000    285.18667   -268.04354    120540.07   -34416.122    3481.1075    -37897.23    3571.8867 
   25000    292.65956    -80.05597    120875.96   -34348.205    3572.3247   -37920.529    3599.9357 
   26000    297.35556   -160.81569    120176.74   -34395.838     3629.646   -38025.484    3605.5155 
   27000    291.25336   -132.38735    121068.61   -34458.356      3555.16   -38013.516    3641.2641 
   28000     288.2077   -372.19512    120880.51   -34417.329    3517.9834   -37935.312    3654.4325 
   29000    286.95317   -415.67107    121020.88   -34485.297    3502.6702   -37987.968     3667.566 
   30000    290.91843    753.92084    120188.14   -34422.794    3551.0717   -37973.866    3660.2496 
   31000    293.24859    241.20111    121221.66    -34357.08    3579.5146   -37936.595    3703.5668 
   32000    295.82286    -498.9936    120181.51   -34364.871    3610.9372   -37975.808    3695.2915 
   33000    290.05638   -357.47349    121228.15   -34368.313    3540.5492   -37908.863    3724.2465 
   34000    295.29232   -8.0058817    120371.48   -34331.152    3604.4612   -37935.613     3723.037 
   35000    285.45066   -130.73012    120401.33   -34461.412    3484.3299   -37945.742    3738.5548 
   36000    288.38181   -57.018711    120201.93    -34434.91    3520.1087   -37955.019    3754.2894 
   37000    285.08245   -71.670071    120742.93    -34471.62    3479.8354   -37951.455     3772.437 
   38000    288.54301    512.41285    119578.64   -34478.678    3522.0764   -38000.755     3758.336 
   39000    286.64551    10.866841     120670.1    -34512.22    3498.9147   -38011.134    3798.5784 
   40000    287.75601    386.02372    119297.53   -34604.599    3512.4699   -38117.068    3779.4354 
   41000    282.16275    501.50323    119814.32   -34583.693    3444.1962   -38027.889    3809.4001 
   42000    289.92005    313.38338    119938.57   -34547.639     3538.885   -38086.524    3830.2751 
   43000    284.77136    312.36881    119594.53   -34596.987     3476.038   -38073.025    3837.8748 
   44000    282.94283   -85.414901    120028.38   -34582.377    3453.7183   -38036.095    3869.0593 
   45000     280.1922   -91.197942    120783.02   -34536.385    3420.1429   -37956.528    3894.3368 
   46000    279.41728   -390.38388    120504.17   -34547.196    3410.6838    -37957.88     3914.673 
   47000    289.19375    155.34311    119661.48   -34521.614    3530.0196   -38051.634    3909.1089 
   48000    293.53446   -33.097803    121431.89   -34364.996     3583.004       -37948    3960.6986 
   49000    292.00488    658.15162    120424.13   -34311.038    3564.3334   -37875.371    3959.4847 
   50000    291.53474    11.314714    121078.28    -34345.39    3558.5946   -37903.984     3982.733 
   51000    288.36261    364.23204    120570.64   -34347.357    3519.8743   -37867.231    3987.6738 
   52000    293.37119    513.34956    120601.21   -34291.257    3581.0112   -37872.268    4008.5693 
   53000     291.7785    174.17066    121364.79   -34297.348    3561.5701   -37858.918    4045.5234 
   54000    293.14117     322.5112    120807.58   -34339.672    3578.2034   -37917.875     4059.382 
   55000    295.44178    119.65186    119836.85   -34333.347    3606.2856   -37939.633    4050.7975 
   56000    290.76914   -30.378518     120283.4   -34368.992    3549.2494   -37918.241    4080.3018 
   57000    295.82865   -474.87202    120525.42   -34376.068    3611.0079   -37987.076    4101.3567 
   58000    291.21262   -232.29782    121502.97   -34414.751    3554.6628   -37969.414    4140.3266 
   59000    284.79715    10.161033     120293.9     -34490.7    3476.3528   -37967.052    4125.5006 
   60000    290.52606    441.12355    120126.38   -34413.635    3546.2822   -37959.917    4131.1102 
   61000    290.03471   -272.02594    121215.67   -34381.317    3540.2847   -37921.602    4165.7005 
   62000    288.81374    86.178742    121000.32   -34395.166     3525.381   -37920.547    4176.1125 
   63000    293.56104    95.496553    120175.24   -34324.454    3583.3285   -37907.782    4173.7404 
   64000     288.3141    7.4699421    121397.31   -34295.783    3519.2822   -37815.066    4216.7485 
   65000     285.3317   -403.71096    121313.95   -34338.747    3482.8778   -37821.625     4235.606 
   66000    289.79406    153.79652     120502.1   -34376.481    3537.3471   -37913.828    4228.4696 
   67000     288.8236   -86.946097    120457.87   -34422.885    3525.5013   -37948.386    4248.9832 
   68000    290.05269    425.84644    120382.58   -34396.594    3540.5041   -37937.098    4261.8569 
   69000    292.55209    561.58269    119682.65   -34418.562    3571.0129   -37989.575    4253.8232 
   70000    289.50943    67.882935    121301.43   -34395.886    3533.8729   -37929.759    4314.4353 
   71000    284.50992    20.029834    121090.03   -34431.996    3472.8467   -37904.843    4336.2932 
   72000    293.59622   -298.92268    120371.96   -34431.683     3583.758   -38015.441    4337.9948 
   73000    290.03523   -443.13492    120184.86   -34502.862     3540.291   -38043.153    4346.2428 
   74000    289.02356    -732.0196    120696.85   -34501.294    3527.9421   -38029.236     4371.889 
   75000    284.75454    26.172051    120492.16   -34477.809    3475.8328   -37953.642    4377.7276 
   76000    294.86572    381.70253    120200.89   -34402.797     3599.254   -38002.051    4389.0505 
   77000    289.13305    287.03232    120813.01   -34384.044    3529.2787   -37913.322    4426.2512 
   78000    288.53385    -13.45476    120322.87   -34441.146    3521.9645   -37963.111    4433.2394 
   79000    290.67007    378.45699    120237.02   -34448.258    3548.0402   -37996.298     4445.613 
   80000    290.95054    163.17778    120196.51     -34397.6    3551.4636   -37949.064    4465.4844 
   81000    289.86451    619.13114    120916.32   -34355.891    3538.2071   -37894.099    4503.1665 
   82000    295.23219    202.67579    120547.86   -34294.637    3603.7273   -37898.365    4518.4459 
   83000    292.76775    154.99195    120570.06   -34390.067    3573.6453   -37963.712     4537.883 
   84000    292.54811    288.82285    119852.29   -34432.084    3570.9643   -38003.048    4537.7366 
   85000    294.33716    396.08838    120534.89   -34409.634    3592.8022   -38002.436    4570.5384 
   86000    291.43325   -295.42138    121206.58   -34322.334    3557.3558    -37879.69    4601.2967 
   87000     290.4202    163.03422    121098.99   -34370.811    3544.9902   -37915.801     4617.717 
   88000    290.74869    -97.95137    120689.01   -34342.234    3548.9998   -37891.234    4632.5958 
   89000     292.0874     97.14742    120773.68   -34386.598    3565.3406   -37951.938    4657.7053 
   90000     293.9368    334.51372    121006.94   -34382.993    3587.9152   -37970.909    4683.8673 
   91000    283.75988   -517.68009    120339.68    -34454.29    3463.6914   -37917.982    4678.2095 
   92000    286.97794    8.0784097    120513.41   -34463.315    3502.9725   -37966.288    4700.5505 
   93000    287.24256   -827.08744    120613.57   -34407.144    3506.2025   -37913.347    4713.8935 
   94000    292.97936   -217.43122    121622.06   -34381.901    3576.2283   -37958.129    4758.2315 
   95000    284.77028   -431.98623    119879.82   -34505.349    3476.0248   -37981.373    4730.5729 
   96000      289.065    142.28811    119958.59   -34467.456     3528.448   -37995.904    4749.4314 
   97000    281.41116    489.62064    120146.06    -34534.37     3435.022   -37969.392    4782.2285 
   98000    287.58066   -141.98925    120627.75   -34426.989    3510.3295   -37937.318    4816.3811 
   99000    291.86915   -218.26452    120556.18   -34379.536    3562.6765   -37942.213    4831.0778 
  100000    287.24881   -170.82734    120122.84   -34521.152    3506.2788   -38027.431    4828.8452 
  101000     295.7692     746.8582    119155.67   -34456.675    3610.2823   -38066.957    4816.4128 
  102000    286.97462    -303.3931    120570.04   -34428.449    3502.9319    -37931.38    4866.2988 
  103000    287.07216     297.5212    121012.98   -34367.735    3504.1226   -37871.858    4898.0929 
  104000     295.5129   -465.38935    121076.71   -34381.371    3607.1537   -37988.525    4923.8017 
  105000    290.96623    564.03493    120457.78    -34416.12    3551.6551   -37967.775    4923.1065 
  106000    289.10562   -286.40372    120781.84   -34395.368    3528.9438   -37924.312    4949.4481 
  107000    292.16608   -703.37685    120000.36   -34370.692    3566.3011   -37936.993    4939.6969 
  108000    289.39633    48.555273       121484   -34318.299    3532.4923   -37850.791    4994.5991 
  109000    290.58618   -327.59112    120397.59   -34377.234    3547.0161    -37924.25    4982.0829 
  110000     291.7639    175.06004    121149.82   -34322.253    3561.3918   -37883.645    5012.2926 
  111000     288.9648   -834.32228    120206.83   -34416.439    3527.2249   -37943.664     5008.322 
  112000    284.50586   -205.19809    120625.11   -34545.057    3472.7972   -38017.854    5038.5113 
  113000    285.24606    310.65744    120111.12   -34458.678    3481.8324    -37940.51    5038.9225 
  114000    292.45527   -529.88928    120276.42   -34456.427     3569.831   -38026.258    5058.9428 
  115000    291.91958    783.83059    121313.66   -34385.794    3563.2921   -37949.086    5101.5205 
  116000    292.02487    176.90821    119852.28   -34409.708    3564.5774   -37974.286    5064.3096 
  117000    285.96304   -261.61551    119600.78   -34470.812    3490.5842   -37961.396    5071.8338 
  118000    284.90871   -89.730358    120346.11     -34416.6    3477.7146   -37894.314    5111.8156 
  119000    286.47336   -2.0941353    119929.44   -34548.681    3496.8134   -38045.494    5121.4978 
  120000    289.42655     365.4045    119560.78   -34566.148    3532.8613   -38099.009    5128.1627 
  121000    291.16466    98.613679    119721.39   -34539.546    3554.0772   -38093.624    5139.8769 
  122000    287.69946   -274.22486    120423.62    -34520.34    3511.7796    -38032.12    5167.0011 
  123000    290.25955   -766.41991    120230.96   -34400.347    3543.0291   -37943.376    5179.5242 
  124000     288.6732    100.29582    120439.94    -34449.46    3523.6655   -37973.125    5204.1731 
  125000    290.81087   -210.33462    120105.88    -34484.01    3549.7588   -38033.769     5204.363 
  126000    284.93713   -340.10959    121256.93   -34490.713    3478.0615   -37968.774    5251.6288 
  127000    288.50857   -376.57304    120149.11   -34518.257    3521.6559   -38039.913     5241.929 
  128000    288.33001    162.07188    120213.52   -34515.541    3519.4763   -38035.017    5268.8937 
  129000      277.079   -637.97235    120562.98   -34608.983    3382.1418   -37991.125    5288.0441 
  130000    284.07071   -174.65531    120419.29   -34598.856    3467.4856   -38066.342    5288.5682 
  131000    286.95283    21.793721    119172.38   -34614.818     3502.666   -38117.484    5269.3624 
  132000    286.76065    300.31395    120360.45   -34501.434    3500.3201   -38001.754    5315.1791 
  133000    288.48681    150.32775    119948.03   -34457.535    3521.3903   -37978.925    5318.2581 
  134000    292.46953    255.90184    120578.91   -34376.016    3570.0051   -37946.021    5356.2335 
  135000    287.89455    149.98192    119878.16   -34499.383     3514.161   -38013.544    5363.2492 
  136000    284.01856    24.270119    120479.78   -34567.306     3466.849   -38034.155    5393.0612 
  137000    288.08429    25.352577       120747   -34491.348     3516.477   -38007.825    5412.7219 
  138000    288.34994    449.14734    119944.72   -34460.402    3519.7196   -37980.121    5403.0055 
  139000    291.44424    101.94223    120426.38   -34429.544      3557.49   -37987.034    5440.7501 
  140000    291.39581    259.31572    119976.81   -34387.193    3556.8988   -37944.092    5447.7729 
  141000    293.54971    5.6901718    120288.22    -34476.61    3583.1902     -38059.8    5478.0547 
  142000    283.24176    461.03756    120623.88   -34459.619     3457.367   -37916.986    5504.6451 
  143000    285.44628   -376.09828    120723.27   -34500.211    3484.2764   -37984.487    5517.5889 
  144000    291.64785    443.33693    120395.42   -34422.459    3559.9753   -37982.435    5520.6308 
  145000    288.19259    507.83144    120931.76   -34409.986    3517.7989   -37927.785    5551.3099 
  146000    289.37598   -110.99047    120051.27   -34468.519    3532.2439   -38000.763    5537.9121 
  147000     294.3139    384.55762    120057.59   -34364.247    3592.5183   -37956.766    5539.7649 
  148000    288.52244   -172.64832    120462.07   -34439.538    3521.8253   -37961.363    5560.0845 
  149000    286.10632   -154.44826    120378.55   -34503.856    3492.3332   -37996.189    5574.3412 
  150000    290.92329    183.22727    120339.68   -34484.791    3551.1311   -38035.922    5584.7584 
  151000     282.1946   -184.69614    120820.79   -34457.616     3444.585   -37902.201    5613.3985 
  152000     292.4282     26.92255    120240.85   -34345.098    3569.5005   -37914.598    5608.2927 
  153000    296.98734    604.40514    119954.44   -34387.578    3625.1513   -38012.729    5607.2132 
  154000     285.3131    75.994147    121134.31   -34454.952    3482.6508   -37937.603    5655.9901 
  155000    289.66144     219.7081    119934.99   -34413.811    3535.7284   -37949.539    5626.7579 
  156000    285.82059    482.95671    120749.12   -34453.567    3488.8454   -37942.412    5672.8355 
  157000     285.6542   -98.128322    120586.88   -34533.022    3486.8143   -38019.836    5689.1841 
  158000    278.46661   -125.31947    120208.81   -34634.526    3399.0795   -38033.605    5688.6768 
  159000    287.52648    142.69764    120050.71   -34512.689    3509.6681   -38022.357      5701.48 
  160000    288.06357   -55.152752    120532.11   -34466.183    3516.2241   -37982.407    5738.1542 
  161000    291.85131   -358.89446    119788.51   -34503.001    3562.4589    -38065.46    5727.4156 
  162000    285.97011    432.85145    119973.18   -34540.304    3490.6704   -38030.974    5755.7596 
  163000    288.27828   -24.836595    120209.85   -34498.789     3518.845   -38017.634     5783.954 
  164000    284.56289   -184.94783    120081.01   -34541.952    3473.4933   -38015.445    5791.3761 
  165000    287.94002   -211.12799    120208.09   -34517.814     3514.716    -38032.53    5810.0457 
  166000    293.01031   -365.42361    120510.55   -34428.023    3576.6061   -38004.629     5825.318 
  167000    284.93061   -443.07248    120465.52   -34504.862    3477.9819   -37982.844    5838.5999 
  168000    286.44918    155.78395    120052.16   -34562.948    3496.5182   -38059.467    5848.1436 
  169000    287.45769   -610.00347    121128.05   -34546.199    3508.8284   -38055.027    5907.7017 
  170000    284.74157    392.24784    119426.41   -34602.741    3475.6744   -38078.415    5857.2741 
  171000    291.40746    310.43799    120056.06   -34587.082     3557.041   -38144.123    5892.0393 
  172000    284.57069    99.612606    120043.88   -34564.286    3473.5885   -38037.875    5910.7748 
  173000    288.05267   -161.62905    119391.74   -34559.848     3516.091   -38075.939    5906.5674 
  174000    289.89416     311.1458    119941.39   -34503.702    3538.5691   -38042.271    5935.3912 
  175000     279.7962   -172.36511    121157.81   -34489.755    3415.3092   -37905.064     5986.836 
  176000    286.26138    9.2471107    120227.48    -34484.23    3494.2259   -37978.456    5969.0418 
  177000    291.31427    96.099901    120644.73   -34451.158    3555.9035   -38007.061    5996.7534 
  178000    283.72832   -619.22948    120754.42   -34476.953    3463.3063   -37940.259    6017.5468 
  179000    294.20555    303.11879    119627.15   -34426.683    3591.1957   -38017.878    5990.7941 
  180000    286.79844    570.77551    120416.21   -34455.859    3500.7815   -37956.641     6030.625 
  181000    282.27778    323.08324    121259.94   -34436.617    3445.6004   -37882.217     6067.725 
  182000    292.41775    264.07253    120065.26   -34440.445     3569.373   -38009.818    6045.7765 
  183000    288.17875    111.16147     120626.9   -34379.847      3517.63   -37897.477    6080.8548 
  184000    282.34982   -429.82209    121280.82   -34452.097    3446.4796   -37898.576    6122.0347 
  185000    290.72126    35.183713    120033.81   -34500.565     3548.665    -38049.23    6101.6056 
  186000    288.09752     194.7332    120337.43   -34478.416    3516.6385   -37995.054    6130.7632 
  187000    288.43737    403.67336    120588.27    -34423.08    3520.7869   -37943.867     6157.357 
  188000      288.958   -185.12553    120186.53   -34444.986    3527.1419   -37972.128     6160.991 
  189000    281.74156    52.015292    121076.55   -34430.424     3439.055   -37869.479    6201.4064 
  190000    279.45512     55.95176    121787.21    -34464.03    3411.1457   -37875.175    6248.3405 
  191000    287.31904   -86.304707    121312.94   -34425.604     3507.136    -37932.74     6245.078 
  192000    293.54075   -171.83195    120587.46   -34452.032    3583.0808   -38035.113    6234.5755 
  193000    289.11232    192.33753    120197.87   -34444.558    3529.0255   -37973.584    6244.9539 
  194000    292.80929    345.89317    120371.78   -34480.339    3574.1523   -38054.492    6269.5058 
  195000    287.41847    344.96169     120181.8    -34441.67    3508.3497    -37950.02    6283.7996 
  196000      290.737   -207.72255    119935.35   -34460.344    3548.8571   -38009.201    6286.3528 
  197000    287.87354   -326.73095    120581.53    -34493.73    3513.9046   -38007.634    6322.1309 
  198000    284.19117    413.08488    120229.38   -34465.899     3468.956   -37934.855    6327.4317 
  199000    289.55452   -692.50864    121436.97   -34416.356    3534.4233    -37950.78     6381.245 
  200000    289.98054    95.949367    119982.26   -34428.279    3539.6234   -37967.902    6340.3603 
  201000     289.1146    160.49694    120903.86   -34431.576    3529.0535    -37960.63    6388.4814 
  202000    292.84062    345.23357    121371.82   -34367.613    3574.5348   -37942.148    6416.1544 
  203000    289.58253   -531.98719    120423.07   -34453.894    3534.7652   -37988.659    6403.3499 
  204000    285.86603   -524.97491    121136.76   -34468.633       3489.4   -37958.033    6444.4963 
  205000    287.94867    158.08168    120270.21   -34451.433    3514.8215   -37966.255    6424.8584 
  206000    289.80162    83.556776    120647.78   -34468.376    3537.4394   -38005.815    6443.1904 
  207000    288.84885   -124.72138    121211.06   -34371.836    3525.8096   -37897.645    6478.4767 
  208000    288.96704    78.461533    119961.37   -34442.644    3527.2523   -37969.896    6441.6122 
  209000    285.27645   -210.60835    120474.89   -34543.787    3482.2034   -38025.991    6483.0756 
  210000    290.85392   -120.91531     120570.6   -34452.349    3550.2842   -38002.633    6514.2682 
  211000    290.44593   -240.27712    120016.15   -34495.523    3545.3042   -38040.827    6503.2712 
  212000     288.0169      233.155     119535.1   -34538.825    3515.6544   -38054.479    6498.4145 
  213000    288.44273    275.80802    119557.24   -34559.793    3520.8522   -38080.645    6513.5805 
  214000    289.21558   -555.37194    120446.78   -34442.531     3530.286   -37972.817    6553.6003 
  215000    291.40917     489.5877    119737.17    -34417.02    3557.0618   -37974.082    6547.3829 
  216000    295.63352    946.08516    120393.05   -34387.405    3608.6261   -37996.031    6592.8774 
  217000    292.93328   -401.10863    120267.18   -34411.602    3575.6659   -37987.268    6598.1075 
  218000    287.39532    840.71902    120291.45    -34471.86    3508.0672   -37979.927    6608.2838 
  219000    293.88998   -341.33966    120372.34   -34473.917    3587.3437    -38061.26    6616.8109 
  220000    282.80201    4.8384826    120800.58    -34580.73    3451.9993    -38032.73    6655.9238 
  221000    290.88001    290.34987    119199.58   -34509.182    3550.6027   -38059.785    6602.5792 
  222000    279.46593   -12.432974    120608.11   -34537.717    3411.2777   -37948.995     6676.715 
  223000    283.09513   -693.65831    120544.48   -34541.336    3455.5772   -37996.913     6680.582 
  224000    290.03078   -324.71994    120180.23   -34490.387    3540.2367   -38030.623    6682.9974 
  225000    289.83616    287.35431     119504.5   -34487.055    3537.8611   -38024.916    6678.3406 
  226000    281.10218   -176.64845    120378.67   -34496.424    3431.2505   -37927.674    6714.4126 
  227000    292.65623    282.25706     120386.2   -34409.389     3572.284   -37981.673    6714.1745 
  228000    289.27019    76.038649    120649.55   -34436.106    3530.9526   -37967.058    6743.8116 
  229000    289.93674   -81.582657    120111.53   -34412.416    3539.0887   -37951.505    6745.1027 
  230000    291.26711    100.84704    120328.55   -34419.929    3555.3279   -37975.257    6773.6932 
  231000    296.54041   -160.03123     120679.9   -34395.804     3619.696     -38015.5    6793.6769 
  232000    295.26665    242.94272    120701.15   -34407.717    3604.1479   -38011.865    6798.9459 
  233000    288.27213   -246.45158    120639.23   -34495.592    3518.7698   -38014.362    6806.7553 
  234000    283.89874   -486.81402    120726.25   -34494.598    3465.3865   -37959.985    6823.7829 
  235000    287.31481    305.04145     120234.3   -34437.848    3507.0844   -37944.933    6819.9812 
  236000    291.97956    290.17619       119289    -34461.88    3564.0244   -38025.904    6805.1809 
  237000     285.9815   -644.21931    121757.89   -34445.793    3490.8095   -37936.602    6913.6435 
  238000     285.9724   -123.20431    120882.79   -34402.417    3490.6984   -37893.115    6895.8129 
  239000    286.76031   -53.073962    121009.38   -34433.633     3500.316   -37933.949    6920.7109 
  240000    283.75401   -110.57956    120372.71   -34539.979    3463.6198   -38003.599    6900.6367 
  241000    291.02062   -198.64683    120548.87   -34430.264    3552.3191   -37982.583    6932.1613 
  242000    288.70055    282.25142    120287.44   -34437.432    3523.9993   -37961.432    6937.9366 
  243000    282.37875    164.79292    120153.26   -34515.439    3446.8328   -37962.272    6954.8773 
  244000    283.92378   -88.855974    120851.01   -34491.213    3465.6921   -37956.905    6990.6408 
  245000    287.68082   -517.74484    120261.38   -34427.979    3511.5521   -37939.531    6988.3431 
  246000    284.04819    32.668255    121149.79   -34451.868    3467.2107   -37919.079    7041.6204 
  247000    289.92443    -612.6185    120863.94   -34354.264    3538.9385   -37893.203    7043.9646 
  248000    290.49102   -196.01134    121259.54   -34339.389    3545.8546   -37885.244    7066.4015 
  249000    289.07278   -523.28998    121731.27   -34341.707    3528.5429    -37870.25    7107.9285 
  250000    289.22495    381.73688    121093.95   -34360.331    3530.4004   -37890.732    7105.3054 
  251000    288.14885    235.78579    119780.74   -34402.531     3517.265   -37919.796    7067.8342 
  252000     291.2786    18.135444    120909.34   -34414.226    3555.4681   -37969.694    7126.2414 
  253000    287.89582    323.78158    119835.69   -34493.337    3514.1765   -38007.513    7104.6845 
  254000    290.04565   -539.53001    120644.88   -34531.776    3540.4182   -38072.194    7142.8419 
  255000    291.69463     161.0357    119676.13   -34528.068    3560.5463   -38088.614    7115.4724 
  256000    286.21378   -232.47085     120257.4   -34474.881    3493.6448   -37968.525     7160.791 
  257000    285.07142    373.02396    120181.45   -34530.195    3479.7007   -38009.896    7172.6934 
  258000    292.65007    138.61857    119945.98   -34483.381    3572.2088    -38055.59    7166.3261 
  259000    288.28768    42.359159    120628.42   -34487.503    3518.9597   -38006.463    7215.0895 
  260000    293.12309   -120.86991    120702.15   -34407.369    3577.9827   -37985.352    7236.2774 
  261000     286.2526   -172.30127    120358.22   -34421.734    3494.1186   -37915.852    7240.5279 
  262000      284.774   -12.502451     120738.6   -34475.172    3476.0702   -37951.242    7273.6263 
  263000    289.12319   -348.97573    120511.72   -34425.203    3529.1583   -37954.362    7274.7565 
  264000     285.6354   -561.09697    120242.55   -34399.435    3486.5849    -37886.02    7278.0057 
  265000    292.25324    199.82104    120624.37   -34385.146     3567.365   -37952.511    7317.3706 
  266000    294.07439    395.46087       119915   -34361.225    3589.5946   -37950.819    7310.6234 
  267000    287.58175   -204.23468    120703.26   -34445.858    3510.3428   -37956.201    7357.2572 
  268000    290.60271    379.08757    119996.43   -34406.769    3547.2179   -37953.986    7356.1839 
  269000    287.64124    732.64799    120015.87   -34495.612    3511.0689   -38006.681    7374.5764 
  270000    282.82829    176.44412     120303.7   -34508.013      3452.32   -37960.333    7405.7768 
  271000    290.98606   -32.791239    119905.46   -34504.159    3551.8973   -38056.056    7394.3848 
  272000    289.95457   -67.723434     119979.9   -34468.703    3539.3065    -38008.01     7405.805 
  273000    283.42314   -158.51119    120476.96   -34538.164    3459.5811   -37997.746    7449.0525 
  274000    284.10971   -391.62893    120548.08   -34505.871    3467.9617   -37973.833    7475.7828 
  275000    286.44239   -256.79569     120593.3   -34417.917    3496.4353   -37914.353    7495.6862 
  276000    287.95959    93.738133    121028.09   -34387.754    3514.9549   -37902.709    7530.3732 
  277000    289.55244   -77.777693    121092.93    -34395.66    3534.3978   -37930.058    7544.9865 
  278000    291.99429    247.14913    119615.29   -34427.175    3564.2041   -37991.379    7489.9755 
  279000    284.19383   -147.29831    120650.66   -34501.847    3468.9884   -37970.835    7545.9822 
  280000    290.18646    257.76413    120352.18   -34441.945     3542.137   -37984.082    7553.6921 
  281000    287.35295   -302.71788    120013.26   -34485.806      3507.55   -37993.356    7557.1065 
  282000     289.0108   -484.96464    121633.52   -34391.994    3527.7864    -37919.78    7640.6915 
  283000    295.08893    99.423048    120033.17   -34372.712    3601.9785   -37974.691    7572.7052 
  284000    294.66333    460.68423    121236.59   -34406.564    3596.7835   -38003.347    7639.3112 
  285000    287.62324    489.74698    120173.94   -34554.504    3510.8493   -38065.354    7615.4798 
  286000    284.47319    23.948475    119907.82   -34484.491    3472.3985   -37956.889     7628.931 
  287000    293.08084     474.3451    120129.58   -34465.385     3577.467   -38042.852    7664.0302 
  288000    284.85231   -11.391395    120777.35   -34471.691    3477.0261   -37948.717    7713.6778 
  289000    292.82528    154.95499    120717.63   -34359.332    3574.3476   -37933.679    7730.1594 
  290000    296.03093    188.02567    119847.93   -34428.892     3613.477   -38042.369    7706.4935 
  291000    294.31351   -24.065053    120752.98   -34377.028    3592.5135   -37969.542     7754.302 
  292000    287.38191    298.37675    120231.28   -34405.795    3507.9035   -37913.698    7734.7497 
  293000     287.6628   -422.50639    120882.62   -34395.443    3511.3321   -37906.775    7776.5588 
  294000    300.79346    56.000686    120565.16   -34274.298    3671.6104   -37945.909    7787.0834 
  295000    288.39073   -296.81056    121153.66    -34383.27    3520.2176   -37903.488     7831.102 
  296000    292.96587    286.45637    119307.25   -34489.231    3576.0636   -38065.294    7767.3198 
  297000    290.61752   -474.39592    120169.65   -34412.108    3547.3986   -37959.507    7820.5178 
  298000    293.18767    878.32182    120384.23    -34482.93     3578.771   -38061.701    7842.7058 
  299000    288.36064   -392.98176    120149.31   -34492.101    3519.8503   -38011.951    7847.3914 
  300000    289.69727    83.360543    120746.36   -34371.159    3536.1658   -37907.324    7878.4409 
  301000    289.71482   -121.18011    120452.68   -34376.914    3536.3799   -37913.294    7874.3005 
  302000    290.05707   -14.657214    120839.69   -34386.694    3540.5576   -37927.251    7901.7394 
  303000    290.62416    -162.7857     120476.9   -34470.073    3547.4797   -38017.553    7906.4729 
  304000    291.88022   -230.12313    120188.38   -34379.826    3562.8117   -37942.637    7907.7505 
  305000    283.37865     153.2072    120650.27   -34467.188     3459.038   -37926.225    7949.2705 
  306000    283.92153   -564.64634    120905.66   -34534.798    3465.6646   -38000.462    7967.2727 
  307000    285.97963    524.61992    120108.71   -34458.809    3490.7866   -37949.595    7947.0192 
  308000    278.68703   -626.72514       121275   -34529.549    3401.7702   -37931.319    8007.7122 
  309000    294.11015    394.49079    120188.09   -34383.388    3590.0312    -37973.42    7984.5435 
  310000    293.17561    362.70813    121099.84   -34361.531    3578.6238   -37940.155     8040.869 
  311000    289.77541    298.57788    120378.99    -34391.35    3537.1195    -37928.47    8018.2038 
  312000    293.47255    42.484861    120535.24   -34427.009    3582.2484   -38009.258    8033.4146 
  313000    290.72929    758.73098     120681.8   -34466.429     3548.763   -38015.192    8061.2155 
  314000    290.35751    191.63524    120319.78   -34463.365    3544.2248    -38007.59    8050.6543 
  315000    290.87517   -112.61373     120479.3   -34461.551    3550.5436   -38012.094    8081.6557 
  316000    287.14605    311.73852    119869.32    -34590.26    3505.0244   -38095.284     8061.328 
  317000    288.54289    129.27898    119424.16   -34573.362    3522.0748   -38095.437    8067.2459 
  318000    282.81761   -208.65609    121166.29   -34505.572    3452.1897   -37957.761     8159.594 
  319000    284.54416    607.34993    120226.87   -34519.611    3473.2647   -37992.875    8128.0514 
  320000    288.75627    75.893214    120347.08    -34568.17    3524.6794    -38092.85    8135.1142 
  321000    281.30191    446.56178    120186.23   -34576.996    3433.6884   -38010.684    8144.6537 
  322000    287.58337    30.433304    119374.21   -34546.175    3510.3626   -38056.537    8130.7451 
  323000    284.05178   -434.79546    120428.43   -34518.879    3467.2545   -37986.133    8203.7777 
  324000    286.10149   -147.19137    119933.44   -34508.216    3492.2741    -38000.49    8190.9722 
  325000    286.69698    99.214885    119697.46   -34508.312    3499.5429   -38007.855     8191.462 
  326000    286.43735   -45.488469     120675.2   -34382.751    3496.3737   -37879.125    8257.8245 
  327000     291.4771   -438.98016     120357.9   -34389.656    3557.8911   -37947.548    8261.6993 
  328000    291.86503    101.26307     120571.3    -34360.63    3562.6263   -37923.256    8291.2698 
  329000    294.58447   -234.77687    120628.44   -34425.962     3595.821   -38021.783    8301.2299 
  330000    292.93393   -658.61536    120434.34     -34400.3    3575.6738   -37975.973    8310.5114 
  331000    296.96297   -819.89048    120445.73     -34357.2    3624.8539   -37982.054    8332.5882 
  332000    286.32373    505.20522    121034.66   -34349.964    3494.9869   -37844.951    8382.6073 
  333000    290.04539   -17.953142    119967.73   -34433.327    3540.4151   -37973.742    8354.1148 
  334000    285.09075   -118.78827       121243    -34474.95    3479.9367   -37954.887    8438.2644 
  335000    283.37191    256.64718    120094.54   -34497.066    3458.9557   -37956.022    8405.7471 
  336000    286.15922   -198.45176    120174.27   -34476.031    3492.9788    -37969.01     8433.312 
  337000    287.83259   -201.08126     119854.9   -34539.935    3513.4047   -38053.339    8435.3374 
  338000    277.97116   -184.44213    119829.75   -34655.105     3393.032   -38048.137    8443.2167 
  339000    290.48014   -214.17708    119963.84   -34578.329    3545.7218   -38124.051    8455.4523 
  340000    289.96388    376.59543     119795.9   -34506.149    3539.4201    -38045.57    8454.1829 
  341000     283.4517   -155.30082    120418.49   -34518.135    3459.9296   -37978.065    8508.1623 
  342000    284.27766    410.04552    119530.86   -34546.474    3470.0117   -38016.486    8478.0447 
  343000    288.66055   -153.06473    120140.92   -34548.772    3523.5111   -38072.283    8520.1401 
  344000    290.68793    353.19699    119915.98   -34533.902    3548.2581    -38082.16    8528.0302 
  345000    283.08656   -394.42466    120522.77   -34584.759    3455.4727   -38040.232    8574.3044 
  346000    283.76954   -48.163652    119344.38   -34643.952    3463.8094   -38107.762    8531.9541 
  347000    278.80415    524.64079    119388.59   -34651.231    3403.1998    -38054.43    8545.4445 
  348000    287.94167    494.88657    119866.15   -34533.377    3514.7362   -38048.113    8573.0872 
  349000    286.90876    782.76719    119376.07   -34566.908     3502.128   -38069.036    8571.5789 
  350000    286.68142    306.62913    119760.17   -34546.731     3499.353   -38046.084    8606.5434 
  351000    282.71414   -537.56854    120648.09   -34554.999    3450.9268   -38005.926    8652.3611 
  352000    287.92104   -136.95604     120509.3   -34483.637    3514.4843   -37998.121    8670.1402 
  353000    281.07995    99.182716    120015.23   -34481.914    3430.9791   -37912.893     8655.651 
  354000    288.64717   -375.32358    120254.02   -34486.624    3523.3478   -38009.972    8683.0993 
  355000    284.58353   -491.06597    120032.69   -34514.408    3473.7453   -37988.153    8681.7232 
  356000    283.43524    266.69344    120221.22   -34490.881    3459.7288    -37950.61    8694.9627 
  357000    282.92893   -101.60906    119516.03   -34539.109    3453.5486   -37992.658    8675.1821 
  358000    280.90978   -250.83477    120486.23   -34488.807     3428.902   -37917.709    8741.3296 
  359000    288.60322    491.28652     120266.8   -34413.012    3522.8113   -37935.823    8742.6246 
  360000    287.82203   -617.28459    119864.08   -34544.947    3513.2758   -38058.223    8748.8656 
  361000    287.13906   -220.08937    120254.67   -34480.487    3504.9391   -37985.426    8786.4946 
  362000    285.81067   -149.26652    121062.02   -34466.039    3488.7242   -37954.763    8845.6525 
  363000    282.07874   -147.65613    119467.17   -34495.599    3443.1707    -37938.77    8779.5818 
  364000    284.35509     258.8415    120303.63   -34505.372    3470.9568   -37976.329    8838.8041 
  365000    284.09622    110.48771    119778.09   -34562.714     3467.797   -38030.511    8828.7408 
  366000    288.39388   -180.52941    120158.83   -34494.063     3520.256   -38014.319    8865.2136 
  367000    287.66068   -101.81205    119378.69   -34601.229    3511.3062   -38112.535    8853.7755 
  368000    288.59814    -209.8886    119387.77   -34573.572    3522.7493   -38096.321    8858.3313 
  369000    285.74885   -526.52383    120646.14   -34582.511    3487.9696   -38070.481    8938.5663 
  370000    284.34624    710.07079    120427.39   -34472.356    3470.8489   -37943.205    8956.5814 
  371000    284.32135   -190.25948    120570.29   -34525.645     3470.545    -37996.19    8978.2837 
  372000    283.96102    451.86506    120614.76   -34532.996    3466.1466   -37999.143    8995.4137 
  373000    287.11822    258.41524    120183.54   -34495.548    3504.6848   -38000.233    8989.5006 
  374000    289.29569   -486.98504     120495.5    -34457.46    3531.2638   -37988.724    9032.0728 
  375000    289.57325    51.726504    120407.79   -34438.111    3534.6519   -37972.763    9042.0183 
  376000    290.77003    24.144183    120776.19   -34389.298    3549.2602   -37938.558     9075.631 
  377000    285.51222    175.69173    121297.66   -34359.566    3485.0812   -37844.647    9112.3448 
  378000    283.72184   -170.06822    120964.21   -34481.957    3463.2272   -37945.185    9101.1306 
  379000    292.05579    434.30293    119700.08   -34408.906    3564.9548   -37973.861    9063.2991 
  380000    286.35133   -185.83595    120925.96   -34429.222    3495.3238   -37924.546    9152.3483 
  381000    287.92088   -188.20799    120331.78   -34502.784    3514.4823   -38017.267    9148.5739 
  382000    282.58306   -170.43647    119869.39   -34545.775    3449.3267   -37995.102    9132.2756 
  383000    287.59305   -77.879979    119781.68   -34507.364    3510.4808   -38017.845    9139.2991 
  384000     289.9318    19.825978     120143.5   -34414.639    3539.0285   -37953.668     9171.824 
  385000    294.27852    351.87789    119622.31   -34478.661    3592.0864   -38070.748    9167.3367 
  386000    282.40569    347.48646    120341.26   -34473.974    3447.1617   -37921.136     9219.702 
  387000    287.58819      5.30111    121309.66   -34420.431    3510.4214   -37930.853    9293.9688 
  388000    287.89208    151.67024    121163.96   -34387.195    3514.1308   -37901.325     9312.646 
  389000    288.32047    282.88793    119988.34   -34434.418      3519.36   -37953.778    9264.3838 
  390000    294.53763    -396.9122    119619.69   -34433.837    3595.2492   -38029.086    9258.1136 
  391000     286.0304   -720.42398     120909.1   -34479.428    3491.4063   -37970.834    9344.3879 
  392000     289.0425    70.033759    119730.37   -34475.125    3528.1733   -38003.298    9304.5113 
  393000    285.01401    275.30496    121168.36   -34379.535    3478.9999   -37858.535    9395.4447 
  394000    296.87537    237.56045    120689.24   -34298.799    3623.7846   -37922.583     9384.045 
  395000     288.8988   -325.55201    120015.69   -34436.675    3526.4193   -37963.095    9362.6412 
  396000    292.10923    -537.8932    120936.62   -34448.414    3565.6071   -38014.021    9427.8273 
  397000    288.90184   -96.301832    119541.11   -34506.755    3526.4564   -38033.212    9361.1862 
  398000     284.6384   -120.88474    120466.63   -34482.135     3474.415    -37956.55    9425.9119 
  399000    286.81452   -474.51448     120729.7   -34466.499    3500.9776   -37967.476    9452.4355 
  400000    284.15571    13.001527     120424.6    -34557.37    3468.5231   -38025.893    9453.2549 
  401000    287.71448    273.26667    120606.16   -34457.809     3511.963   -37969.772    9491.9791 
  402000    290.41013   -375.81806    120628.62   -34496.582    3544.8672   -38041.449    9503.6916 
  403000     283.6658    44.263568    119761.44   -34562.585     3462.543   -38025.128    9479.8042 
  404000    291.15855    235.22138    120186.63   -34497.806    3554.0028   -38051.809    9518.4386 
  405000    288.59703    12.206061    120701.16   -34413.956    3522.7357   -37936.692    9552.4752 
  406000    289.41911    151.88791    119545.94   -34481.727    3532.7704   -38014.497    9507.4201 
  407000    286.69711    189.96525    120213.93   -34542.743    3499.5446   -38042.288    9545.8046 
  408000     290.5684   -340.82548     120550.7   -34372.129    3546.7991   -37918.928    9584.3528 
  409000    293.60417   -214.18021    119934.91   -34463.604    3583.8549   -38047.459    9560.5292 
  410000    289.39085   -270.32646    120879.99   -34410.679    3532.4255   -37943.104    9610.8169 
  411000    291.37258   -357.82975    120012.65       -34438    3556.6152   -37994.615    9576.1746 
  412000    283.61854    47.888906     121007.5   -34463.381    3461.9662   -37925.348    9644.3048 
  413000    286.92509    181.65683    119729.25   -34478.692    3502.3273    -37981.02     9591.229 
  414000    279.98336    33.727962    120759.98   -34477.848    3417.5937   -37895.441    9648.7798 
  415000    288.71671   -47.241284    120613.47   -34424.821    3524.1966   -37949.017    9652.3027 
  416000    290.33228     221.7297     120331.2     -34464.8     3543.917   -38008.717    9650.2769 
  417000    286.94154   -301.33814    120628.34    -34448.86    3502.5282   -37951.388    9682.5928 
  418000     289.7464   -69.421324    119980.08   -34481.435    3536.7655   -38018.201    9666.1834 
  419000    286.29691   -278.87138    120470.64   -34522.262    3494.6596   -38016.922    9707.3251 
  420000    284.76662   -460.30202    120717.93   -34525.226    3475.9802   -38001.206    9726.3649 
  421000    293.37781     15.51294     120527.4   -34440.909     3581.092   -38022.001    9735.3784 
  422000    287.93982   -155.38954    120569.19   -34456.056    3514.7136    -37970.77    9758.4431 
  423000    287.84302   -227.90718    120886.32   -34396.795    3513.5319   -37910.327    9798.8856 
  424000     292.8457   -231.86105    120531.05   -34380.577    3574.5968   -37955.174    9797.2338 
  425000    289.56765    708.16256     119791.9    -34345.15    3534.5835   -37879.734      9788.71 
  426000    293.33311   -613.41024    121632.91   -34284.792    3580.5463   -37865.339    9903.5667 
  427000    291.37499    -20.26578    120554.16   -34430.332    3556.6447   -37986.976    9856.3465 
  428000    291.43935   -92.235336    120379.25   -34451.626    3557.4302   -38009.056    9860.3961 
  429000    288.41534   -14.806378    120993.51   -34362.636     3520.518   -37883.154    9914.3693 
  430000    293.64556   -544.87677    121304.01   -34348.567    3584.3602   -37932.927    9944.4086 
  431000    294.41488   -276.83774    120627.11   -34364.546    3593.7508   -37958.297    9915.5465 
  432000    285.12001   -137.33412    120215.09   -34334.588    3480.2937   -37814.882    9911.9245 
  433000    290.49069    751.40414    121066.52   -34361.611    3545.8506   -37907.462    9975.1507 
  434000     296.3632    505.09258    120072.72   -34359.111    3617.5328   -37976.644    9932.8428 
  435000    291.87747   -178.06604    120851.81   -34324.558    3562.7781   -37887.336    9997.8082 
  436000    289.53309   -187.22989    120698.11   -34405.128    3534.1616    -37939.29     10014.89 
  437000    287.35428   -333.06682    120417.25   -34512.291    3507.5662   -38019.857    10021.028 
  438000    290.38521   -210.64638    120467.43   -34488.797     3544.563    -38033.36    10034.301 
  439000    290.45292    434.89644    120941.96   -34453.176    3545.3895   -37998.566    10074.058 
  440000    284.35789   -267.82488    120753.11   -34491.026     3470.991   -37962.017    10085.198 
  441000    288.71194   -10.236219    119828.99   -34504.106    3524.1384   -38028.244    10051.195 
  442000     288.4995    38.151565    120765.99   -34485.942    3521.5452   -38007.487    10110.704 
  443000    292.37979   -444.40206    120335.42   -34396.632    3568.9097   -37965.541     10112.03 
  444000    288.89294   -31.665484     120740.8   -34380.437    3526.3478   -37906.785    10148.463 
  445000    288.90839   -46.510049    121229.73   -34296.833    3526.5363    -37823.37    10202.382 
  446000    290.04323   -487.37408    121165.39   -34277.262    3540.3887   -37817.651    10210.905 
  447000    283.96077   -374.35282    121377.68   -34405.849    3466.1436   -37871.992    10241.941 
  448000    296.38064    282.77657    120218.02   -34371.585    3617.7458   -37989.331    10184.502 
  449000    281.02449   -336.54565    121094.97   -34444.815    3430.3022   -37875.117    10249.509 
  450000    287.28289   -406.15576    120735.39   -34435.811    3506.6948   -37942.505    10234.139 
  451000    289.95973    61.386901    120366.01   -34464.515    3539.3695   -38003.884     10237.19 
  452000    290.07753    192.30232    120310.57   -34434.535    3540.8074   -37975.342    10258.285 
  453000    293.17525   -366.15464     120417.9   -34453.048    3578.6194   -38031.667    10283.853 
  454000    289.56673    286.20473    120361.21   -34477.901    3534.5723   -38012.473    10297.845 
  455000    290.35852    148.65847    120433.33   -34445.854    3544.2372   -37990.091    10306.853 
  456000    291.90395   -747.54699    120482.49   -34344.221    3563.1014   -37907.322    10336.646 
  457000    291.89364   -761.01946    121085.44   -34338.928    3562.9755   -37901.904     10382.84 
  458000    294.32306     209.5144    120319.34   -34356.335      3592.63   -37948.965     10370.33 
  459000    294.54808   -333.95255    121314.27   -34340.504    3595.3767   -37935.881    10444.627 
  460000    288.56722   -349.95688    120899.91   -34365.895    3522.3719   -37888.267    10440.439 
  461000    294.47255    353.50272    120911.78   -34380.764    3594.4548   -37975.219    10458.884 
  462000    279.61474   -231.21329    120682.54    -34443.46    3413.0941   -37856.554    10476.529 
  463000    291.12629   -208.11815    120511.22   -34343.032    3553.6089   -37896.641    10479.817 
  464000    288.33195    164.84035    120659.72   -34428.964    3519.5001   -37948.464      10515.2 
  465000    295.22031    189.51865     121053.1   -34314.814    3603.5823   -37918.396     10555.95 
  466000    287.27321   -208.32712    120481.01   -34432.499    3506.5766   -37939.075    10520.959 
  467000    284.47246    282.15642    119956.52   -34495.753    3472.3895   -37968.142    10512.152 
  468000    288.96899    225.05215    120749.55   -34437.863    3527.2761   -37965.139    10577.485 
  469000    289.26823    65.184351    120413.05   -34457.198    3530.9287   -37988.127    10576.721 
  470000    289.56826   -22.696577    120338.54   -34439.935    3534.5909   -37974.526    10585.871 
  471000    287.80675   -195.74384    120741.56   -34405.562    3513.0892   -37918.652    10633.759 
  472000    284.68297    -436.8042    121579.18   -34391.181    3474.9591    -37866.14    10689.822 
  473000    293.99958    645.82366    119135.56   -34435.199    3588.6815    -38023.88    10570.841 
  474000    286.37683   -145.62326    120319.63   -34474.805    3495.6351    -37970.44    10654.337 
  475000    285.18372   -269.70012    119925.15   -34533.093    3481.0714   -38014.165    10636.584 
  476000    284.29102   -152.73441    121575.38   -34523.444    3470.1748   -37993.618    10749.858 
  477000    288.45991    422.14539    119609.66   -34515.051    3521.0619   -38036.113    10652.421 
  478000    290.39002    351.03138    119971.63   -34535.859    3544.6217   -38080.481    10690.831 
  479000    284.79931   -287.79354    120472.08    -34495.98    3476.3792   -37972.359    10737.221 
  480000    287.90044    381.43863    119761.16   -34495.772    3514.2329   -38010.004    10712.736 
  481000    289.09244    147.33714    120363.08   -34442.711     3528.783   -37971.494     10766.33 
  482000    290.02664   -9.8219859    120256.73   -34497.247    3540.1861   -38037.433    10776.696 
  483000    292.16219    -248.5692    120899.94    -34386.03    3566.2535   -37952.284     10822.98 
  484000     287.7009   -85.968145    120800.05   -34409.989    3511.7972   -37921.786    10822.653 
  485000    286.39668   -271.11403    120532.16   -34466.318    3495.8774   -37962.195    10825.518 
  486000    287.51191    515.54687    120425.53   -34492.877    3509.4904   -38002.368    10843.887 
  487000    292.31822    62.142532    120102.18    -34483.21    3568.1581   -38051.368    10851.689 
  488000    292.78976    53.754561    119919.58   -34374.976     3573.914    -37948.89    10859.339 
  489000    294.78311     10.86357    120444.67   -34359.565    3598.2456   -37957.811    10918.547 
  490000    290.94238   -16.686253    120040.39   -34429.803    3551.3641   -37981.167    10903.164 
  491000    285.33594    332.50284    121055.01    -34474.02    3482.9295    -37956.95    10990.347 
  492000    288.26749    512.00441    119425.69   -34528.787    3518.7132     -38047.5    10913.551 
  493000    284.01187    258.40616    120507.94   -34561.367    3466.7673   -38028.134    10998.542 
  494000    289.55658    -266.4498    120957.64   -34492.589    3534.4483   -38027.038      11039.1 
  495000    284.44682    -613.3585    121363.59   -34455.149    3472.0765   -37927.226    11069.386 
  496000    282.75074    -115.2935    121215.25   -34548.117    3451.3735    -37999.49    11092.608 
  497000    283.91949    211.92312    119514.42   -34594.561    3465.6397   -38060.201    11020.716 
  498000    288.30566   -409.63653    120099.98   -34491.593    3519.1792   -38010.772    11073.357 
  499000    287.21344    551.06841    119901.85   -34510.826    3505.8471   -38016.673    11072.226 
  500000     290.5531    9.5258188    119802.34   -34526.943    3546.6124   -38073.555    11075.523 
  501000    292.80096    434.57865    120290.05   -34365.165    3574.0507   -37939.215    11124.042 
  502000    292.65863    -126.5074    121016.27   -34383.254    3572.3133   -37955.567    11180.327 
  503000    287.98875   -136.37052    121146.52   -34381.229    3515.3109    -37896.54    11206.634 
  504000    293.29743    156.58504    120674.16   -34363.539    3580.1107    -37943.65    11196.691 
  505000    291.71584    130.45696    120758.24    -34399.37    3560.8052   -37960.176    11212.281 
  506000    290.75691   -315.31029    120376.83   -34491.663    3549.1002   -38040.763    11196.359 
  507000    286.65561   -110.12074    120346.46   -34485.496     3499.038   -37984.534    11207.113 
  508000    283.31705    140.47095    119806.46   -34605.557    3458.2861   -38063.843    11193.083 
  509000    284.30438   -262.59247    120562.35   -34534.177    3470.3379   -38004.515    11253.755 
  510000    290.73966    3.9386431    120094.28   -34441.363    3548.8895   -37990.252    11239.151 
  511000     285.7979    153.91749    120863.41   -34486.289    3488.5684   -37974.858    11312.298 
  512000    292.04482    76.883101    120124.04   -34405.833    3564.8209   -37970.654    11290.462 
  513000     294.1204   -78.722532     121095.6   -34367.056    3590.1563   -37957.212    11367.136 
  514000    292.97491    444.05816    120291.35   -34364.563    3576.1739   -37940.737    11317.094 
  515000    284.84705     -320.222    121040.48   -34428.017    3476.9619   -37904.979    11395.127 
  516000    286.45159    82.484569    120926.17   -34386.653    3496.5476     -37883.2    11411.004 
  517000    286.35952    299.43373    120341.68   -34470.877    3495.4238   -37966.301    11395.554 
  518000    286.67499    280.96918    119654.75   -34530.646    3499.2745   -38029.921    11373.403 
  519000    292.35961    211.97933    119896.75   -34462.479    3568.6634   -38031.142    11402.874 
  520000    291.36533   -495.15537     121204.1   -34426.626    3556.5268   -37983.152    11517.872 
  521000    290.26234    281.54496    120550.84    -34437.98    3543.0632   -37981.044    11487.864 
  522000    285.18966    609.06422     120292.6   -34490.428     3481.144   -37971.572    11480.972 
  523000    289.85245    361.48786     119519.2   -34541.277    3538.0599   -38079.337    11458.198 
  524000    283.52727    322.26032    119751.77   -34615.252    3460.8522   -38076.105    11481.112 
  525000    287.66216    363.36096    120224.47   -34522.257    3511.3243   -38033.581    11533.592 
  526000    293.11082     258.0596    120183.53   -34417.082     3577.833   -37994.915    11558.303 
  527000    288.80297     186.9578    120953.14   -34404.038    3525.2495   -37929.287    11622.819 
  528000    294.77665   -26.349046    119869.94   -34380.654    3598.1667    -37978.82    11562.623 
  529000    282.84829   -70.561266    120624.71   -34488.885    3452.5642   -37941.449    11632.511 
  530000    292.04846    229.67063    121269.61   -34368.088    3564.8653   -37932.953    11676.956 
  531000    294.58063    584.92778    120278.89   -34309.052    3595.7741   -37904.826    11628.813 
  532000    297.55553   -5.2358569    120961.92   -34288.645    3632.0869   -37920.732    11686.304 
  533000    294.61725   -97.575439    119723.65    -34320.46    3596.2211   -37916.682    11610.469 
  534000    291.20823   -52.362134    121305.78   -34235.284    3554.6091   -37789.893    11727.707 
  535000    291.36089    -302.0302    120818.03   -34340.392    3556.4726   -37896.864    11694.917 
  536000    295.77485   -449.99225    120376.69   -34383.135    3610.3512   -37993.486    11685.483 
  537000    294.59529   -416.14378    120746.81   -34363.749     3595.953   -37959.702    11716.519 
  538000    291.49518    238.30555    120743.29    -34315.09    3558.1117   -37873.202     11725.86 
  539000    289.88576   -215.76179    121556.75   -34325.254    3538.4665    -37863.72    11790.436 
  540000    290.50339    187.28688    120522.77   -34460.596    3546.0055   -38006.601    11748.853 
  541000    292.69229    141.69321    120662.36   -34392.173    3572.7242   -37964.897    11776.378 
  542000     292.2229   -364.48606    120388.86   -34358.833    3566.9946   -37925.828    11769.872 
  543000    289.42152   -98.089419    121228.81    -34402.05    3532.7998    -37934.85    11844.785 
  544000    285.49494    32.001886    120601.36   -34466.182    3484.8704   -37951.052    11817.113 
  545000    287.09833   -47.723073    120151.74   -34440.534     3504.442   -37944.976    11801.113 
  546000    295.68182   -190.21976    119257.18   -34457.091    3609.2156   -38066.307    11762.891 
  547000    287.43193   -31.538603    120877.44   -34437.253    3508.5141   -37945.767    11897.818 
  548000    285.84726    63.252071    120940.38   -34415.314    3489.1709   -37904.485    11916.267 
  549000    297.95068   -341.16928    120932.12   -34320.675    3636.9103   -37957.585    11923.705 
  550000    286.54713    75.840688    121709.73   -34344.683    3497.7138   -37842.397    11989.952 
  551000     294.9907    578.55599     119861.2   -34391.828    3600.7795   -37992.607    11882.888 
  552000      290.469    -439.6326    120476.48   -34391.028    3545.5857   -37936.614    11955.301 
  553000    289.15094   -502.98066    119632.36   -34470.677     3529.497   -38000.174    11929.028 
  554000    285.53132    188.47232    120580.81   -34447.428    3485.3144   -37932.742    12011.871 
  555000     290.7732    298.94552    120676.58   -34349.233    3549.2989   -37898.532    12045.674 
  556000    299.18922    -105.4033    121252.08   -34209.122    3652.0284   -37861.151     12098.07 
  557000    288.39708    100.81279    120436.69   -34286.323    3520.2951   -37806.618    12053.029 
  558000     298.5074    154.73195     121252.9   -34317.445    3643.7058   -37961.151     12108.43 
  559000    287.55077   -309.74876    120820.56   -34364.625    3509.9646   -37874.589    12086.171 
  560000    290.34629    369.42939    120034.29   -34449.442     3544.088    -37993.53    12048.211 
  561000    291.76211   -580.16581    120761.76   -34484.465      3561.37   -38045.835    12105.127 
  562000    286.05412   -17.759305    120228.44   -34517.846     3491.696   -38009.542    12089.088 
  563000    286.26521   -207.13168    120243.45    -34506.06    3494.2726   -38000.332    12099.984 
  564000    290.38699     401.5982    119910.76   -34475.753    3544.5847   -38020.338    12096.853 
  565000    285.63623   -153.23664    121090.12   -34439.424     3486.595   -37926.019    12196.598 
  566000    285.16239    57.160145    120478.24   -34362.391     3480.811   -37843.202    12175.213 
  567000    297.55067   -48.248487    119745.65   -34393.251    3632.0276   -38025.279    12159.462 
  568000    286.30773   -109.33194    121158.83   -34413.071    3494.7916   -37907.862    12271.461 
  569000    295.18426    190.48591    119873.32    -34381.48    3603.1423   -37984.622    12198.991 
  570000    290.64434    29.435707    120442.32   -34418.616     3547.726   -37966.342    12256.163 
  571000    291.90218    37.234196     120552.7   -34336.457    3563.0797   -37899.536    12285.857 
  572000    293.42085    86.247732    120193.97   -34358.946    3581.6173   -37940.563    12283.194 
  573000    291.36004   -70.781379     120978.2   -34382.586    3556.4621   -37939.048     12364.06 
  574000    288.59028    325.48359    119608.91   -34495.708    3522.6534   -38018.361    12282.007 
  575000    289.34257   -330.80313    120138.01   -34481.747    3531.8361   -38013.583    12326.028 
  576000    285.79889   -447.78599    121082.01   -34480.125    3488.5805   -37968.706    12400.853 
  577000    284.93855    444.30106    120988.24   -34476.247    3478.0788   -37954.325    12411.604 
  578000    285.24408    79.205444    120890.55   -34359.056    3481.8082   -37840.864    12423.012 
  579000    295.51577    147.28784    120896.27    -34364.81    3607.1888   -37971.999    12445.818 
  580000    295.64544    259.77801    120582.82   -34235.354    3608.7716   -37844.126    12437.799 
  581000    295.00481   -653.73206    121597.85   -34329.014    3600.9518   -37929.966    12524.669 
  582000    288.54894    365.35094    120941.71   -34370.562    3522.1487   -37892.711     12488.44 
  583000    288.76059   -146.41875    120199.97   -34482.497    3524.7322   -38007.229    12455.316 
  584000    288.20835   -123.73622    120282.67   -34400.023    3517.9914   -37918.014    12464.456 
  585000    290.37399      88.4866    120893.27   -34391.455    3544.4261   -37935.881    12526.999 
  586000    292.62843   -117.26761    121123.51    -34379.59    3571.9447   -37951.535    12553.033 
  587000    287.20098    443.70323     120078.1   -34414.748     3505.695   -37920.443    12490.859 
  588000    292.36211    509.44237    120979.49   -34461.815    3568.6939   -38030.509    12569.723 
  589000    293.55987    351.54443    119935.22   -34427.715    3583.3143   -38011.029    12520.347 
  590000    286.96594    79.430957    120722.36   -34432.167    3502.8259   -37934.993    12589.027 
  591000    287.69006    6.4001429    120935.28    -34430.26    3511.6649   -37941.925    12618.275 
  592000    289.56169    7.5567215    120282.79    -34415.33    3534.5108   -37949.841    12605.586 
  593000    289.47231    326.22358    120565.59   -34458.509    3533.4198   -37991.928    12645.935 
  594000    284.84771   -342.09573    120239.18   -34496.592      3476.97   -37973.562    12645.557 
  595000    295.03377     143.0348    120638.08   -34411.187    3601.3052   -38012.492    12690.453 
  596000    291.29492    338.12664    120644.34   -34384.662    3555.6673    -37940.33    12716.303 
  597000    292.78175    105.96862    120787.92   -34392.518    3573.8161   -37966.334    12748.569 
  598000     286.3994     254.4757    120817.88   -34391.039    3495.9105   -37886.949    12772.983 
  599000    284.22464    197.52017    120846.19   -34406.426    3469.3645   -37875.791     12791.68 
  600000    288.87001    201.79634    120322.44   -34445.238    3526.0679   -37971.306    12778.474 
  601000    288.73659 -0.090319707    120560.85   -34476.707    3524.4392   -38001.146    12807.437 
  602000    292.58074    566.99887    120423.76   -34468.065    3571.3626   -38039.428    12811.551 
  603000    293.60045    44.361358    120336.86   -34310.733    3583.8096   -37894.543    12830.563 
  604000    290.29884   -102.98066    121094.57   -34384.001    3543.5088    -37927.51    12888.657 
  605000    289.85663    -68.38693    120452.34   -34413.721    3538.1109   -37951.832    12847.134 
  606000    285.24627    -257.6064    120408.93   -34530.575     3481.835    -38012.41    12862.938 
  607000    286.72128    -391.2135    119800.12   -34503.774    3499.8395   -38003.614    12849.732 
  608000    290.72063   -434.90054    120305.26   -34558.868    3548.6573   -38107.525    12904.023 
  609000    285.70171    82.177249    119900.25    -34569.17    3487.3943   -38056.564    12898.857 
  610000     287.7398   -489.57589    119778.55   -34551.585     3512.272   -38063.857    12902.944 
  611000    293.67487   -448.08539    119829.53   -34470.268    3584.7179   -38054.986    12924.346 
  612000    295.51094     309.6486    120581.16   -34404.191    3607.1298   -38011.321    12987.912 
  613000     290.8518    208.15631    119921.42   -34429.324    3550.2583   -37979.582    12962.081 
  614000    291.59466    229.07514    121277.85   -34295.481    3559.3261   -37854.808    13070.201 
  615000    287.65175    168.48267    121509.59    -34317.24    3511.1972   -37828.437    13093.163 
  616000    291.71328    694.05977    120366.88   -34259.917     3560.774   -37820.691    13035.013 
  617000    291.36035   -378.09917    121112.27   -34316.839     3556.466   -37873.305    13104.341 
  618000    289.58593   -37.057027    121389.75   -34320.098    3534.8066   -37854.905    13147.821 
  619000    289.91097   -632.75505    120148.28   -34382.784    3538.7742   -37921.558    13082.306 
  620000    291.03129    351.08894    120325.68   -34462.617    3552.4493   -38015.066    13114.361 
  621000    289.18578     379.3344    121417.19   -34441.015    3529.9223   -37970.937    13209.126 
  622000    283.22983   -339.56075    120770.87   -34450.277    3457.2215   -37907.499    13178.097 
  623000    294.52738    144.45352    120093.44   -34483.547     3595.124   -38078.671    13143.243 
  624000     286.9929   -228.27158    120085.81   -34496.758    3503.1551   -37999.913    13166.492 
  625000    285.35343   -628.47824    120814.43   -34485.452     3483.143   -37968.595    13249.998 
  626000    286.25717   -86.865143    120041.16   -34512.526    3494.1744   -38006.701    13228.392 
  627000    284.07689   -258.36948    119879.85   -34580.601     3467.561   -38048.162    13233.551 
  628000    284.13976    -196.0541     119927.7   -34637.627    3468.3284   -38105.955    13242.561 
  629000    285.97878   -604.83033    120014.42   -34627.738    3490.7763   -38118.514    13262.515 
  630000    290.07227   -469.58307    119858.92   -34612.526    3540.7432   -38153.269    13248.618 
  631000    284.51773    58.581872    120430.91   -34547.199    3472.9422   -38020.141    13290.653 
  632000    292.44212    259.09529    119606.45   -34546.316    3569.6705   -38115.986    13244.921 
  633000    285.97599    180.02824     119969.8   -34567.959    3490.7422   -38058.702    13288.029 
  634000    298.01679   -640.89859     119613.4   -34482.548    3637.7172   -38120.266    13286.017 
  635000    285.79494   -324.86856     120254.8   -34525.178    3488.5323   -38013.711    13326.468 
  636000     287.2613   -31.444899    120695.37   -34436.255    3506.4312   -37942.687    13378.145 
  637000    290.94719   -410.21652     120207.9   -34367.616    3551.4228   -37919.039    13366.295 
  638000    289.64891    561.58995     119728.7    -34410.86    3535.5754   -37946.435    13335.364 
  639000    286.52227   -422.86057     120402.3   -34501.759    3497.4103   -37999.169    13405.083 
  640000    288.58877   -321.84971    120710.15   -34444.898    3522.6349   -37967.533    13441.191 
  641000    288.14434    155.33138    121378.83   -34430.082      3517.21   -37947.292    13510.753 
  642000    289.29701    187.27279    120545.52   -34486.515      3531.28   -38017.795    13461.337 
  643000    289.31005   -534.33617    120054.78   -34464.333    3531.4391   -37995.772    13447.006 
  644000    283.10092   -109.98103    120081.64   -34540.131     3455.648   -37995.779    13477.869 
  645000    283.68951   -205.28092    120809.02   -34480.886    3462.8325   -37943.718    13539.356 
  646000     284.4766    99.180683    120821.43   -34476.448    3472.4401   -37948.888    13577.943 
  647000    292.40179   -77.495751    121016.56   -34426.182    3569.1783    -37995.36    13598.841 
  648000    291.44789   -251.17177    121122.81     -34357.2    3557.5345   -37914.735    13637.006 
  649000    293.21507   -32.329064     120720.3    -34341.98    3579.1054   -37921.085    13617.811 
  650000    283.67577   -232.66871     119883.1    -34565.83    3462.6648   -38028.495    13578.434 
  651000    289.85715    65.666348    119820.05   -34503.771    3538.1173   -38041.888    13589.834 
  652000    288.07072    491.99255    119443.04   -34583.509    3516.3114   -38099.821    13568.281 
  653000    289.42492   -446.06588    121497.58   -34451.037    3532.8413   -37983.878    13730.245 
  654000    289.64833    155.91495    120532.02   -34361.988    3535.5683   -37897.556    13677.672 
  655000    293.34551   -306.50636    120979.74   -34377.092    3580.6976   -37957.789    13718.136 
  656000    294.26851   -404.37549     120937.4   -34391.691    3591.9642   -37983.655    13736.828 
  657000    288.31684   -77.032362     120450.9   -34437.142    3519.3156   -37956.458    13716.206 
  658000    290.38768    144.02305    120429.17   -34488.671    3544.5932   -38033.264    13733.476 
  659000    287.08439   -319.08658    120725.66   -34486.417    3504.2719   -37990.688    13772.256 
  660000    289.13221   -413.65593    121073.89   -34418.716    3529.2684   -37947.984    13815.544 
  661000    288.35197    84.809135    121179.12   -34342.172    3519.7444   -37861.916    13842.468 
  662000    289.30844    516.17628     120100.9    -34354.46    3531.4195   -37885.879    13777.685 
  663000    291.22622   -217.10135    120700.84   -34315.196    3554.8287   -37870.025    13841.948 
  664000    287.64025    594.40566    120565.33   -34435.686    3511.0569   -37946.743    13855.205 
  665000    288.17849     130.2275    120836.13   -34411.809    3517.6269   -37929.436    13875.075 
  666000    292.53141   -37.071656    121033.67   -34321.631    3570.7604   -37892.392    13899.736 
  667000    290.76753   -302.77912    119965.48   -34415.464    3549.2297   -37964.694    13841.258 
  668000    292.39042    34.142415    121043.24   -34396.048    3569.0394   -37965.087    13942.964 
  669000    292.43148    300.40588    120914.83   -34397.598    3569.5407   -37967.139    13944.286 
  670000    285.77896   -544.96451    120879.72   -34466.472    3488.3372   -37954.809    13933.878 
  671000    288.70161    -134.3979    120319.15   -34454.557    3524.0122   -37978.569    13917.355 
  672000    285.71854   -136.59669    120647.15   -34467.177    3487.5997   -37954.776    13973.395 
  673000    287.18582    296.22831    120875.87   -34446.088    3505.5099   -37951.597    14010.808 
  674000    284.82134   -692.15723    120301.56    -34459.31    3476.6481   -37935.958    13983.392 
  675000    284.84963    326.07302    120048.41   -34546.887    3476.9935    -38023.88    13977.455 
  676000    282.73728   -550.61491    119832.93   -34530.335    3451.2092   -37981.545    13992.534 
  677000    286.23465    151.47097    120420.19   -34510.527    3493.8995   -38004.426    14067.572 
  678000    292.33902   -337.45663    119499.02   -34564.018    3568.4121    -38132.43     14001.29 
  679000    288.71259    176.18462    120415.44   -34543.334    3524.1464   -38067.481    14096.858 
  680000    284.57385    224.34622     120134.2   -34532.702    3473.6271   -38006.329    14100.858 
  681000    289.50096    -448.7738    120057.02   -34438.561    3533.7695   -37972.331    14102.984 
  682000    287.32871    125.71533    121130.53   -34381.967    3507.2541   -37889.221    14228.776 
  683000    289.51188     39.69171    120994.57   -34345.995    3533.9028   -37879.898    14222.707 
  684000    291.18078    647.65008    120327.12   -34374.462     3554.274   -37928.736    14189.766 
  685000    293.20575   -46.613638    120053.67    -34402.96    3578.9916   -37981.952     14188.06 
  686000    290.09841    216.56314    120705.45   -34410.642    3541.0622   -37951.704    14242.969 
  687000    288.11401    89.632605    120027.23    -34429.17    3516.8398    -37946.01     14209.73 
  688000    289.90754   -801.79313    121099.35   -34415.035    3538.7324   -37953.767    14309.551 
  689000    286.63031    193.81551    120021.94    -34424.28    3498.7292   -37923.009    14235.377 
  690000    287.93464   -406.21602    121005.51   -34447.108    3514.6503   -37961.759    14338.783 
  691000    285.38401   -373.90994    121458.95   -34334.543    3483.5163   -37818.059    14388.314 
  692000     287.1707   -13.519354    120624.06   -34409.392    3505.3253   -37914.717    14349.141 
  693000     287.6019    154.33523    121379.94   -34448.244    3510.5888   -37958.833    14432.336 
  694000    285.59168   -267.92345    121396.76   -34479.934    3486.0512   -37965.985    14458.046 
  695000    284.86307    520.28347    120219.14   -34508.893    3477.1574   -37986.051     14383.16 
  696000    289.30706    226.90082    120786.27   -34433.454    3531.4026   -37964.857    14447.317 
  697000    291.90713    332.37425    120522.53   -34422.387    3563.1401   -37985.527    14423.855 
  698000    288.96537   -373.71367    121333.83    -34424.84    3527.2318   -37952.072    14511.419 
  699000    289.71164    -409.9114     120008.4   -34506.715    3536.3412   -38043.056    14421.152 
  700000    290.70513    678.48795    120104.04   -34428.851     3548.468   -37977.319    14437.706 
  701000    284.00351    -222.6952    120760.27   -34445.163    3466.6653   -37911.828    14504.465 
  702000    284.27673   -424.11453    120391.05   -34509.873    3470.0003   -37979.873     14488.85 
  703000    290.39589    597.26961    120748.76   -34452.345    3544.6934   -37997.038    14538.298 
  704000    291.83645    134.54617    120470.75   -34388.133    3562.2775   -37950.411    14541.333 
  705000    294.26427    112.70932    120748.67   -34438.729    3591.9125   -38030.642    14583.228 
  706000    283.08093     196.0661    120278.48   -34570.466    3455.4039    -38025.87    14549.092 
  707000    286.88623     194.5322    119106.85   -34576.918     3501.853   -38078.771    14471.787 
  708000    288.31718   -147.26179    119641.11   -34578.249    3519.3198   -38097.569    14521.146 
  709000    286.50622   -26.529833    120099.09   -34489.816    3497.2144   -37987.031    14580.472 
  710000    291.65848   -135.94276    120148.04   -34509.656    3560.1051   -38069.761    14597.755 
  711000    283.95439   -401.28765    120800.85   -34557.352    3466.0658   -38023.418    14662.461 
  712000    292.43225    329.21245    119429.84   -34527.309    3569.5501   -38096.859    14556.384 
  713000    289.23093    636.72621    119875.82   -34513.976    3530.4734   -38044.449    14624.181 
  714000    286.14902   -34.805482    120685.99   -34491.651    3492.8543   -37984.506    14708.019 
  715000    288.08273    355.28719    119945.14   -34485.174     3516.458   -38001.632    14657.395 
  716000     292.3573    630.04758    120153.75    -34432.47    3568.6352   -38001.106    14703.453 
  717000    289.17254   -17.195875    120006.58   -34429.002    3529.7606   -37958.763     14694.38 
  718000    293.18735   -149.32899     121220.2   -34470.495    3578.7671   -38049.262    14817.189 
  719000    289.92318   -333.91331    119792.36   -34434.896    3538.9233    -37973.82    14721.059 
  720000    287.10036   -191.91687    120552.28   -34390.969    3504.4668   -37895.436    14795.196 
  721000    290.55718   -649.92036    120770.21   -34368.177    3546.6622   -37914.839    14816.448 
  722000    291.63387   -114.80234    120464.71   -34463.882    3559.8047   -38023.687    14833.842 
  723000    290.13528   -658.50496    120668.26   -34489.108    3541.5123    -38030.62    14847.367 
  724000    292.89394   -123.58647    119669.94   -34444.044    3575.1856    -38019.23    14775.795 
  725000    285.49025    16.651475    121338.89   -34413.135    3484.8131   -37897.948    14936.859 
  726000    284.17698   -95.376704       121041   -34384.149    3468.7828   -37852.932    14928.951 
  727000    295.54221   -104.58119    119641.56   -34347.519    3607.5114    -37955.03    14840.187 
  728000    292.22436   -57.774877    121464.22   -34383.981    3567.0125   -37950.994    15009.836 
  729000    284.93123   -48.828449    119691.73   -34417.247    3477.9895   -37895.236    14883.065 
  730000    291.02945   -195.98062    120104.92   -34421.448    3552.4269   -37973.875    14932.274 
  731000    290.46795   -285.73175    120210.84   -34473.303     3545.573   -38018.875    14947.873 
  732000    291.28282   -644.58601    119653.99   -34482.802    3555.5196   -38038.322    14913.493 
  733000     288.0755    178.61639    120446.65   -34440.861    3516.3697   -37957.231     15007.46 
  734000    286.75516   -557.31133    121674.15   -34374.564    3500.2531   -37874.817    15132.938 
  735000    288.91909    365.37262    119254.89   -34491.459    3526.6669   -38018.126    14949.986 
  736000    288.17525   -67.165969    120340.56   -34451.971    3517.5873   -37969.558    15066.432 
  737000    285.51667    94.270751     120737.7   -34432.098    3485.1355   -37917.234    15114.957 
  738000    290.87382   -232.00217    120112.38   -34394.161    3550.5272   -37944.688    15092.532 
  739000    290.65264    147.34023    120300.74    -34400.05    3547.8273   -37947.877    15132.864 
  740000    290.06946    3.2641454    120520.16   -34402.141    3540.7088    -37942.85    15160.635 
  741000    297.27183   -178.23472    119657.36   -34402.383    3628.6239   -38031.007    15093.476 
  742000    287.53893      607.894    120419.89   -34406.727    3509.8201   -37916.547    15185.365 
  743000    289.76566    433.44506    119614.98   -34496.456    3537.0005   -38033.457    15123.296 
  744000    290.84835   -465.82656    120265.22   -34505.093    3550.2163   -38055.309    15187.372 
  745000    292.20129    289.96463    119908.81   -34440.271    3566.7308   -38007.002    15175.384 
  746000    290.83927    79.538836    120334.85   -34513.175    3550.1055    -38063.28    15227.744 
  747000    296.89741    83.429331    119814.18   -34452.928    3624.0536   -38076.981    15182.799 
  748000    290.82675    229.39074    120373.08   -34399.528    3549.9527   -37949.481    15266.506 
  749000    293.05112     230.0025    119780.74   -34293.039    3577.1042   -37870.143    15249.369 
  750000    291.90001    211.69089    121099.89   -34267.673    3563.0533   -37830.726    15363.842 
  751000    286.88222   -278.77485    120995.87    -34366.16    3501.8041   -37867.964    15373.252 
  752000    285.82715   -535.11141    121186.63   -34411.805    3488.9254    -37900.73    15391.894 
  753000    292.47165    262.84989    120499.79   -34392.631    3570.0309   -37962.662    15351.537 
  754000    290.43703   -194.94315    120949.02    -34410.65    3545.1956   -37955.845    15404.348 
  755000    291.79951   -126.86425     120488.5   -34442.522    3561.8265   -38004.348    15379.468 
  756000    286.19709   -466.50202    120320.31   -34511.555    3493.4411   -38004.996    15382.341 
  757000    290.51946    169.67643    119629.18   -34519.771    3546.2017   -38065.973    15336.807 
  758000    287.48331    110.89722    120292.19   -34532.294    3509.1412   -38041.435     15401.52 
  759000    280.57858   -542.86881    120658.83   -34508.739    3424.8592   -37933.598    15445.238 
  760000    288.65317    -39.55861    121577.52   -34454.838     3523.421   -37978.259    15530.037 
  761000    296.82529    89.069512    121009.19   -34279.656    3623.1733   -37902.829    15503.343 
  762000    294.61628     64.37035    121381.79     -34280.1    3596.2092   -37876.309    15547.563 
  763000    301.49114   -438.18227    121296.64   -34233.973    3680.1266     -37914.1    15554.768 
  764000    301.37491   -178.87296    120746.08   -34232.795    3678.7079   -37911.503    15501.399 
  765000     294.0451    418.10765     121056.5   -34267.988    3589.2371   -37857.225    15530.473 
  766000    290.68225   -372.17354    121421.05   -34264.121    3548.1889    -37812.31    15570.202 
  767000    291.53853   -266.95311    120741.12    -34369.73    3558.6409   -37928.371    15536.574 
  768000    290.77656   -26.455796    120550.34   -34382.722      3549.34   -37932.062    15536.466 
  769000    294.17044   -193.54548    120251.97   -34433.731    3590.7671   -38024.498     15522.95 
  770000    290.27084   -215.07821    120785.52   -34440.747     3543.167   -37983.914    15589.819 
  771000    289.53801    258.70574    120217.74   -34398.343    3534.2217   -37932.565    15563.479 
  772000    291.52572   -386.37976    120214.54   -34435.168    3558.4846   -37993.653    15582.053 
  773000    294.06619    508.94399    120288.65   -34351.636    3589.4946   -37941.131     15615.08 
  774000    289.06111     33.26179     121656.5   -34330.383    3528.4005   -37858.784    15726.054 
  775000     292.4662   -369.90044    121166.06   -34260.778    3569.9645   -37830.743    15699.779 
[...]
 1815000    294.73497     -186.788     120730.3   -34330.799     3597.658   -37928.457    31919.773 
 1816000     296.4942   -361.86706    119915.69   -34376.249    3619.1319   -37995.381    31792.909 
 1817000    290.57825   -324.90259    121617.07   -34413.791    3546.9193    -37960.71    32095.325 
 1818000    292.74688   -71.417564    120623.74   -34303.423    3573.3905   -37876.814    31943.907 
 1819000    290.75819    224.09581    120731.05   -34430.057    3549.1157   -37979.173    31952.081 
 1820000    293.48908    -157.0615    120703.41   -34353.762    3582.4502   -37936.212    31971.394 
 1821000    295.16838    176.13971    119910.14    -34391.58    3602.9483   -37994.528    31845.592 
 1822000     295.9374    274.56978    119877.46   -34384.804    3612.3354    -37997.14    31879.688 
 1823000    288.22457   -79.909486    121456.98   -34360.362    3518.1894   -37878.552    32164.421 
 1824000    293.19415   -438.24688    120193.84   -34376.469    3578.8501   -37955.319    31959.536 
 1825000    287.43198    420.63867    120412.19   -34459.732    3508.5147   -37968.246    32021.153 
 1826000    287.89793   -12.862009    120427.03   -34532.253    3514.2022   -38046.455    32052.919 
 1827000    286.07751   -24.287434    119868.49   -34575.521    3491.9814   -38067.503      31946.9 
 1828000    285.54241   -80.375004    119403.72   -34590.886    3485.4498   -38076.336    31883.373 
 1829000    287.64459   -273.76561    120108.64   -34443.656    3511.1099   -37954.766    32032.079 
 1830000    284.40038   -388.63952    121569.23   -34493.611    3471.5096   -37965.121    32311.494 
 1831000    284.03249    315.48058    120867.97   -34477.375    3467.0191   -37944.394    32215.571 
 1832000    293.76581    43.713055    120624.66   -34476.699     3585.828   -38062.527    32178.589 
 1833000    294.21878    194.15668    119143.49   -34470.139    3591.3572   -38061.497    31922.364 
 1834000    293.12195    49.560247    119689.53   -34444.154    3577.9689   -38022.123    32028.939 
 1835000    288.32017   -372.93943    120725.46   -34465.149    3519.3563   -37984.505    32228.611 
 1836000    287.79185   -131.90907    120745.95   -34419.982    3512.9074    -37932.89    32238.491 
 1837000    289.25374    136.57641    120539.95   -34445.636    3530.7518   -37976.388    32204.158 
 1838000    295.80113   -624.65282     120324.7   -34385.843     3610.672   -37996.515    32165.179 
 1839000    284.46309    130.03104    121093.81   -34438.879    3472.2752   -37911.154    32295.592 
 1840000    291.77043   -4.6775986    120786.19   -34424.519    3561.4716   -37985.991    32261.221 
 1841000    294.85939     114.8011     119547.6   -34435.374    3599.1767    -38034.55    32069.958 
 1842000    288.52943     283.5045    121332.65   -34432.487    3521.9106   -37954.398    32424.491 
 1843000    288.37636   -52.709104    121056.22   -34359.097    3520.0422   -37879.139    32400.134 
 1844000    289.66851   -562.41276    120909.27   -34347.854    3535.8147   -37883.669     32389.04 
 1845000     294.1618   -517.21253    120382.94   -34428.081    3590.6617   -38018.743    32318.126 
 1846000    283.94121   -208.56986    121029.34   -34473.341    3465.9049   -37939.246    32467.563 
 1847000    291.02278   -84.427378    120831.15   -34417.165    3552.3454   -37969.511    32446.155 
 1848000    295.54828    69.925094    120404.65    -34336.32    3607.5856   -37943.906    32407.813 
 1849000    292.83137    23.080225    121461.96   -34289.694    3574.4219   -37864.116     32614.67 
 1850000    296.08983    4.3361185    120384.33   -34385.734     3614.196    -37999.93    32425.476 
 1851000    286.15784   -697.66029    121319.48   -34456.412     3492.962   -37949.374    32600.251 
 1852000    291.00582   -259.75481    120387.64   -34422.056    3552.1385   -37974.194    32440.529 
 1853000    292.14366   -340.86414    121467.04   -34348.228    3566.0274   -37914.255    32648.705 
 1854000    291.44287    480.22187    121329.09   -34341.213    3557.4733   -37898.686    32616.782 
 1855000    295.36331   -294.35567    120568.26     -34350.9    3605.3278   -37956.228    32513.623 
 1856000     284.5865    26.843901    120725.09   -34506.922    3473.7816   -37980.704    32572.383 
 1857000    287.47121   -520.63848    120712.46   -34476.156    3508.9935    -37985.15    32566.264 
 1858000    294.08627    36.467248    119868.26   -34492.767    3589.7397   -38082.507    32421.446 
 1859000    296.98415    414.14459    120527.42   -34347.273    3625.1124   -37972.386    32534.297 
 1860000    293.39491   -386.02251    120282.03   -34436.071    3581.3007   -38017.372    32523.123 
 1861000    284.52565    202.64518    120260.31   -34555.069    3473.0388   -38028.108    32521.563 
 1862000    287.47125    405.85947    119579.26   -34479.689     3508.994   -37988.683    32410.675 
 1863000    292.00562   -783.33659    120167.44   -34489.199    3564.3424   -38053.541    32523.033 
 1864000     292.6639   -521.53391    120699.16   -34383.433    3572.3776   -37955.811     32620.18 
 1865000    290.78393   -80.430283    120634.82   -34367.745      3549.43   -37917.175    32624.946 
 1866000    286.94436    393.93479    120386.38   -34467.731    3502.5625   -37970.294    32599.474 
 1867000    292.11574      219.418    120306.31   -34428.374    3565.6866   -37994.061    32614.805 
 1868000    290.00615   -119.36937    120760.39   -34345.212     3539.936   -37885.148    32725.228 
 1869000    288.44652    183.67289     121256.6    -34387.27    3520.8986   -37908.169    32811.602 
 1870000    294.68345   -80.211507    120134.53   -34430.475    3597.0292   -38027.504    32646.416 
 1871000    282.08862    72.129462    120116.27   -34513.258    3443.2913    -37956.55    32681.768 
 1872000    287.17388    3.4986839    120596.53   -34452.238    3505.3642   -37957.602    32783.673 
 1873000    290.07886    195.56201    120097.07   -34451.619    3540.8235   -37992.443    32693.706 
 1874000    288.37959   -261.00328    121071.05   -34458.797    3520.0816   -37978.878    32893.579 
 1875000    293.56343   -207.39356    119876.66   -34460.697    3583.3577   -38044.055    32688.082 
 1876000    288.25033   -350.79467    121024.05   -34369.371    3518.5038   -37887.875    32907.951 
 1877000    295.37542    134.89415    120175.64   -34322.023    3605.4756   -37927.499    32735.763 
 1878000    291.09781    211.94952    121052.04   -34353.782    3553.2613   -37907.044    32897.047 
 1879000    291.42709   -303.40522    121059.65   -34352.547    3557.2807   -37909.828    32909.362 
 1880000    295.15257    433.67385    120435.81   -34238.514    3602.7554    -37841.27    32830.685 
 1881000     286.1588    59.960767    121345.55   -34371.116    3492.9737    -37864.09    33011.879 
 1882000    291.26255    376.86854    120336.67   -34361.302    3555.2722   -37916.574    32836.614 
 1883000    293.82749    274.58346    120007.15   -34395.716    3586.5809   -37982.297    32790.695 
 1884000    288.47572   -409.49064    121005.05   -34370.506     3521.255   -37891.761    32985.893 
 1885000    287.64284    -295.7442    119994.26   -34507.056    3511.0885   -38018.144     32830.05 
 1886000    287.67747   -250.46631    120497.12   -34424.664    3511.5112   -37936.175    32927.404 
 1887000    291.18788     546.4044    120595.76   -34390.026    3554.3608   -37944.386    32956.523 
 1888000    296.02126    -671.9953    120177.66   -34432.755     3613.359   -38046.114    32917.591 
 1889000    285.66938    103.90573    121189.98   -34442.423    3486.9996   -37929.422    33128.937 
 1890000    286.34178    -66.15268    121158.95   -34560.252    3495.2072   -38055.459    33150.538 
 1891000    287.44463    97.134548     119488.6   -34517.692    3508.6691   -38026.361    32867.129 
 1892000     289.2966   -212.87062    119555.97    -34588.86    3531.2749   -38120.135    32909.335 
 1893000    288.75729   -59.475128    120731.08   -34504.871    3524.6919   -38029.563    33137.805 
 1894000    287.84279   -45.366075     119895.9   -34440.384    3513.5292   -37953.913    33004.469 
 1895000    290.05269   -464.89607    120579.56   -34356.572    3540.5041   -37897.076    33128.769 
 1896000    295.35508    211.10118     121132.3   -34357.104    3605.2273   -37962.332    33238.715 
 1897000    290.55015    224.65017    120548.04   -34424.282    3546.5763   -37970.858     33145.06 
 1898000    289.61537     68.99824    120086.96   -34406.393     3535.166   -37941.559    33051.107 
 1899000    290.00698    150.29368    120189.22   -34467.913    3539.9462   -38007.859    33060.069 
 1900000    291.76566   -370.62322    120126.77    -34482.21    3561.4133   -38043.624    33053.089 
 1901000    287.33591    351.68562    120871.06   -34457.723     3507.342   -37965.065    33207.768 
 1902000    283.90274    84.350039    121518.34   -34454.433    3465.4353   -37919.868    33355.557 
 1903000    286.72641    143.54786    120806.59   -34390.629    3499.9021   -37890.531    33228.392 
 1904000    290.98544   -460.93859    121455.74   -34345.641    3551.8897    -37897.53    33375.915 
 1905000    292.08599    -126.5338    120029.65   -34439.968    3565.3234   -38005.292    33134.156 
 1906000    282.78611    166.90483    120471.91   -34488.905    3451.8052    -37940.71    33227.113 
 1907000    283.46516   -432.31009    120389.18   -34492.727    3460.0939   -37952.821    33223.678 
 1908000    289.72462   -93.001901    120640.19   -34420.398    3536.4995   -37956.898    33275.486 
 1909000     292.7128   -771.82045    120177.05   -34489.012    3572.9746   -38061.987    33219.882 
 1910000    291.05804    36.748617     120364.9   -34484.738    3552.7758   -38037.514    33290.596 
 1911000     284.8541    511.89848    119988.59   -34500.125     3477.048   -37977.173    33241.786 
 1912000    286.70441   -103.99259    120553.38   -34448.788    3499.6336   -37948.422    33375.545 
 1913000    288.19349   -483.41927    119845.62   -34513.118    3517.8099   -38030.928    33247.788 
 1914000    284.22422    77.292249    120167.13   -34551.931    3469.3594   -38021.291    33317.727 
 1915000    285.27826    9.1666302    120460.89   -34493.502    3482.2254   -37975.728    33382.549 
 1916000    286.36293    67.487293    119773.51   -34542.545    3495.4654    -38038.01    33257.207 
 1917000    286.11277     309.3273    120402.93   -34487.191    3492.4118   -37979.603    33384.057 
 1918000    298.92362    85.864871    119629.17   -34454.227    3648.7864   -38103.013    33247.378 
 1919000    288.97081   -492.83065    120569.01   -34421.248    3527.2982   -37948.546    33424.645 
 1920000    286.74894    31.677925    120317.67   -34436.317    3500.1772   -37936.494     33415.15 
 1921000    289.40865   -620.11614    121542.34   -34390.301    3532.6427   -37922.944    33649.082 
 1922000    292.37675   -567.38018    120594.88    -34425.58    3568.8726   -37994.452    33489.892 
 1923000    286.86692   -328.52077    120926.61   -34435.276    3501.6173   -37936.893    33545.689 
 1924000    288.72381    144.78862    120395.11   -34432.637    3524.2833    -37956.92    33462.273 
 1925000    286.87017    202.14841    119973.09   -34406.176    3501.6569   -37907.833    33407.946 
 1926000    283.35679   -420.62926    121052.98   -34440.853    3458.7712   -37899.625    33603.431 
 1927000    287.52908    68.899513    120099.74    -34470.68    3509.6999    -37980.38    33446.092 
 1928000    287.37828   -662.63096    120194.96   -34489.759    3507.8591   -37997.618    33491.985 
 1929000    289.50435    -232.6292    120607.76   -34422.338    3533.8108   -37956.149    33590.186 
 1930000    292.92993   -69.141657     119546.2   -34438.103     3575.625   -38013.728    33406.652 
 1931000    284.08972    23.941036    120902.37   -34373.949    3467.7176   -37841.666    33692.762 
 1932000    283.01259   -22.217928    120599.48    -34409.77    3454.5698    -37864.34    33618.253 
 1933000     293.2623    378.70389    119689.64   -34477.284    3579.6819   -38056.966    33470.394 
 1934000     296.3468    103.79231     120022.8    -34457.69    3617.3327   -38075.022    33556.781 
 1935000    289.20933    328.10709    120061.02   -34457.489    3530.2097   -37987.699    33575.327 
 1936000    290.46369   -111.87269    121323.65   -34322.341    3545.5209   -37867.862    33835.606 
 1937000    291.14007    583.74682    120485.03   -34357.584    3553.7771   -37911.361    33701.208 
 1938000     287.2366    312.65904    120600.55   -34368.838    3506.1298   -37874.968     33746.65 
 1939000    285.76867   -544.25472    120151.07   -34455.427    3488.2115   -37943.638    33662.386 
 1940000    284.28832    -307.7378    120786.41   -34507.651    3470.1419   -37977.793    33798.861 
 1941000    283.85554    152.01366    120022.29   -34513.248    3464.8591   -37978.108    33671.086 
 1942000    291.27484    284.15368    119947.69    -34460.74    3555.4223   -38016.163    33670.318 
 1943000      290.922   -96.010101    120746.68   -34412.306    3551.1153   -37963.422     33835.15 
 1944000    290.27554   -147.51616     119538.4   -34413.896    3543.2243    -37957.12    33616.329 
 1945000    291.82722    190.78532    121108.78   -34380.295    3562.1648    -37942.46     33933.63 
 1946000    293.63386    426.09179     120398.9   -34397.518    3584.2174   -37981.735    33804.938 
 1947000    293.92968     197.6927    119579.22   -34428.554    3587.8283   -38016.383    33675.857 
 1948000     285.8108    309.45017     120185.4   -34471.604    3488.7259    -37960.33    33786.751 
 1949000    289.69058   -136.57081    120527.89   -34486.973    3536.0841   -38023.057    33895.627 
 1950000    290.57659    -491.4264    119769.07   -34480.447    3546.8991   -38027.346      33772.8 
 1951000    287.33289    45.660657    120936.73   -34470.047    3507.3051   -37977.352    34013.303 
 1952000    293.39671    539.31235    119339.19   -34459.238    3581.3226   -38040.561    33737.772 
 1953000    290.65883    485.38829    120628.27   -34515.622     3547.903   -38063.525    34016.217 
 1954000    290.79876   -594.00906    119993.35   -34541.087    3549.6109   -38090.698    33924.933 
 1955000    289.45748     865.1311    119370.66    -34456.74    3533.2388   -37989.979    33844.842 
 1956000    294.96164    671.77109    119953.08   -34434.757    3600.4249   -38035.182    34010.248 
 1957000    282.71798   -28.373347    120446.03   -34532.264    3450.9736   -37983.237    34107.062 
 1958000     279.8892   -180.10013    120607.24   -34550.557    3416.4444   -37967.002    34165.478 
 1959000    293.51711   -79.760395     119761.8   -34441.244    3582.7922   -38024.036    34033.938 
 1960000    291.68168    -351.5514    121343.09    -34401.88    3560.3883   -37962.268    34366.697 
 1961000    294.16369    284.38833    120215.63   -34353.964    3590.6847   -37944.649    34161.403 
 1962000    284.13586   -199.78081    120820.35    -34405.94    3468.2809   -37874.221    34309.619 
 1963000    293.06066   -214.79111    121290.18   -34266.102    3577.2206   -37843.323    34403.093 
 1964000    299.53385    176.28183    120259.31    -34273.27    3656.2352   -37929.505    34215.825 
 1965000    286.03011    -452.8252    122032.42   -34330.097    3491.4028     -37821.5    34567.621 
 1966000    293.26445   -220.66239    120308.82   -34351.016    3579.7083   -37930.725     34248.14 
 1967000    290.69321    225.43314    119757.34   -34486.537    3548.3226    -38034.86    34190.115 
 1968000    290.47437     313.1149    120405.91   -34502.942    3545.6514   -38048.593    34313.931 
 1969000    290.06366    71.203963    120557.25   -34450.867    3540.6381   -37991.505    34351.458 
 1970000    293.70233   -92.906496    121039.83   -34440.261    3585.0531   -38025.314    34484.381 
 1971000     281.6712    -222.3936    120191.27   -34491.555    3438.1961   -37929.751    34304.214 
 1972000    289.81718   -58.874753    120695.32   -34386.214    3537.6294   -37923.844    34417.881 
 1973000    283.55784    789.46897    120630.84   -34416.896    3461.2253   -37878.121    34417.927 
 1974000    292.58927    24.109174    120577.41   -34384.019    3571.4667   -37955.486    34429.609 
 1975000    290.81703   -19.036483    120246.19   -34406.446     3549.834    -37956.28    34394.656 
 1976000    285.89177    266.65281    121473.53   -34390.725    3489.7142   -37880.439    34653.554 
 1977000    294.97445   -285.92439    120692.09   -34452.301    3600.5812   -38052.882     34508.64 
 1978000    294.86902    344.98802    120322.01   -34311.015    3599.2943   -37910.309    34464.341 
 1979000    288.97838   -563.56666    121008.92   -34363.027    3527.3907   -37890.418     34600.74 
 1980000    289.19899    212.34437    120342.16   -34369.371    3530.0835   -37899.455    34494.532 
 1981000    288.28255    141.07054    120765.17   -34429.505     3518.897   -37948.402    34602.382 
 1982000    290.39421   -108.44182     120327.5   -34423.733    3544.6729   -37968.406    34527.083 
 1983000    289.17265   -598.23627    121315.89   -34403.787     3529.762   -37933.549    34721.119 
 1984000    295.77328    317.58691    120204.14   -34336.424     3610.332   -37946.756    34523.029 
 1985000    290.78541    127.81029    121678.67   -34396.037    3549.4481   -37945.485    34816.279 
 1986000    293.79696    448.85373    119980.75    -34402.92    3586.2083   -37989.128    34512.609 
 1987000    292.80374    173.19659    121113.75   -34354.121    3574.0846   -37928.205    34743.083 
 1988000    289.42392   -309.84525    120866.68   -34386.844    3532.8292   -37919.673    34725.658 
 1989000    282.94602   -254.20003    121311.37   -34471.484    3453.7572   -37925.241    34824.296 
 1990000    285.62728    349.42475    120328.69   -34551.181    3486.4857   -38037.667    34641.714 
 1991000     283.0232    137.04782    119926.23    -34563.99    3454.6992   -38018.689    34592.765 
 1992000    286.98649    333.57996     120223.1    -34485.17    3503.0768   -37988.247    34666.572 
 1993000    288.11961    585.01087    119741.19   -34441.705    3516.9082   -37958.613    34592.878 
 1994000    289.22027   -19.902302    121107.67   -34407.818    3530.3433   -37938.161    34874.928 
 1995000    294.24261   -125.13115    120020.09   -34492.915    3591.6481   -38084.564    34655.812 
 1996000    288.58462    163.92613    121452.11   -34458.583    3522.5842   -37981.167    34953.205 
 1997000     286.9887   -761.34798    120382.39   -34526.184    3503.1038   -38029.288    34755.962 
 1998000    289.68525     66.36774    119965.12   -34506.314    3536.0191   -38042.333    34694.815 
 1999000     291.4771   -389.65205    120115.63   -34475.937     3557.891   -38033.828    34731.892 
 2000000      290.733   -352.54695    120863.97   -34498.429    3548.8083   -38047.237    34881.079 
Loop time of 2976.32 on 12 procs for 2000000 steps with 4096 atoms

Performance: 290.291 ns/day, 0.083 hours/ns, 671.970 timesteps/s
99.7% CPU use with 12 MPI tasks x no OpenMP threads

MPI task timing breakdown:
Section |  min time  |  avg time  |  max time  |%varavg| %total
---------------------------------------------------------------
Pair    | 2528.2     | 2569.5     | 2612.3     |  53.7 | 86.33
Neigh   | 79.446     | 80.42      | 81.77      |   9.0 |  2.70
Comm    | 193.52     | 236.48     | 275.33     | 177.6 |  7.95
Output  | 13.739     | 13.758     | 13.957     |   1.6 |  0.46
Modify  | 62.083     | 65.479     | 66.958     |  19.6 |  2.20
Other   |            | 10.65      |            |       |  0.36

Nlocal:    341.333 ave 361 max 328 min
Histogram: 2 0 0 3 5 1 0 0 0 1
Nghost:    964.667 ave 984 max 951 min
Histogram: 2 0 2 2 3 0 2 0 0 1
Neighs:    0 ave 0 max 0 min
Histogram: 12 0 0 0 0 0 0 0 0 0
FullNghs:  10143 ave 10877 max 9574 min
Histogram: 2 0 1 2 1 5 0 0 0 1

Total # of neighbors = 121716
Ave neighs/atom = 29.7158
Neighbor list builds = 143040
Dangerous builds = 0

Total wall time: 0:54:29
