LAMMPS data file via write_data, version 29 Oct 2020, timestep = 800000

4175 atoms
1 atom types

-0.7232577963830984 50.723257796381986 xlo xhi
-0.7232577963830984 50.723257796381986 ylo yhi
-0.7232577963830984 50.723257796381986 zlo zhi

Masses

1 18.015

Atoms # atomic

35 1 47.30652546088163 -0.39671526811264035 7.638990966276792 0 0 0
3605 1 39.03168359185797 4.7186339860066635 -0.5100222371722233 0 1 1
610 1 11.020865371763085 1.4364458325430003 1.483900348286264 0 0 0
1405 1 16.047585334807682 -0.19129028542356608 0.9237402370230734 0 0 1
330 1 7.436862713064853 9.08163811726637 -0.37235536104934097 0 0 0
599 1 21.691898480908925 0.1978148211066887 2.513356099970259 0 0 0
459 1 22.728676372100768 2.7122254009860365 1.8606743160463641 0 0 0
144 1 27.5299526535788 1.7196495855261675 0.11696189093822207 0 0 0
1653 1 31.882492219645957 0.98172348669242 0.08233615265541472 0 0 1
185 1 34.351266043863134 2.2494750573790956 0.20789788162888767 0 0 0
1492 1 36.62102524268067 0.860456113048057 0.5284601375491045 0 0 1
3987 1 39.02515323624732 2.170615322801968 0.8566720682282951 0 1 1
3760 1 30.215426566991507 2.929938777026155 -0.2719809831630346 0 1 1
2552 1 42.53516584763749 0.5780883719141385 1.4136636769569226 0 1 0
4157 1 46.898546580775374 1.2850356052893344 1.7856779444104922 -1 1 1
1429 1 10.73105115219277 5.024399378383812 -0.5138326120949361 0 0 1
2412 1 49.30514777467289 0.035211815551644654 2.320881970125984 -1 1 0
316 1 -0.3448975389446804 3.7531491201792706 1.5877174426499647 0 0 0
1579 1 2.003734641212504 2.9287560670056854 0.5973655038102788 0 0 1
447 1 4.194501699325986 4.870292817549769 0.696660528621422 0 0 0
193 1 5.867068909339158 4.978397615350656 2.9741579425211735 0 0 0
18 1 8.535631281704193 5.327703502449116 2.0100257816049547 0 0 0
1638 1 12.723142902054159 3.4170488150856855 0.5316590756598558 0 0 1
1352 1 4.339494816514155 8.983240701285968 15.958829609621404 0 0 0
1716 1 18.59156746820289 4.8767686179656575 2.112183410070479 0 0 1
673 1 4.304192682883994 21.113051792243372 -0.6227325980268952 1 0 0
2768 1 21.263227513629555 4.9393912395188195 2.797694436731161 0 1 0
556 1 25.392710397530944 3.2092838651150872 1.3937415141260652 0 0 0
1557 1 25.660825821685627 5.929570788708814 0.552157072679095 0 0 1
2473 1 2.8237022120485236 24.436239108666474 16.390435752778423 0 0 0
582 1 33.05753950380685 5.989835447338201 1.8296085641961861 0 0 0
322 1 42.234433154815775 -0.25731583406194297 5.850543779399753 0 0 0
268 1 44.177481935778786 2.783302847531765 1.8625647120085689 0 0 0
353 1 44.94595193235779 4.138512525855622 -0.24845635307406788 0 0 0
525 1 0.9320677314637338 6.016103367226439 2.6623399878432856 1 0 0
616 1 2.2953654545865483 6.7954664028205105 0.2816504462529832 0 0 0
12 1 9.712608129542426 7.74745580443979 0.7239119630458777 0 0 0
476 1 11.268678054453689 8.530054248275023 3.1424568002450872 0 0 0
2021 1 15.1317080620677 7.850220770053729 1.5560025095981884 0 0 1
492 1 17.78391186975666 7.469706421472981 2.3739717063667998 0 0 0
1827 1 19.13645014811536 8.743143404532287 0.2310714838684279 0 0 1
306 1 23.62675860601243 6.918709481358755 1.9489934612734925 0 0 0
1704 1 28.19154408510582 6.652706131112782 1.506325934915599 0 0 1
434 1 30.46135202003756 5.7122417302601045 0.3305815849795233 0 0 0
545 1 35.305059504245605 7.365931340175658 0.7262090508732015 0 0 0
224 1 37.805117218409876 6.091955427826717 1.5051721152028272 0 0 0
194 1 7.445582503892631 0.20870855766672136 -0.22526591812064112 0 0 0
1854 1 41.99335322514179 6.98310468529304 2.274340674999411 0 0 1
309 1 5.735147676880403 24.43639778997337 5.652158926167752 0 0 0
686 1 46.51874622619056 6.550117180878852 0.30156464000320105 -1 0 0
8 1 1.628937156604107 10.960581694641627 1.5149026567087556 1 0 0
1455 1 3.3076080574127626 9.340733457936194 0.08805457184583487 0 0 1
575 1 5.736848789220317 9.463272727705682 1.8031343163197642 1 0 0
280 1 -0.17190510755177912 -0.642620227380648 0.5051992785308799 0 0 0
286 1 12.22096136778388 10.762895336789267 1.9787105908918345 0 0 0
572 1 14.881803815768805 10.646081818548634 2.182765576342615 0 0 0
2684 1 39.98552483561407 22.87912540294206 15.708296712094807 0 0 0
1689 1 23.663364308728084 9.623369411607207 1.755855611701838 0 0 1
1945 1 21.152566860959055 10.427856145769704 0.9230101939868309 0 0 1
351 1 26.074181694528868 9.898409529597693 0.38307824718995165 0 0 0
562 1 28.0862845277796 9.21340008575594 2.179426179272164 0 0 0
382 1 30.430596720792956 10.514697596770363 1.9921477270507473 0 0 0
2028 1 31.449103899746827 20.02585503663602 -0.4677302785890428 0 0 1
1 1 34.27175515692083 9.967655032394408 0.43593918562718104 0 0 0
2526 1 35.173660050014476 23.072220293775214 12.815537611614271 0 0 0
552 1 39.40768332952632 10.319323677852012 1.506210337387118 0 0 0
581 1 41.56827473324621 10.344914701152522 -0.03731148658060812 0 0 0
2062 1 43.704053784367616 8.9065008612088 1.3336024826232817 0 0 1
2072 1 46.565405424027205 11.988437268601244 2.097076618997531 0 0 1
2443 1 24.924203197452133 -0.31552592692542375 5.614521844269124 0 1 0
659 1 50.53455278108076 9.806635112187577 1.2769022863106767 0 0 0
2744 1 40.78229292723039 -0.33699060155062005 3.517006367980538 0 1 0
377 1 1.44463397615141 13.826279124239639 1.3910087523893955 0 0 0
631 1 3.5589528173087137 14.379283092624926 -0.4981865565836875 1 0 0
237 1 5.998267941148052 14.1342538863433 0.8488873510372739 1 0 0
221 1 10.688946834124561 13.072343913558717 2.4028102197137655 0 0 0
678 1 10.07075809100372 14.872754480194276 0.107798889811346 0 0 0
2097 1 16.290746420558467 11.915804428147865 0.20200722548368533 0 0 1
2351 1 16.513366116267544 14.337744598717117 1.8455172522732042 0 0 0
354 1 21.40147044147059 14.658363311430453 0.93356402916894 0 0 0
292 1 46.45594619125828 11.582010396939163 -0.5807673048822601 0 0 0
1430 1 25.73956863146359 14.210129252491182 1.6703929820523 0 0 1
510 1 36.22979799931204 15.511111614790192 16.030768045577073 0 0 0
1986 1 41.49561474023217 5.949629234265581 -0.40009224410478994 0 0 1
430 1 29.544423403795122 13.068471900295563 1.8334828308044964 0 0 0
1693 1 34.116207245197884 14.15064712659353 2.061020819806254 0 0 1
1983 1 37.709530497822584 14.373876531633858 1.7388294579263674 0 0 1
1612 1 42.509994088667284 14.649920811208354 1.7650038919396498 0 0 1
443 1 45.458889118359394 14.401954176967354 2.5812771900511446 0 0 0
597 1 49.27499594967328 12.118415342706141 2.0691052016122247 0 0 0
23 1 50.21746439418689 14.125644808162347 0.6558890447194656 0 0 0
634 1 4.623672466869613 18.664471848258145 2.5030882589317525 0 0 0
1869 1 6.804750209260107 16.65197568704465 2.1967325743085615 0 0 1
398 1 9.269505765524883 17.328339834143517 1.1301529814669073 0 0 0
204 1 39.99839339099225 24.863386862872883 11.492229059739685 0 0 0
2190 1 16.339300172896895 16.899665649734256 0.8184044160846011 0 0 0
2909 1 31.18395250339312 21.937733404424804 13.90432574045955 0 0 0
448 1 26.873456851648356 16.3677030072624 0.3914557631745741 0 0 0
1485 1 28.032949054720287 18.370828258291876 1.9658326491557796 0 0 1
188 1 30.488084060334387 17.629684245275204 2.2434273703171175 0 0 0
411 1 35.52615690244582 16.5730848179249 2.783934912511176 0 0 0
366 1 41.1096607313886 17.274155150228907 1.4168352254482088 0 0 0
612 1 28.041180165651873 23.57559588688833 14.139789927624511 0 0 0
47 1 46.249930908401694 16.240746463436512 0.8833062391387163 0 0 0
1576 1 48.79602230967346 16.339258950669368 1.4289190452591036 0 0 1
2141 1 0.9317818246015681 19.550358408853995 1.3992850529866097 1 0 0
3512 1 3.2887265985486493 18.78232080529685 0.2188752660329525 1 0 1
2089 1 5.626327767283904 21.14151423479948 3.3100582014067763 0 0 1
2433 1 2.370523640865407 -0.5157485114597326 7.6839203740683875 1 1 0
2279 1 48.83595259086799 4.186350667642032 -0.12084657968341916 -1 1 0
3930 1 13.243223480064199 19.849457834521747 0.7182048760257085 0 0 1
2985 1 15.282956507251164 20.745131828707095 2.3121583445350358 0 0 0
2462 1 17.490505390493674 19.021348643385284 2.2610965851280374 0 0 0
2427 1 19.470045900203004 20.389955105168372 1.157426989748817 0 0 0
338 1 21.73068064150411 18.784540777688758 0.31386612426121085 0 0 0
3652 1 28.486646618224533 20.32798849524739 -0.1890508307217179 0 0 1
3580 1 44.96357470638945 -0.6614122626360033 1.2816574821453348 0 1 1
1567 1 32.704220005489404 19.740815456783732 1.9191817419990458 0 0 1
3968 1 35.25444416954751 18.92595966023525 1.348013436630581 0 0 1
2741 1 14.081892418775404 17.50238628845958 -0.40308562218949595 0 0 0
1478 1 37.184235263261755 20.829957577514126 1.6735578578440133 0 0 1
2624 1 41.88121939205331 21.883615598738917 2.874920555734248 0 0 0
361 1 43.187495808361135 19.296271353391308 2.3474851897389275 0 0 0
536 1 45.78700926517915 18.953002938638576 1.1844981514635835 0 0 0
81 1 47.90173822616998 21.006793187538456 1.2759044657630605 -1 0 0
1831 1 50.03200444406991 18.98005878242127 0.4171662295298906 0 0 1
2140 1 0.6808745915265912 22.256362422891616 1.6250879580877653 1 0 0
642 1 8.361622515216999 22.830559932497447 1.9348608865956884 0 0 0
2316 1 10.643870489021586 23.434647985156364 0.23301579100426795 0 0 0
2459 1 13.031765886476885 24.644563639435436 1.361053782976696 0 0 0
60 1 15.488568454888735 23.185419792472693 0.8823040392622967 0 0 0
3496 1 22.323042805725635 23.962783093432755 1.5694612388321683 0 0 1
101 1 24.478147069800997 22.539573595213877 0.7911217991934965 0 0 0
2538 1 27.19521170059779 22.475580087035382 1.2839868735696474 0 0 0
2839 1 12.381963887408023 24.44286092274832 4.186550421904185 0 0 0
682 1 18.39475452946819 -0.708227308032096 -0.44842104829850093 0 0 0
514 1 40.62558490170636 22.888242240716213 0.4913850274097218 0 0 0
3623 1 18.330471595829955 24.406501102840437 3.801018271754379 0 0 1
983 1 47.6611951427723 21.867732891304577 14.398109508940436 0 0 0
388 1 1.344997670028989 2.2903628025103266 4.707053919933289 1 0 0
92 1 49.97591253538455 2.479597688116753 3.514396459129011 -1 0 0
2047 1 3.28238392314172 1.5666245085653001 2.8853837066134362 0 0 1
558 1 7.975264116187086 1.635573440427307 5.36762874315278 0 0 0
2496 1 13.28858767956169 -0.3387569051105269 4.355975735935412 0 1 0
704 1 17.015925442560185 1.0837929859225421 3.2797477653163787 0 0 0
89 1 19.60527728862699 0.37996718414936637 4.292312380809556 0 0 0
335 1 7.729836345888977 24.793547116344374 3.711674416025531 0 0 0
2797 1 27.219186685355886 0.97485933707262 4.820718059272572 0 1 0
1748 1 31.46988158606222 0.2910516951661739 2.744797714185638 0 0 1
21 1 32.04839317502805 2.528679750232315 4.096912789622275 0 0 0
2398 1 38.39288779910035 0.4588772278741067 4.850799313321638 0 1 0
1465 1 38.74892963100949 2.686215045139176 3.4163490819935474 0 0 1
3527 1 36.182161474790746 24.933974054758057 0.9397888936004211 0 0 1
126 1 35.79202383673798 9.080677190506874 16.06789976541778 0 0 0
2586 1 46.068053640085395 2.518658766983352 4.2667338212863015 0 1 0
397 1 1.8889422269494562 4.760727831969604 5.394813521371109 0 0 0
196 1 5.626611765419715 2.711906888796125 4.54724316148826 0 0 0
400 1 10.217454497341501 2.717625765005902 3.8079186112369046 0 0 0
416 1 10.372754995801262 5.545637310120211 4.201338523350823 0 0 0
2631 1 12.369176421191002 2.3251242998450277 5.001766625710765 0 1 0
530 1 13.627286463573757 4.2286130503263495 3.1807777815019316 0 0 0
1819 1 16.38546515404942 3.6238952145738548 3.404782081470435 0 0 1
106 1 21.559869079491307 5.473404352547288 5.650588410810603 0 0 0
534 1 24.230624147340983 4.596292462148097 5.721201042047962 0 0 0
973 1 26.320118142804002 3.326156695232986 3.9443986336747106 0 0 0
493 1 28.143220968043686 5.437608395476238 4.094992343400807 0 0 0
202 1 30.88045192704503 5.0887873237358345 5.171764385883488 0 0 0
2518 1 34.086511964704286 3.604262757504336 2.704143420426277 0 1 0
147 1 36.75176456997956 4.435161227064041 3.32436998135885 0 0 0
425 1 36.79334687080289 5.294801075723192 6.203516746098348 0 0 0
462 1 40.880386113511136 3.728331300817784 5.553685108029874 0 0 0
2306 1 42.6133865904351 4.605904148509833 3.407933656309824 0 1 0
164 1 43.74854610997983 6.29164426308101 5.564072829104654 0 0 0
312 1 48.28124539590851 4.122265767304854 4.444911144666804 0 0 0
1543 1 2.9588824246483885 7.565861131551896 4.559266065791564 0 0 1
118 1 5.63092050503374 7.667535599931952 3.794516264542759 0 0 0
251 1 7.525614925715367 8.637336613125266 5.67304885220518 0 0 0
32 1 13.407229115706766 6.921021726315464 3.820923951808484 0 0 0
641 1 14.390735499430354 7.979808855865263 6.46328840319092 0 0 0
677 1 18.479808813033113 8.333050266051357 4.902380333079763 0 0 0
570 1 21.0314642694371 8.25789887438203 5.588866951258531 0 0 0
90 1 25.518005041181787 6.770352659859926 4.3490092459121446 0 0 0
620 1 32.56211176334752 7.022314599230521 4.008370436216224 0 0 0
435 1 34.61797429618758 6.917941944025334 5.8497914839000495 0 0 0
1674 1 39.41658299791639 7.904457085315766 2.966177389290313 0 0 1
436 1 39.65548827993793 8.450017858527787 5.627246689727968 0 0 0
43 1 45.63543599573592 7.544704446700491 4.207422284224195 0 0 0
154 1 47.711054269788264 6.373087940706158 2.7617916228574106 -1 0 0
332 1 50.18294729896358 7.646361005985545 3.2247808368869193 0 0 0
211 1 49.79728490726474 8.57077686375629 6.011488126520729 -1 0 0
782 1 1.947609619752495 10.009024406588852 3.956963422465095 0 0 0
289 1 3.9832930129039523 11.741259933636984 4.844317546590377 0 0 0
547 1 5.849194140846615 12.033863586659603 2.702750543227871 0 0 0
1221 1 9.501051355540085 10.041827672557314 4.8322922996891595 0 0 0
1783 1 15.326618867296016 11.72740949750588 4.518951756748921 0 0 1
532 1 17.99096243976424 10.926087843087448 4.950708173602374 0 0 0
201 1 23.146717561830584 10.125589273752777 4.613180037498333 0 0 0
576 1 25.557594082836957 9.187725468696593 5.768116044261311 0 0 0
646 1 27.540333077093923 10.689219798856563 4.583943199182199 0 0 0
696 1 31.268042364276734 9.549205113825575 4.548228090040713 0 0 0
1445 1 34.486413817119555 11.53648236821396 2.6455593255371794 0 0 1
225 1 33.39929433477823 11.11091340130305 5.53185876407486 0 0 0
294 1 43.840362192362505 10.85773691324141 5.982510096341387 0 0 0
451 1 44.708056628996374 10.183912977234932 3.338650424966179 0 0 0
344 1 1.6508137994891126 15.36862158876605 3.80226223054502 0 0 0
1159 1 50.600438804844416 15.157244002694775 5.058999754256806 -1 0 0
282 1 3.5942356721958983 14.561578295486477 5.436673581546091 0 0 0
607 1 7.92853173939773 13.987626902483813 6.062265849217814 0 0 0
127 1 8.430818689062175 12.293448499265944 4.0465200828549115 0 0 0
427 1 10.320404193379947 15.28751270023793 6.435919427973333 0 0 0
687 1 12.105513390310259 14.813826569163483 4.3474590883930055 0 0 0
439 1 14.84982353048151 14.407792680868768 4.078252967629662 0 0 0
656 1 19.318725827140526 14.807850852478346 2.687128544626253 0 0 0
2740 1 19.794900638917678 12.082156706893844 3.098254280672937 0 0 0
2059 1 23.259948867530078 14.56534252043758 2.9170672875205135 0 0 1
653 1 21.815640449396472 12.596586875220142 4.464633507274986 0 0 0
153 1 27.494553125571986 13.54680911746118 3.6129984213497313 0 0 0
192 1 31.535850780946614 15.079776084172096 2.81328508310463 0 0 0
296 1 31.330969201937645 15.29291918516574 5.532958663547139 0 0 0
255 1 37.1891323815064 11.915491903795749 3.060353327499207 0 0 0
654 1 38.07131718838889 12.58080232187606 5.657872372171552 0 0 0
1852 1 40.3164255883588 13.309139384039714 2.5271392812859976 0 0 1
1534 1 40.468646338020406 13.93183593944267 5.312417634570761 0 0 1
232 1 43.11956894049267 13.589113757856884 5.898940560887965 0 0 0
652 1 45.24725972999968 15.110431893828064 5.294703714779053 0 0 0
39 1 49.56184399535681 12.791114004585237 4.696136705847271 -1 0 0
2246 1 2.031875992016279 17.892399301971626 3.5093639749371537 1 0 0
1649 1 6.151618664999331 15.96596621833396 4.716669401951419 1 0 1
33 1 10.072059638549566 17.955851394755328 6.013436643733479 0 0 0
311 1 11.033536645546114 19.157710302647022 1.9656751053417851 0 0 0
2116 1 12.101276873935342 17.74448258810354 4.282181964279755 0 0 0
7 1 14.432772765516582 18.317474943984514 5.742564108531079 1 0 0
1118 1 19.38944861752029 16.166780301494637 5.260673444288583 0 0 0
238 1 23.37537089384602 16.91088473619885 4.572035068101222 0 0 0
1795 1 25.706596548374858 17.048152249991045 5.94498854047615 0 0 1
2714 1 34.91778490495392 17.2713000400883 5.663180356835648 0 0 0
574 1 38.73810561946894 17.012517228806306 3.113374076032138 0 0 0
1776 1 46.42453742835099 17.657725604233 5.551476790199317 0 0 1
429 1 49.01860276387805 17.07460483176725 4.215458728833784 -1 0 0
187 1 1.3250794152691885 19.540469414169316 5.730587747699617 1 0 0
244 1 7.485582667379642 20.58564004309308 5.21762622215529 1 0 0
590 1 9.841252116081623 21.178593700367 3.81395180143077 0 0 0
2403 1 15.045313623843795 21.141870017190723 4.9760489556874745 0 0 0
2585 1 18.50535762572875 18.669008793947484 4.711737642773701 0 0 0
270 1 20.590979681377714 20.53485954179843 4.7962902192358055 0 0 0
79 1 22.45043783668711 19.16706923736528 3.1367682990024104 0 0 0
119 1 24.805391849584257 20.675082279239376 2.9284533476569443 0 0 0
2208 1 26.90083226855998 19.14406315844638 4.311382370467349 0 0 0
555 1 28.990939650645423 20.29440928706821 5.581475934346782 0 0 0
152 1 31.20692660773229 19.66667955970827 4.258101516727937 0 0 0
2562 1 32.48109466750857 22.148079558276773 5.31647463524538 0 0 0
405 1 38.24243754612884 19.636795355820826 4.043756622737476 0 0 0
2171 1 40.630651930363 20.816087435444604 5.012276887582116 0 0 0
2801 1 44.70230412040249 19.51219427575517 4.6784043246141 0 0 0
1416 1 45.40502122323798 22.127917052876814 5.250880791038781 0 0 1
284 1 49.933751706615325 19.687189128606548 5.652608785021216 -1 0 0
3387 1 1.8036318056837275 22.410822465058352 5.642992923716978 0 0 0
3757 1 0.01831836223215877 23.759047352519858 4.0041095191679545 1 0 1
940 1 3.8597870152626816 23.05111408501629 4.067014608481947 0 0 0
592 1 17.176943779247004 -0.622102673330636 12.681728740993716 0 0 0
2498 1 12.270156668727154 21.90682396724205 5.25887628334901 0 0 0
175 1 50.31543835069591 22.46536237262292 15.135764967410474 0 0 0
2334 1 16.2947634784018 23.746690174059637 5.436952311873417 0 0 0
2000 1 20.17777238403725 22.571135368937714 2.8662308862661745 0 0 1
2275 1 23.229511758586302 24.905838638168103 12.81057183208127 0 0 0
49 1 25.245317358020714 22.95389198093687 4.644858834325104 0 0 0
2189 1 17.994885176489433 -0.08079081851121417 15.192924997897086 0 1 0
758 1 28.048604895335597 22.485515044523382 3.942575790437769 0 0 0
2383 1 31.288909352238175 24.491168226843538 6.007284450095223 0 0 0
645 1 32.91817989525798 22.662431861412163 2.4623339680429472 0 0 0
14 1 35.7193064720274 23.007077780618143 2.590042545996861 -1 0 0
503 1 36.880305258387054 23.718255456788288 5.201999097519393 0 0 0
2547 1 43.7970192652019 23.826951719744635 3.672946427573275 0 0 0
362 1 47.345221591056855 22.301633749611625 3.627198835903405 0 0 0
2605 1 49.464231251804634 22.428791022641 5.538564540354098 0 0 0
2129 1 0.22151400805999755 -0.019425742177512362 6.264565365962384 1 1 0
636 1 43.796814785239775 20.01542387629546 15.884641207536369 0 0 0
55 1 3.6622941787968104 1.8590144054568172 8.60675817342722 0 0 0
203 1 11.822715703040377 0.21211169437432253 8.767436438487543 0 0 0
2593 1 14.68385900879906 0.4942814071329744 8.958337017466889 0 1 0
195 1 20.47911398367915 1.509779008507571 6.501966862351719 0 0 0
569 1 23.473545297638466 1.8046809812309568 6.475296084364619 0 0 0
571 1 24.143595024476976 2.336843005288377 9.049092112503685 0 0 0
2807 1 28.234848964849714 1.254283051385663 7.112929549085195 0 1 0
290 1 43.87460112083512 0.17895261424822595 10.31269309536047 0 0 0
2454 1 30.918099831430972 0.27722876408826225 7.383433633416649 0 1 0
108 1 32.99863178662912 1.7718455841492649 6.606614451860978 0 0 0
2365 1 37.208185233922634 0.5777151404304912 7.565549365149929 0 1 0
372 1 42.43365331086798 2.3839313518992977 7.133711795896671 0 0 0
438 1 42.16355654900575 2.0740762898882124 9.76336086215022 0 0 0
551 1 39.25733525481449 21.090457930030126 13.731616176777598 0 0 0
2723 1 49.68574861632493 1.1067113677711893 7.964306168860798 -1 1 0
150 1 -0.031934485853370664 4.802180304614206 7.438634962180675 0 0 0
2447 1 1.6092114342434005 4.07017957053224 9.366708392882638 0 1 0
48 1 4.425087765771783 3.773585158130164 6.771982144888073 0 0 0
2463 1 8.095671816627725 2.3448404233252456 8.056911411883735 0 1 0
87 1 6.82020345788741 4.697352370045246 7.703168496108956 0 0 0
264 1 10.890996673689905 2.801321525227391 8.890465309464062 0 0 0
173 1 12.785516192401396 3.8066968968344117 7.342039146034455 0 0 0
497 1 15.12352044210683 3.1062033524623827 8.291708429195936 0 0 0
1607 1 16.943516652813287 4.038951741889176 6.047046669560141 0 0 1
540 1 19.520444473447967 4.003012312281444 6.850287752731916 0 0 0
424 1 19.91614899626892 4.64993132365866 9.542976340651608 0 0 0
573 1 25.31946284326377 4.686573186738577 8.208340544501446 0 0 0
3395 1 27.68101612942953 3.7343551778367337 8.407825693948064 0 1 0
67 1 28.208990309718008 6.0328034520241385 6.853813226083628 0 0 0
114 1 34.24567255474088 3.3994220529918167 8.559853360074307 0 0 0
2024 1 36.73025183490839 3.0996084093240817 8.070271254084279 0 0 1
2587 1 40.66187057181507 5.245741282934304 9.09555188336531 0 1 0
71 1 44.63743177637576 3.797108919640663 6.509055198632462 0 0 0
293 1 45.84874668769754 3.5776697717478543 9.020243554781977 0 0 0
200 1 48.92700013968158 3.602200484238108 7.047092129484574 0 0 0
256 1 47.90607069548281 5.147882473821688 9.65914584555333 0 0 0
3918 1 0.07065717588700526 7.591693938719258 7.895256271673661 0 1 1
437 1 2.847681314682986 7.875149395541557 7.2906542369639205 0 0 0
598 1 3.627730129509189 5.993719799140081 8.932070790416395 0 0 0
909 1 6.2343444803261026 6.026720482032545 9.875938472129851 0 0 0
219 1 8.738574965228578 6.477550283453206 6.532829269094172 0 0 0
97 1 10.59298401831911 7.682661979286371 8.281471545137542 0 0 0
2603 1 12.802766789180366 6.336113996375815 8.299338928557912 0 1 0
2730 1 16.816082055738338 7.0131563324631685 6.588943042175683 0 1 0
588 1 17.143203816451955 8.422777884856231 9.063710593324524 0 0 0
11 1 21.189216560000453 9.243127645943384 8.23910949652216 0 0 0
2360 1 27.662723498516176 9.211285623257012 10.010877814477018 0 1 0
410 1 29.522340624964805 7.96252091422466 8.36662305681291 0 0 0
143 1 32.82432216215065 5.500312805074612 7.381983548120317 0 0 0
141 1 39.33819869853836 6.002394182914248 6.678810110620162 0 0 0
364 1 43.786735518550586 6.835207483269589 8.740300358185955 0 0 0
393 1 42.37298966233905 8.532491011067812 6.536183308314781 0 0 0
37 1 46.47449143192161 7.411564567136256 9.011678090237584 0 0 0
1168 1 46.99007565898624 8.611530692215942 6.384112152735811 0 0 0
632 1 -0.19315378013319473 10.911216479734843 5.482947366411727 0 0 0
359 1 4.32392519402716 10.583731209933667 7.333800484683479 1 0 0
31 1 6.772214487311762 9.796061010901136 8.143286553652866 0 0 0
415 1 11.019044816873835 10.349129458297275 7.213389833162861 0 0 0
426 1 10.279227077825455 12.157641290667959 9.463618344397652 0 0 0
563 1 13.736154061225914 10.889009545373588 6.8011713203683914 0 0 0
355 1 14.511892696769355 11.976921182909068 9.16600814039321 0 0 0
115 1 18.304197570482277 12.572853176190755 7.356922457684542 0 0 0
82 1 20.77316965171421 11.886822377389826 8.332496641595826 0 0 0
1105 1 25.596310311203737 10.190068383823734 8.229448026422647 0 0 0
685 1 29.39730067147578 10.484600111418544 6.5932379964325705 0 0 0
489 1 29.95557694079215 12.373144337350439 8.648796973722211 0 0 0
29 1 35.248601461055486 9.636299996493479 6.749817601586778 0 0 0
121 1 34.191436586601725 9.857162461173559 9.347289575506453 0 0 0
303 1 32.74717639553633 12.434368754681833 9.331241561051112 0 0 0
1459 1 37.92896785767289 10.222835745028593 7.063630033638841 0 0 1
713 1 41.84410886801814 9.011518311619412 9.444025259566827 0 0 0
220 1 39.10326241692131 10.447984320698124 9.428027250088798 0 0 0
191 1 46.16363354638773 11.117227037951256 7.224440330535418 -1 0 0
458 1 0.49912089136092264 12.014284366751816 7.905182186129116 0 0 0
692 1 0.30740419700775656 14.70546046965758 7.430142563633819 0 0 0
501 1 7.65372161262626 12.362758741786962 8.433023743278985 0 0 0
2800 1 11.431603902381045 14.716604498497231 9.119794169206319 0 0 0
1187 1 14.185913791601882 14.75307141492843 9.077982558197656 0 0 0
689 1 15.529979766313836 15.58031196362284 6.53213960918406 0 0 0
298 1 18.08127551813877 15.345064847466936 7.335523580099679 0 0 0
350 1 22.51051830469945 13.492725668377602 7.04237720302383 0 0 0
69 1 25.304348054432104 12.993129281835353 8.286137105252791 0 0 0
86 1 26.692953448091288 14.405647577072392 6.330377417133825 0 0 0
347 1 29.190876653814602 14.761383556584978 7.397896058551817 0 0 0
674 1 33.195816014569544 13.616947807069634 6.684030048272932 0 0 0
559 1 35.752702464675835 14.520689974841375 6.348002327822225 0 0 0
488 1 37.15252260059816 15.096736121171126 8.64543187064061 0 0 0
2702 1 43.191562802196444 14.809456938030735 8.223400492903547 0 1 0
341 1 47.46119608322353 13.39535057156567 6.211816557220516 0 0 0
356 1 47.99617338880469 14.018504732039064 8.974030838730998 -1 0 0
628 1 -0.09774753305578554 18.19219199447715 9.714152659589862 0 0 0
657 1 2.7002051714633533 15.873332114938272 7.700215765965188 0 0 0
2491 1 2.244381645825943 18.498648905206796 7.978021366159725 1 0 0
1996 1 7.305268437566969 17.934979727794463 6.0908208995592155 0 0 1
44 1 6.7271546387964145 18.17268041723102 8.937009833674216 0 0 0
2559 1 13.398253708168205 17.597951677004716 8.254143920626523 0 0 0
253 1 18.317711186728353 16.535180678422734 9.983284163424885 0 0 0
2750 1 21.676790602283383 16.229237479193742 6.58659084233949 0 1 0
693 1 21.014115773281173 16.514316943345563 9.41265520768524 0 0 0
2670 1 22.629647818074062 18.713646350520946 8.40919865001896 0 0 0
3430 1 25.24666670773577 18.116459954247564 8.397711665963172 0 0 0
3729 1 32.354495397862635 17.74092546605475 6.192048076015481 0 0 1
174 1 40.20149475119602 16.78351052978163 5.589175786995091 0 0 0
643 1 38.91365134383048 16.90402911757081 8.072452793413955 0 0 0
480 1 46.80612532151177 18.46057915983543 8.039466008414397 0 0 0
579 1 45.657731490431345 15.602275299300288 8.432625637982609 0 0 0
401 1 50.68304517500226 15.497384589028254 9.826087272956443 0 0 0
3076 1 4.384521930315335 19.854678839386185 9.344484792138779 0 0 0
864 1 10.80039941361087 18.818658819806956 8.442933595113299 0 0 0
611 1 16.968347660938413 19.444078298156896 6.795776218273177 0 0 0
2817 1 17.83523056416033 21.607993126513502 10.826290240219011 0 0 0
697 1 17.095848173018346 19.095081536525345 9.441696521470488 0 0 0
3881 1 21.87468143264042 21.031347992857473 7.1366971829392325 0 0 1
887 1 25.749039816597826 20.70911283987473 8.726458055563203 0 0 0
3086 1 28.503271725309805 21.574852523869932 8.10072575560501 0 0 0
681 1 35.28553098218069 21.872713316870012 6.2393930614535 0 0 0
339 1 36.38766192048476 19.459256418981887 5.923200381724236 0 0 0
418 1 37.448291723212435 19.0631965196923 8.290166140608868 0 0 0
337 1 39.20036753483555 21.390584685619487 8.51354022142873 0 0 0
252 1 42.32525097006969 18.904570079152318 6.132863412002337 0 0 0
583 1 41.740125288583414 20.107773408740815 8.490384964157437 0 0 0
2862 1 46.22742712299079 21.277598823544643 7.973396092708974 0 0 0
287 1 49.42013580512251 19.095351299406165 8.085314493065324 0 0 0
4130 1 2.00377242671947 23.51397167318856 8.133638841999423 1 0 1
2107 1 4.502885421307698 22.577027145514297 9.155841817242724 0 0 0
829 1 6.469634000491637 22.43529881632745 7.233946462501322 0 0 0
647 1 7.8231241056942125 24.546698026858586 8.765382920675126 0 0 0
3574 1 9.741115408010014 22.740852045412513 10.02114239823745 0 0 1
3865 1 12.061445430317752 21.617296384140168 8.099257161190252 0 0 1
549 1 12.105547454197215 24.40987880831713 8.006596009473384 0 0 0
117 1 16.572814973149896 23.989934013371855 9.946623687225866 0 0 0
104 1 17.383514508836072 22.3496700292725 7.71743733245388 0 0 0
288 1 20.123135607720744 23.323258580005366 7.961330767223647 0 0 0
66 1 24.347339080057854 22.087501863249848 7.040934753990799 0 0 0
266 1 30.33705440255854 23.99448844119072 8.381859861330803 0 0 0
469 1 34.79882694000072 22.89800955337236 8.648819606322434 0 0 0
2408 1 39.47483137295296 23.288306496370772 6.372973992030466 0 0 0
222 1 43.38792407878722 24.48836603416012 9.003670362170874 0 0 0
30 1 43.87438358272321 21.721015082757635 9.228451808280917 0 0 0
2739 1 12.392320599739518 22.60160851202819 14.825947648726048 0 0 0
2291 1 48.19259913814881 23.243253859321115 7.763472700512375 0 0 0
1750 1 49.11376264263929 21.40073541260418 9.723603640276005 0 0 1
22 1 6.053817797246135 0.9598282668808458 9.526535335771767 0 0 0
578 1 5.975404726179591 1.8466853840312272 12.10999210910656 0 0 0
1091 1 46.39505751254849 24.297023264958636 14.24783541009368 0 0 0
3948 1 29.05565899082927 -0.5378116992774384 3.4807771971356845 0 1 1
180 1 18.768418769551946 0.9296871513380089 11.043067609644252 0 0 0
2281 1 21.303115075924268 1.1818389618579117 11.851669483348557 0 1 0
2272 1 43.83652095666528 23.86913814608108 13.252079804054032 0 0 0
2424 1 25.779682042278058 0.616900801977418 10.56049363402966 0 1 0
521 1 27.321112187981367 1.9909277207880778 12.448778047873397 0 0 0
807 1 42.59347711151301 22.549747181743133 15.453367396304316 0 0 0
34 1 31.32560713364248 1.8600228436377764 11.840270988164816 0 0 0
2350 1 34.00866991060627 2.726089899543539 11.328945265930313 0 1 0
156 1 35.79170088200026 0.15721084087649462 11.305352837540852 0 0 0
2814 1 38.405422495073395 -0.26830166176477377 10.402251981154762 0 1 0
800 1 40.01944239913361 1.9781597818573964 11.265564882905323 0 0 0
2339 1 30.237612039485366 24.118499649278178 15.580201125722507 0 0 0
2154 1 46.20056060170795 1.0308036484779046 9.60373728382114 0 1 0
707 1 47.99322517288074 0.27746129251022666 11.666569051994244 0 0 0
2792 1 50.51803104128717 0.7754313848393912 10.7037765984786 0 1 0