
# Create simulation box of size 50 x 50 x 50 Angstrom
#
lattice	            sc 1
Lattice spacing in x,y,z = 1.0000000 1.0000000 1.0000000
region 	            all block 0 50 0 50 0 50 units box
create_box          1 all
Created orthogonal box = (0.0000000 0.0000000 0.0000000) to (50.000000 50.000000 50.000000)
  1 by 2 by 3 MPI processor grid

# fill box with 4175 randomly distributed atoms
#
create_atoms        1 random 4175 63782 all
Created 4175 atoms
  create_atoms CPU = 0.001 seconds
mass                1 18.015

# Define potential
#
pair_style          sw
pair_coeff          * * ML_mW.sw mW
Reading sw potential file ML_mW.sw with DATE: 2019-02-27

# Run minimization
#
minimize            1.0e-8 1.0e-8 10000 1000
WARNING: Using 'neigh_modify every 1 delay 0 check yes' setting during minimization (../min.cpp:187)
Neighbor list info ...
  update every 1 steps, delay 0 steps, check yes
  max neighbors/atom: 2000, page size: 100000
  master list distance cutoff = 6.0032907
  ghost atom cutoff = 6.0032907
  binsize = 3.0016454, bins = 17 17 17
  1 neighbor lists, perpetual/occasional/extra = 1 0 0
  (1) pair sw, perpetual
      attributes: full, newton on
      pair build: full/bin/atomonly
      stencil: full/bin/3d
      bin: standard
Per MPI rank memory allocation (min/avg/max) = 4.255 | 4.258 | 4.261 Mbytes
Step Temp E_pair E_mol TotEng Press 
       0            0    7792709.3            0    7792709.3    5898794.3 
     630            0   -45180.336            0   -45180.336   -154.07449 
Loop time of 1.14288 on 6 procs for 630 steps with 4175 atoms

98.9% CPU use with 6 MPI tasks x no OpenMP threads

Minimization stats:
  Stopping criterion = max force evaluations
  Energy initial, next-to-last, final = 
      7792709.32924461  -45180.0188663597   -45180.336116598
  Force two-norm initial, final = 2.0191930e+08 4.9721331
  Force max component initial, final = 1.0948746e+08 0.73126211
  Final line search alpha, max atom move = 0.053306038 0.038980685
  Iterations, force evaluations = 630 1000

MPI task timing breakdown:
Section |  min time  |  avg time  |  max time  |%varavg| %total
---------------------------------------------------------------
Pair    | 0.87046    | 0.97677    | 1.0635     |   6.2 | 85.47
Neigh   | 0.023745   | 0.024387   | 0.024953   |   0.3 |  2.13
Comm    | 0.035058   | 0.12214    | 0.22951    |  17.6 | 10.69
Output  | 0          | 0          | 0          |   0.0 |  0.00
Modify  | 0          | 0          | 0          |   0.0 |  0.00
Other   |            | 0.01958    |            |       |  1.71

Nlocal:        695.833 ave         704 max         685 min
Histogram: 1 1 0 0 1 0 0 1 0 2
Nghost:        1494.17 ave        1515 max        1468 min
Histogram: 1 1 0 0 0 0 1 1 1 1
Neighs:        0.00000 ave           0 max           0 min
Histogram: 6 0 0 0 0 0 0 0 0 0
FullNghs:      19997.0 ave       20462 max       19320 min
Histogram: 1 1 0 0 0 0 0 2 0 2

Total # of neighbors = 119982
Ave neighs/atom = 28.738204
Neighbor list builds = 26
Dangerous builds = 0

# Add velocity/set timestep
#
velocity            all create ${TEMP} 120598 rot yes dist gaussian
velocity            all create 215 120598 rot yes dist gaussian
timestep            5.0

# Define output
#
compute	            1 all msd
thermo	            100
thermo_style        custom step temp press vol etotal ke pe c_1[4] density

# Neighbor lists
#
neigh_modify        delay 0 every 1 check yes

# Set fixes
#
fix                 1 all momentum 10 linear 1 1 1 rescale
fix                 2 all nve
fix                 3 all temp/csvr ${TEMP} ${TEMP} 500.0 928347
fix                 3 all temp/csvr 215 ${TEMP} 500.0 928347
fix                 3 all temp/csvr 215 215 500.0 928347
fix                 4 all press/berendsen iso ${PRES} ${PRES} 1000.0 modulus 20000
fix                 4 all press/berendsen iso 1 ${PRES} 1000.0 modulus 20000
fix                 4 all press/berendsen iso 1 1 1000.0 modulus 20000

# Run 0.5 ns equilibration
#
dump                1 all custom 1000 eq.${NAME}.dump id type x y z vx vy vz
dump                1 all custom 1000 eq.liquid_density_MLmW.dump id type x y z vx vy vz
run                 100000
Per MPI rank memory allocation (min/avg/max) = 3.506 | 3.508 | 3.511 Mbytes
Step Temp Press Volume TotEng KinEng PotEng c_1[4] Density 
     630          215    824.17143       125000   -42505.327    2675.0087   -45180.336 2.7295415e-33   0.99914793 
     700    137.22707   -22.447804    125469.46   -41683.926    1707.3656   -43391.292   0.25054761   0.99540952 
     800    168.92074   -131.66826    125541.58   -40939.913    2101.6952   -43041.608    0.5821686   0.99483762 
     900    187.49572    199.19641    125514.03   -40530.273    2332.8033   -42863.077   0.99295845   0.99505605 
    1000    197.87299    92.418655    125755.05   -40264.513    2461.9162    -42726.43    1.4111894   0.99314891 
    1100     207.1738    38.539747     125715.9   -40090.665    2577.6359   -42668.301     1.845981   0.99345816 
    1200    208.18937    234.27472    125805.72   -40127.562    2590.2716   -42717.834    2.2041084   0.99274892 
    1300    209.43371   -73.909232    125830.03   -40105.925    2605.7535   -42711.678    2.5905688   0.99255712 
    1400    205.81514    299.09942    126058.62   -40111.641    2560.7316   -42672.373    2.9372567   0.99075728 
    1500    208.56237   -57.612464    126060.58   -40057.887    2594.9124   -42652.799    3.2809851   0.99074182 
    1600     214.0989    56.135059    126052.15   -39984.585    2663.7973   -42648.382    3.6415729   0.99080808 
    1700    212.40495   -132.14404     125963.8   -40015.896    2642.7214   -42658.618    4.0845393   0.99150308 
    1800    213.00982   -41.340113    126030.41    -40092.38    2650.2472   -42742.627    4.3571135   0.99097902 
    1900    214.84985    -40.67846    126060.38   -40077.338    2673.1406   -42750.478    4.7813938   0.99074338 
    2000    217.34947   -16.398891    125922.06   -40052.089    2704.2406    -42756.33    5.0777549    0.9918317 
    2100    215.96764    214.78872    125866.81   -40012.226     2687.048   -42699.274    5.4799266   0.99226704 
    2200    215.53054    78.402917    126046.08   -40058.944    2681.6097   -42740.553    5.7841227   0.99085584 
    2300    221.43152    -102.3858    126246.75   -40048.024     2755.029   -42803.053    6.0907609   0.98928082 
    2400    217.10235    -27.00097    126263.33   -40074.805     2701.166   -42775.971    6.2513238   0.98915092 
    2500     219.7793    11.119987    126397.76   -40038.741    2734.4723   -42773.214    6.5213031   0.98809892 
    2600    220.40423   -53.603583       126474   -40004.814    2742.2476   -42747.062     6.747951   0.98750326 
    2700    220.23142    11.612139    126331.82   -40030.223    2740.0975   -42770.321     7.173276   0.98861465 
    2800    221.14718   -18.981482    126542.34   -40033.784    2751.4913   -42785.275    7.3333556   0.98696999 
    2900    213.66263   -119.46478    126696.03    -40123.47    2658.3694   -42781.839    7.6212758   0.98577272 
    3000    219.39647   -82.637092    126752.93   -40163.447    2729.7093   -42893.157    7.9119206   0.98533025 
    3100    214.96666   -80.615079    126848.19   -40151.181    2674.5939   -42825.775    8.1696169   0.98459021 
    3200    215.21866   -66.580307    126740.42   -40195.779    2677.7293   -42873.508    8.5913203   0.98542744 
    3300    216.04424   -40.840473     126832.3   -40191.154     2688.001   -42879.155    8.9003649   0.98471362 
    3400     216.9485    99.340862    126902.58   -40232.681    2699.2518   -42931.933    9.1397168   0.98416823 
    3500    217.60364    -183.2171    126782.61       -40275     2707.403   -42982.403    9.2914737   0.98509954 
    3600    212.60067    -54.27005    126803.39   -40317.609    2645.1565   -42962.766    9.5555741   0.98493809 
    3700    211.97027    7.7339499    126878.69   -40365.637    2637.3131    -43002.95    9.6418817   0.98435359 
    3800    214.56809     167.1033    126924.92   -40313.174     2669.635   -42982.809    9.7622315   0.98399503 
    3900    215.12065    177.96377    127102.32   -40356.697    2676.5098   -43033.207    10.055624   0.98262163 
    4000    213.28239   -42.498304    127159.86   -40359.314    2653.6385   -43012.953    10.249316   0.98217701 
    4100      211.619    173.83117    127256.46   -40359.129    2632.9427   -42992.072    10.439629   0.98143148 
    4200    216.35878   -102.58753    127307.63   -40387.993    2691.9146   -43079.907    10.713229   0.98103694 
    4300    214.38308    90.072294    127459.11   -40393.854    2667.3331   -43061.187    10.980115   0.97987102 
    4400    216.84862   -129.85093    127480.75    -40384.23    2698.0091   -43082.239    11.145966   0.97970473 
    4500    210.10371    47.640543     127723.7   -40388.202    2614.0896   -43002.291     11.36216   0.97784118 
    4600    216.98656    86.593936    127796.19   -40441.974    2699.7253     -43141.7    11.639746   0.97728653 
    4700    220.64796    9.9262578    127871.01   -40360.931    2745.2802   -43106.211    11.799253   0.97671464 
    4800    219.42691    118.74893    127714.84   -40437.616     2730.088   -43167.704    11.872186     0.977909 
    4900     218.3253    13.523012    127673.73   -40327.042    2716.3819   -43043.424    12.193264   0.97822385 
    5000    219.10394    241.44319    128004.41   -40299.056    2726.0696   -43025.126    12.405913   0.97569681 
    5100    220.36429    47.086045    128167.96   -40385.546    2741.7507   -43127.297    12.599676   0.97445172 
    5200    213.64634   -69.280539    128100.97   -40453.105    2658.1667   -43111.272    12.746647   0.97496134 
    5300    217.02039    9.9924463    128240.95   -40424.039    2700.1462   -43124.185    12.981024   0.97389712 
    5400    218.39364   -124.06146    128305.42   -40466.423    2717.2321   -43183.655    13.053525   0.97340774 
    5500    215.23239   -136.03315    127896.38   -40484.227    2677.9002   -43162.127    13.193272   0.97652091 
    5600    213.87549   -129.06033    127978.45   -40479.351    2661.0177   -43140.369    13.364902    0.9758947 
    5700    214.55993    50.443426    127840.49   -40483.944    2669.5334   -43153.478    13.532112   0.97694788 
    5800    211.04036   -91.822488    127859.98   -40509.713    2625.7432   -43135.457    13.749709   0.97679894 
    5900    212.17933    72.239239    127779.76   -40533.531    2639.9142   -43173.445     14.09506   0.97741215 
    6000    210.56022    15.315621    127858.94   -40527.658    2619.7695   -43147.428    14.306992   0.97680689 
    6100    213.93019     94.03669    127746.04   -40464.458    2661.6983   -43126.156    14.468342   0.97767015 
    6200    213.23553   -87.598822    127872.26     -40531.6    2653.0554   -43184.656    14.615126   0.97670516 
    6300    215.36958    113.01692    128092.87   -40498.062     2679.607   -43177.669    14.859664   0.97502298 
    6400    212.20523    26.889629    127898.35   -40473.483    2640.2364    -43113.72    15.006708   0.97650588 
    6500    215.25266    67.497698    127952.95   -40423.834    2678.1523   -43101.987    15.146415   0.97608922 
    6600    212.88238   -26.426117    128103.14   -40519.041    2648.6616   -43167.703    15.125642    0.9749448 
    6700    212.41364    -41.72147    128264.24   -40587.924    2642.8295   -43230.753    15.313504   0.97372024 
    6800    210.22136   -53.883269    128414.82   -40511.095    2615.5534   -43126.648    15.554337   0.97257847 
    6900    216.73112    31.078776    128434.76    -40454.95    2696.5471   -43151.497    15.682148   0.97242747 
    7000    214.80966   -100.26658    128451.94   -40449.145    2672.6406   -43121.785    15.900176   0.97229746 
    7100     216.7124    86.818813    128368.73   -40488.603    2696.3143   -43184.917    16.066255   0.97292768 
    7200     212.5564    44.586381    128603.93   -40537.556    2644.6057   -43182.162    16.183195   0.97114832 
    7300    212.98608   -56.271278    128562.62   -40598.327    2649.9518   -43248.279    16.322148   0.97146039 
    7400    210.77707   -63.919547    128178.49   -40627.726    2622.4675   -43250.193    16.471433    0.9743717 
    7500    209.64309   -3.0180047    128293.55   -40595.248    2608.3586   -43203.606     16.67334    0.9734978 
    7600    211.82681    111.61954    128361.54     -40673.7    2635.5282   -43309.228    16.849675   0.97298221 
    7700    215.78042    1.0061138    128446.73   -40568.354    2684.7187   -43253.073    17.101411   0.97233689 
    7800    217.91869    58.282583    128630.94   -40545.974    2711.3228   -43257.297    17.282234   0.97094442 
    7900    210.18577   -29.284133    128567.81   -40610.736    2615.1105   -43225.847    17.422164   0.97142113 
    8000    217.62261    207.99586    128776.53   -40585.449     2707.639   -43293.088    17.612893   0.96984668 
    8100    211.19204   -32.343377    128638.93   -40665.119    2627.6305   -43292.749    17.814511   0.97088411 
    8200    209.32079    64.006733    128465.79   -40667.543    2604.3486   -43271.891    17.885506   0.97219259 
    8300     212.1612    -186.9275    128591.56   -40669.377    2639.6887   -43309.066    18.031027   0.97124178 
    8400    214.07316    94.724551    128751.26   -40624.714    2663.4771   -43288.191    18.270405   0.97003706 
    8500    219.28237    15.202294    128864.61   -40566.817    2728.2895   -43295.106    18.394405   0.96918378 
    8600    219.11486    46.017438    128888.63   -40596.538    2726.2054   -43322.744     18.60904   0.96900317 
    8700     213.8706    86.147364    128946.34   -40576.297    2660.9568   -43237.254    18.579871    0.9685695 
    8800    216.57575    147.61327    128969.16   -40614.231    2694.6141   -43308.845    18.714889   0.96839813 
    8900    211.20797    3.7731096    128850.57   -40691.719    2627.8287   -43319.548    18.833968    0.9692894 
    9000    213.89079    154.21743    128976.93   -40638.064     2661.208   -43299.272    18.981121   0.96833975 
    9100    210.45213   -179.41096    128927.33   -40703.214    2618.4246   -43321.639    19.162945   0.96871231 
    9200    214.50772    24.843634    128780.52    -40602.04    2668.8839   -43270.923     19.41816   0.96981664 
    9300    212.62866   -105.13164    128755.73   -40654.565    2645.5048    -43300.07    19.627495   0.97000333 
    9400    211.12717   -1.0709475    128733.51   -40614.969    2626.8234   -43241.792    19.879071   0.97017083 
    9500    209.93149   -55.838609    128728.12   -40621.606    2611.9469   -43233.553    20.053605   0.97021138 
    9600     215.5007    134.49939    128658.35    -40596.46    2681.2384   -43277.698    20.186741   0.97073756 
    9700    219.22925   -2.8176385    128888.84   -40540.977    2727.6286   -43268.606     20.39973    0.9690016 
    9800    216.29021   -81.170512    128880.68   -40628.554    2691.0614   -43319.616    20.725271   0.96906295 
    9900    214.44483    41.203831    128905.15   -40712.473    2668.1013   -43380.574    20.875851   0.96887897 
   10000    211.86941    81.830995    128893.62   -40710.973    2636.0583   -43347.031     21.01806   0.96896566 
   10100    213.81699    194.56652    128957.92   -40687.278    2660.2899   -43347.568    21.324637   0.96848255 
   10200    210.31134    50.650603     128883.1   -40726.488     2616.673   -43343.161    21.555264   0.96904472 
   10300    214.83682   -28.779188     128684.4   -40721.187    2672.9785   -43394.165    21.645929   0.97054101 
   10400    215.89274   -17.303966    129010.82   -40671.099    2686.1161   -43357.215    21.771104   0.96808541 
   10500    214.40486   -99.961039    128996.29   -40652.412     2667.604   -43320.016    21.769756   0.96819443 
   10600    216.99558    147.32567    129130.73   -40605.096    2699.8376   -43304.933    22.063489   0.96718645 
   10700    217.15999    64.040096    128994.97   -40601.252    2701.8831   -43303.135    22.003555   0.96820438 
   10800    222.33009     53.20985    129067.49   -40605.422     2766.209   -43371.631    22.174157   0.96766033 
   10900    215.76488   -41.535363    128869.01   -40624.912    2684.5253   -43309.437    22.402935   0.96915073 
   11000    219.66884   -169.21022    128957.72   -40606.201    2733.0979   -43339.299    22.541325   0.96848404 
   11100    216.64539   -42.648886    128904.54   -40652.464    2695.4806   -43347.945    22.831799   0.96888354 
   11200    212.80214    73.517452       129159   -40666.304    2647.6632   -43313.967     22.95376   0.96697474 
   11300    213.11834    20.526302    129174.61   -40668.709    2651.5973   -43320.306    22.984825    0.9668579 
   11400    212.58387    4.6690165    129307.87    -40684.22    2644.9475   -43329.167    23.236705   0.96586147 
   11500     213.8963    78.246644     129468.6    -40715.72    2661.2767   -43376.996    23.657939   0.96466239 
   11600    213.60358   -108.12027    129717.86   -40731.802    2657.6346   -43389.437    23.761819   0.96280879 
   11700    215.40785      2.20713    129607.72   -40629.745    2680.0832   -43309.828    23.830983   0.96362694 
   11800    217.29644   -75.406673    129773.51   -40701.842    2703.5809   -43405.423    23.851788   0.96239587 
   11900    215.77604    -82.79331    129723.08   -40705.992    2684.6642   -43390.657    23.975967   0.96277005 
   12000    214.10912   -42.459352    129600.67   -40718.276    2663.9245   -43382.201     23.94016   0.96367939 
   12100    216.05969    -60.56008    129527.26   -40680.007    2688.1932   -43368.201    24.005078   0.96422552 
   12200    219.25894   -107.78734    129351.82   -40681.204    2727.9981   -43409.202    24.050659   0.96553332 
   12300    214.86872   -52.328206    129353.61   -40705.338    2673.3754   -43378.713    24.148849   0.96551993 
   12400    219.49766    58.097246    129573.73   -40702.137    2730.9681   -43433.105    24.200332   0.96387974 
   12500     208.9173   -47.411782    129670.46   -40791.515    2599.3284   -43390.844    24.378251   0.96316072 
   12600     214.0048    40.436242    129621.72   -40705.166    2662.6265   -43367.792    24.593115   0.96352286 
   12700    216.54493   -42.875906    129437.79    -40683.02    2694.2306    -43377.25    24.621773   0.96489203 
   12800    219.76758    33.226285    129548.67   -40652.511    2734.3265   -43386.838    24.683866    0.9640662 
   12900     217.2446   -14.985484    129432.21    -40721.01    2702.9359   -43423.946    24.954489    0.9649336 
   13000    216.85507    77.856594    129434.12   -40673.115    2698.0893   -43371.204    25.095769   0.96491939 
   13100    220.13256   -62.150263    129433.67   -40679.949    2738.8676   -43418.816    25.329587   0.96492273 
   13200    221.11875    28.407788    129580.19   -40627.099    2751.1376   -43378.237    25.433352   0.96383168 
   13300     214.2321    68.641876    129408.82   -40656.955    2665.4546    -43322.41    25.655283   0.96510803 
   13400     216.7553    125.77296     129544.8    -40740.05     2696.848   -43436.898    25.908633   0.96409498 
   13500    215.00308   -74.543322    129508.62   -40772.253    2675.0471     -43447.3    25.861475   0.96436433 
   13600    216.09924    161.65699    129448.93   -40794.455    2688.6853    -43483.14    25.957843   0.96480901 
   13700    216.91932    117.13204    129644.56   -40809.037    2698.8887   -43507.926    26.031927    0.9633531 
   13800    214.55168    108.06391    129766.81   -40729.549    2669.4308    -43398.98    26.043943   0.96244553 
   13900    220.04295   -101.79719    129802.78   -40808.889    2737.7526   -43546.641    26.238997   0.96217886 
   14000    218.02978   -46.495627    129573.72   -40792.616     2712.705   -43505.321    26.152626   0.96387982 
   14100    213.90068    13.338835    129556.49   -40802.553    2661.3311   -43463.885    26.363691   0.96400799 
   14200    217.18632   -21.287703    129454.93   -40841.266    2702.2107   -43543.477    26.631187    0.9647643 
   14300    212.20775     59.68077    129380.99   -40897.848    2640.2679   -43538.116    26.519475   0.96531562 
   14400    214.31867    -10.20971    129489.74   -40856.025    2666.5317   -43522.557    26.647622    0.9645049 
   14500    211.20329    50.988289    129512.95   -40786.472    2627.7704   -43414.242      26.7819   0.96433209 
   14600    213.64466    15.672132    129529.83   -40788.952    2658.1457   -43447.098    27.020576    0.9642064 
   14700    214.67351    150.17117    129710.33   -40847.416    2670.9466   -43518.363    27.228782   0.96286467 
   14800    211.33751    25.994935    129549.39   -40888.729    2629.4404   -43518.169      27.3513   0.96406086 
   14900    212.72573    12.937143     129593.2   -40958.642    2646.7125   -43605.355    27.395629   0.96373494 
   15000     208.0621   -80.684681     129453.3   -40952.565    2588.6881   -43541.253    27.525606   0.96477646 
   15100    209.45252   -105.45954    129532.61   -40965.689    2605.9876   -43571.677    27.525688   0.96418567 
   15200    210.48757   -121.66767    129513.73   -40886.504    2618.8656    -43505.37    27.556439   0.96432625 
   15300    210.86167    161.59079    129562.15   -40885.615      2623.52   -43509.135    27.424806    0.9639659 
   15400    213.30436    -9.910251    129641.23   -40873.779    2653.9118   -43527.691     27.72731   0.96337783 
   15500    210.88519    163.83583    129707.42   -40865.087    2623.8127     -43488.9    27.564697   0.96288626 
   15600    217.06999    124.27761    129719.45   -40805.147    2700.7633    -43505.91    27.745172   0.96279698 
   15700    212.29049     122.3334    129805.28   -40887.275    2641.2973   -43528.572    28.079541   0.96216034 
   15800    217.50345   -75.948665    129957.82   -40888.275    2706.1564   -43594.431    28.070573   0.96103101 
   15900    216.95636   -32.564788    129974.48   -40926.788    2699.3496   -43626.138    28.031159   0.96090781 
   16000    213.09647    124.73519    129942.81   -40872.456    2651.3252   -43523.781    28.021467     0.961142 
   16100    214.15936   -83.634063    129949.07    -40838.95    2664.5496     -43503.5    28.262726   0.96109569 
   16200    214.57154   -108.28592    130007.88   -40897.017    2669.6779   -43566.695    28.422729   0.96066095 
   16300     216.9549    125.27184    129763.61   -40915.059    2699.3314    -43614.39    28.420552   0.96246933 
   16400    214.72883    156.09426    129831.58   -40819.095    2671.6349   -43490.729    28.577257    0.9619654 
   16500     221.8035    79.571272     130159.6   -40806.303    2759.6572    -43565.96    28.605161   0.95954115 
   16600    220.01785   -148.54443    130200.78   -40786.605    2737.4403   -43524.045    28.961156   0.95923764 
   16700    216.81165   -175.49045    129967.83   -40819.596    2697.5492   -43517.145    28.920858   0.96095694 
   16800    216.52785    36.306821     129880.7   -40840.697    2694.0181   -43534.716    29.074942   0.96160163 
   16900    217.04835   -87.774132    129764.64   -40804.115    2700.4942   -43504.609     29.04087   0.96246164 
   17000    217.91927    93.154534    129781.75   -40826.668    2711.3301   -43537.999    29.433695   0.96233475 
   17100     216.6179    77.086647     130162.9   -40761.382    2695.1385   -43456.521    29.337984   0.95951682 
   17200    215.36076    92.702768    129988.39   -40770.439    2679.4973   -43449.936    29.432386   0.96080501 
   17300    215.43694   -7.9413656    130176.91   -40839.874    2680.4451   -43520.319    29.580007   0.95941355 
   17400    217.92655   -173.04773    130207.32   -40871.777    2711.4206   -43583.198    29.665473   0.95918947 
   17500    213.70808   -27.216619    130330.27   -40860.255    2658.9347    -43519.19     29.95038   0.95828458 
   17600    219.91223   -195.30032    130371.43   -40843.366    2736.1263   -43579.492     30.15773   0.95798207 
   17700    217.26116   -41.553893    130237.26   -40862.314    2703.1419   -43565.456    30.356315   0.95896899 
   17800    207.52767   -66.029505    130253.38   -40861.923    2582.0388   -43443.962    30.456485    0.9588503 
   17900    216.92559   -4.1347281    130216.59   -40816.672    2698.9668   -43515.638    30.292998   0.95912119 
   18000    218.43971   -11.315496    130193.06    -40762.66    2717.8052   -43480.465    30.343084   0.95929452 
   18100    217.25384   -86.637682    130415.26   -40870.291    2703.0508   -43573.342    30.494771   0.95766008 
   18200    216.27539     180.2879    130393.49   -40872.069     2690.877   -43562.946    30.765086   0.95781999 
   18300    223.06781    56.105866    130429.57   -40788.878    2775.3876   -43564.266     30.84071   0.95755504 
   18400    213.19621    -72.08664    130250.05   -40834.472    2652.5662   -43487.038     30.97002   0.95887481 
   18500    216.24631    55.828475    130349.03   -40788.911    2690.5152   -43479.427    31.040284    0.9581467 
   18600    215.28195    13.015903    130393.97   -40841.575    2678.5167   -43520.092    31.077868   0.95781643 
   18700    218.45394    47.812279     130474.5   -40809.926    2717.9824   -43527.908    31.072516    0.9572253 
   18800    219.80471   -110.87761    130227.78   -40790.161    2734.7885   -43524.949    31.156509   0.95903878 
   18900    216.14324   -242.07456    130274.94   -40833.866    2689.2328   -43523.099    31.320202   0.95869159 
   19000    216.40009    5.9585861    130145.38   -40817.662    2692.4286    -43510.09    31.386725   0.95964601 
   19100    213.27094    42.849811    130121.95   -40882.703     2653.496   -43536.199     31.32443   0.95981879 
   19200    214.10232   -103.32863    130103.92   -40850.445    2663.8399   -43514.285    31.411804   0.95995178 
   19300    218.21876    65.330709    130155.41   -40796.977    2715.0562   -43512.033    31.548154   0.95957205 
   19400    218.51178   -93.431246    130198.98   -40800.439     2718.702   -43519.141    31.728686   0.95925091 
   19500    214.30688     109.2268    130236.16   -40791.896    2666.3851   -43458.281    31.881467   0.95897707 
   19600    215.66196   0.17586172    130257.01     -40829.1    2683.2448   -43512.345    31.892488   0.95882354 
   19700    217.58261    -39.61618    130351.37   -40815.153    2707.1413   -43522.295    31.794519   0.95812946 
   19800    216.28484    10.107523    130446.49    -40871.74    2690.9945   -43562.734    31.890952    0.9574308 
   19900    215.86263   -26.134703    130501.32   -40896.954    2685.7415   -43582.696    31.830178   0.95702853 
   20000    214.11149    125.15952    130555.93   -40938.771     2663.954   -43602.725    32.218516   0.95662825 
   20100    213.93279   -23.441647     130704.3   -40890.505    2661.7307   -43552.236    32.509557   0.95554235 
   20200    217.69364   -94.187164    130600.78   -40938.075    2708.5228   -43646.597    32.694833   0.95629974 
   20300    216.05604    39.457036    130616.44   -40954.677    2688.1478   -43642.825    32.790595   0.95618511 
   20400    214.56211   -144.41318    130567.54   -40967.353    2669.5605   -43636.914    32.658125   0.95654316 
   20500    210.39306    11.101907    130624.73    -40914.12    2617.6896   -43531.809     32.89034   0.95612439 
   20600    212.55471     43.67216    130692.78   -40940.224    2644.5848   -43584.808    32.919291   0.95562655 
   20700    218.46104   -134.33734    130796.61   -40886.989    2718.0706    -43605.06    32.994443   0.95486797 
   20800    212.96995   -145.26405    130814.22   -40894.636    2649.7511   -43544.387    33.254444   0.95473944 
   20900    211.79935    89.335292    130679.46   -40922.007    2635.1866   -43557.194    33.201992   0.95572393 
   21000    208.07667    12.257592    130538.25   -41008.902    2588.8694   -43597.772    33.170179   0.95675782 
   21100    210.01495   -35.784623     130619.2   -41023.358    2612.9853   -43636.343    33.171433   0.95616485 
   21200    211.24241    96.551264    130566.71    -40996.08    2628.2572   -43624.337     33.21022   0.95654927 
   21300    215.58151    61.165352    130369.77   -41009.146    2682.2438    -43691.39    33.377921   0.95799428 
   21400    212.53456    19.381674    130566.42     -40983.2    2644.3339   -43627.534    33.463383   0.95655143 
   21500    214.82781   -77.619429    130484.94   -40982.019    2672.8664   -43654.885    33.380284   0.95714873 
   21600    215.43274    52.458696    130514.02    -40937.41    2680.3928   -43617.803    33.614968   0.95693542 
   21700    213.93081   -15.549455    130477.56   -40911.533     2661.706   -43573.239    33.931804   0.95720281 
   21800    215.27746    143.68735    130497.72   -40902.618    2678.4609   -43581.079    33.914152   0.95705497 
   21900    214.52713    43.530705    130659.26   -40918.047    2669.1254   -43587.172    34.065616   0.95587175 
   22000    216.03438   -66.277979    130595.68   -40931.655    2687.8783   -43619.533    34.177311   0.95633708 
   22100    214.93104   -83.782849    130365.87   -40882.213    2674.1508   -43556.363    34.288772   0.95802292 
   22200    217.77305    138.97728    130485.78   -40913.599    2709.5107    -43623.11    34.238332   0.95714252 
   22300    220.19919    2.8670383    130516.75   -40898.229    2739.6966   -43637.925    34.421869   0.95691541 
   22400    218.76629   -16.482431    130295.84   -40870.762    2721.8686   -43592.631    34.580909   0.95853785 
   22500      217.241   -34.386149    130486.16   -40888.619    2702.8911    -43591.51    34.633004   0.95713976 
   22600    216.71552    113.41374    130460.27   -40871.939    2696.3531   -43568.292    34.617215   0.95732969 
   22700    216.85653    43.383899    130698.94   -40888.312    2698.1075    -43586.42    34.928272    0.9555815 
   22800    221.75225   -47.043091     130759.8   -40865.907    2759.0195   -43624.927     34.80877   0.95513677 
   22900    218.39139   -170.60456    130933.34   -40918.032    2717.2041   -43635.236    34.812054    0.9538708 
   23000    214.18281   -97.516059    130690.85   -40908.512    2664.8414   -43573.354    34.858204   0.95564068 
   23100    215.84122    84.064251    130692.57   -41020.638    2685.4751   -43706.113    35.095448   0.95562806 
   23200    214.27106   -4.1529667    130610.76   -40977.881    2665.9393    -43643.82    35.161742   0.95622663 
   23300    215.59796     139.7452    130691.31   -41015.026    2682.4485   -43697.474    35.195937   0.95563728 
   23400    215.15615    102.70156    130625.91   -40944.389    2676.9515   -43621.341    35.257236   0.95611578 
   23500     212.4954   -232.63871    130696.89   -40980.651    2643.8468   -43624.497    35.373752   0.95559654 
   23600    216.19078    -44.44479    130577.59   -40963.325    2689.8243    -43653.15    35.384229   0.95646955 
   23700    213.38107   -70.418183    130605.26   -40996.677    2654.8661   -43651.543    35.311342    0.9562669 
   23800    210.07289   -158.60177    130604.41   -41055.843    2613.7061   -43669.549      35.5511   0.95627315 
   23900    217.15108    140.22967    130575.96   -41075.674    2701.7722   -43777.446    35.463284   0.95648148 
   24000    215.92587   -52.511077     130831.5   -41020.055    2686.5283   -43706.583    35.601577   0.95461332 
   24100      216.721    35.082154    130723.66   -41036.325    2696.4213   -43732.746    35.903657    0.9554008 
   24200    209.70471    51.354741    130732.72   -41101.963    2609.1252   -43711.088    36.051273   0.95533461 
   24300    216.61998    141.03359    130680.11   -41070.155    2695.1643   -43765.319    36.163868   0.95571917 
   24400    213.86055   -53.187367    130795.95   -41115.754    2660.8318   -43776.585    36.066949   0.95487277 
   24500    213.74219     21.44789    130784.08   -41062.091    2659.3592   -43721.451    36.084847   0.95495943 
   24600    217.57639   -1.0868257    130513.19   -41050.671    2707.0639   -43757.735    36.111993   0.95694149 
   24700    212.40295    124.68035    130341.06   -41060.718    2642.6965   -43703.414    36.235806    0.9582053 
   24800    214.15534   -65.409979    130427.74   -41051.364    2664.4995   -43715.863    36.328398   0.95756847 
   24900    218.22823    12.339513    130468.24   -40990.599    2715.1741   -43705.773    36.488463   0.95727122 
   25000    216.81009    117.90572    130448.74   -40974.565    2697.5297   -43672.095    36.193636   0.95741434 
   25100    214.01174    142.21548    130407.68   -40982.684    2662.7129   -43645.397    36.397248   0.95771573 
   25200    212.80937    65.200101    130472.33   -41020.153    2647.7531   -43667.906    36.709333   0.95724122 
   25300    215.57672    192.87588    130474.23   -41012.173    2682.1843   -43694.357    36.754415   0.95722725 
   25400    217.42824   -13.083732    130540.23   -40986.502    2705.2206   -43691.723    36.776554   0.95674333 
   25500    215.89394    49.306414    130445.24   -40950.861    2686.1311   -43636.992    37.104708   0.95743997 
   25600    215.26571    9.1976993    130306.16   -41027.662    2678.3147   -43705.977    37.091693   0.95846194 
   25700     213.3571    20.696485    130417.34    -41034.95     2654.568   -43689.518    36.969816   0.95764482 
   25800    214.37838    39.003703    130441.21   -41023.373    2667.2746   -43690.647    37.077187   0.95746957 
   25900    218.59957    -75.48187    130459.89    -40988.14    2719.7943   -43707.934    37.132509   0.95733246 
   26000    218.76956    139.50132       130442   -40923.749    2721.9093   -43645.659    37.105807   0.95746382 
   26100    213.82073    54.850929    130598.64   -41007.284    2660.3364    -43667.62     37.49595   0.95631542 
   26200    216.18424   -145.04547    130636.13   -40999.742     2689.743   -43689.485    37.586559   0.95604095 
   26300    214.25674    105.71185    130531.21   -40977.254    2665.7611   -43643.015    37.463309   0.95680938 
   26400    220.15977    51.721833    130613.88   -40971.999    2739.2061   -43711.205    37.630874   0.95620386 
   26500    214.35356     50.13709    130428.91   -41025.238    2666.9658   -43692.204    37.908861   0.95755987 
   26600    215.50482     73.25617    130434.62   -41080.906    2681.2897   -43762.196     38.08675   0.95751792 
   26700     214.5353   -53.971082    130608.22   -41118.516     2669.227   -43787.743    38.064158   0.95624527 
   26800    212.87615   -41.784004    130607.85   -41067.096     2648.584    -43715.68    38.085923   0.95624796 
   26900    216.58662    100.31281     130674.9   -41073.722    2694.7494   -43768.472    38.216139   0.95575728 
   27000    215.35604    30.734591    130752.94   -41105.156    2679.4386   -43784.594    38.278673   0.95518684 
   27100    214.26136    67.302917    130766.59   -41108.589    2665.8186   -43774.408      38.3591   0.95508719 
   27200     213.2446   -46.824053    130637.07   -41119.918    2653.1682   -43773.086    38.403996   0.95603409 
   27300     212.9949    145.88848     130783.7   -41132.203    2650.0615   -43782.265    38.511456   0.95496218 
   27400    213.38548     35.07707    130992.78   -41076.083    2654.9211   -43731.004    38.592192   0.95343799 
   27500    216.77022   -12.116807    131103.43   -41007.051    2697.0336   -43704.084    38.621637   0.95263327 
   27600    214.81881   -179.80354     130989.8   -41042.786    2672.7544    -43715.54    38.497731   0.95345964 
   27700    213.94233    -56.23007    131041.21   -41041.295    2661.8493   -43703.144    38.564094   0.95308557 
   27800    216.27191   -72.848833    130966.55   -40974.492    2690.8337   -43665.326    38.781172   0.95362896 
   27900    215.51468   -83.554618     130920.3   -41000.162    2681.4123   -43681.575    38.926717    0.9539658 
   28000    216.17346   -11.044967    130911.95   -41034.079    2689.6088   -43723.688    38.982736   0.95402666 
   28100    215.45217   -41.836023    131025.35   -41016.113    2680.6346   -43696.748    38.880734   0.95320095 
   28200    211.82095    42.414675    131041.72    -41064.23    2635.4553   -43699.686    38.722458   0.95308192 
   28300    209.48578   -47.729608    131131.48   -41041.379    2606.4013    -43647.78     39.00691   0.95242951 
   28400    213.28655    28.597881    131074.05   -41082.481    2653.6901   -43736.171    39.016262   0.95284683 
   28500    212.81916   -27.914674    131107.04   -41116.438     2647.875   -43764.313    39.217068   0.95260702 
   28600     214.0341      191.924    131275.25   -41069.225    2662.9912   -43732.216    39.299604   0.95138641 
   28700    209.87245    85.404966    131195.56   -41082.941    2611.2123   -43694.153    39.473898   0.95196433 
   28800    218.39247    66.791581    131046.46   -41046.662    2717.2175    -43763.88    39.217938   0.95304741 
   28900    217.64466    227.87616     130981.2   -41026.335    2707.9134   -43734.248    39.111019   0.95352224 
   29000    211.08626    110.43862    131148.01   -41091.815    2626.3144    -43718.13    39.208068   0.95230949 
   29100    217.15965    135.50546    131191.64   -41039.681    2701.8789    -43741.56    39.225262   0.95199273 
   29200    215.06205   -10.608538    131372.72    -41007.77    2675.7808   -43683.551    39.340737   0.95068054 
   29300    215.25692    20.666066    131243.36   -41081.782    2678.2054   -43759.987    39.470584    0.9516176 
   29400    211.87851    16.447063    131082.41   -41124.833    2636.1715   -43761.005    39.657264   0.95278605 
   29500    213.15508   -95.976191    131117.92   -41154.996    2652.0544    -43807.05    39.739744   0.95252803 
   29600    217.24044   -115.76615    131195.74   -41085.975     2702.884   -43788.859    39.912697   0.95196299 
   29700    213.46154    106.49943    131217.82   -41135.345    2655.8673   -43791.212    39.655806   0.95180281 
   29800    217.89513    116.09064    131379.19   -41128.951    2711.0297   -43839.981    39.772233   0.95063375 
   29900    212.66747   -97.843344    131269.73   -41161.294    2645.9876   -43807.281      39.9074   0.95142643 
   30000    215.20811   -18.864356    131385.48   -41147.295     2677.598   -43824.893    39.986547   0.95058822 
   30100     214.2883   0.96444902    131390.69   -41151.565    2666.1539   -43817.719    40.141723   0.95055056 
   30200    214.96226    129.57357    131385.06   -41165.582    2674.5392   -43840.121     40.01029   0.95059126 
   30300    217.43306   -64.121101    131312.77   -41142.318    2705.2806   -43847.599    39.966667   0.95111459 
   30400    215.77583   -29.349074    131356.28   -41130.461    2684.6616   -43815.122    40.216048   0.95079955 
   30500    213.09507    172.96892    131322.92    -41125.72    2651.3078   -43777.028    40.340362   0.95104108 
   30600    214.00073   -212.89067    131308.08   -41117.529    2662.5759   -43780.105    40.629198   0.95114856 
   30700    218.27263    81.869832    131367.18   -41128.886    2715.7265   -43844.612    40.812716   0.95072065 
   30800    218.31579    60.915016    131428.27   -41061.287    2716.2635   -43777.551    40.778038   0.95027872 
   30900    213.31197    4.0204656     131297.2   -41171.914    2654.0064    -43825.92    40.645372   0.95122738 
   31000    212.77652    74.345002    131372.23   -41190.362    2647.3444   -43837.706    40.729278   0.95068414 
   31100    208.50656    108.05097    131310.08   -41184.221     2594.218   -43778.439    40.743578   0.95113408 
   31200    212.53836    -140.0858    131372.61   -41203.472    2644.3813   -43847.853    40.819354   0.95068135 
   31300    211.75858   -98.659052    131165.93   -41157.363    2634.6794   -43792.043    40.883808   0.95217939 
   31400    212.46838    164.70052    131121.43   -41112.539    2643.5105   -43756.049    40.971529    0.9525025 
   31500    215.63154   -7.7719895     131473.3   -41156.293    2682.8663   -43839.159    41.132722    0.9499533 
   31600    216.36166   -21.837415    131428.02    -41099.94    2691.9504    -43791.89    41.060869   0.95028055 
   31700    216.73996   -4.8972905    131268.98   -41138.061    2696.6572   -43834.718    41.332412   0.95143188 
   31800    219.01894    -72.41132    131443.05   -41082.544    2725.0119   -43807.556    41.326308   0.95017191 
   31900    216.80741     33.31279    131447.52   -41082.483    2697.4964   -43779.979    41.179199   0.95013957 
   32000    214.79712    100.88054    131331.34   -41075.165    2672.4846   -43747.649    41.072447   0.95098011 
   32100      213.891    29.169324    131408.73   -41084.811    2661.2107   -43746.021    41.318909   0.95042007 
   32200    215.06805   0.89024027    131555.69   -41083.111    2675.8554   -43758.966    41.333959   0.94935835 
   32300    215.96461   -127.10015    131415.05   -41063.861    2687.0103   -43750.872     41.40868   0.95037436 
   32400    216.33421   -23.483393    131375.85   -41125.932    2691.6089   -43817.541    41.504715   0.95065794 
   32500    214.97342    40.870686    131350.94   -41131.015     2674.678   -43805.693    41.625415    0.9508382 
   32600    215.13268   -7.4735882    131513.85   -41068.337    2676.6596   -43744.997    41.666205   0.94966039 
   32700     215.3585    27.715564    131373.94   -41126.323    2679.4691   -43805.792    41.533458   0.95067172 
   32800     213.5225    28.165036    131568.17   -41166.786    2656.6258   -43823.412    41.585164   0.94926829 
   32900    214.40121    58.632169    131643.48   -41165.569    2667.5586   -43833.128    41.705253   0.94872525 
   33000    212.24612    107.51051    131548.84   -41213.868    2640.7453   -43854.613    41.766298    0.9494078 
   33100    212.28035     57.35473    131591.33   -41144.497    2641.1711   -43785.668    41.705536   0.94910119 
   33200    207.83545    56.252938    131685.56    -41169.25    2585.8681   -43755.118    41.741687   0.94842205 
   33300    219.04921   -24.274382    131699.42   -41114.381    2725.3886   -43839.769    41.659488   0.94832224 
   33400    212.95294    15.574642    131555.53   -41198.183    2649.5394   -43847.722    41.745011   0.94935952 
   33500    215.46355   -3.0225745    131703.05   -41150.065    2680.7761   -43830.841    42.065126   0.94829611 
   33600     214.6082    69.683594     131621.8   -41121.505     2670.134   -43791.639    42.010439   0.94888152 
   33700    216.65608   -76.729076    131726.66   -41129.526    2695.6135   -43825.139    42.016715   0.94812612 
   33800    214.80419     58.63365    131770.45   -41130.919    2672.5725   -43803.491    42.116788   0.94781111 
   33900    213.16016    -0.397687    131465.22   -41129.328    2652.1176   -43781.445    42.013601   0.95001164 
   34000     219.9029    208.21817    131643.86   -41080.188    2736.0102   -43816.198    42.301379   0.94872248 
   34100    215.32835    -116.1007    131518.05   -41109.863     2679.094   -43788.957    42.361029   0.94963002 
   34200    213.71145    172.25828    131734.76   -41105.335    2658.9767   -43764.312    42.326256   0.94806785 
   34300    214.53288   -45.290785    131622.52   -41160.157    2669.1969   -43829.354    42.305903    0.9488763 
   34400    216.45129   -71.577517    131675.82   -41087.942    2693.0655   -43781.007    42.389182   0.94849224 
   34500    213.78477    75.957875    131743.29   -41102.276     2659.889   -43762.164    42.482763   0.94800648 
   34600    217.53404    272.97206    131754.62   -41096.481    2706.5371   -43803.018    42.472657   0.94792493 
   34700    216.04439    52.884224    131895.85   -41172.202     2688.003   -43860.205     42.66067   0.94690992 
   34800    212.56426   -66.860723    131804.81    -41144.42    2644.7036   -43789.124    42.621176   0.94756401 
   34900    212.12269    -123.0487    131785.58   -41156.134    2639.2095   -43795.343    42.801075   0.94770225 
   35000    211.35551   -100.27699    131688.92   -41237.748    2629.6644   -43867.412    42.814478   0.94839787 
   35100    212.76383    -107.6855    131552.57   -41172.447    2647.1865   -43819.633    42.741972   0.94938084 
   35200    213.21986   -119.82994    131427.62   -41166.123    2652.8604   -43818.983    42.755528   0.95028347 
   35300    210.75909    34.858275    131551.27   -41141.583    2622.2437   -43763.827    42.925789   0.94939021 
   35400    208.47906    18.617497    131646.77   -41171.389    2593.8759   -43765.265     42.94641    0.9487015 
   35500    216.93382   -120.20383    131506.25   -41073.866    2699.0692   -43772.935    43.226543   0.94971528 
   35600    211.29945     83.34756    131477.23   -41122.778    2628.9669   -43751.745    43.168293   0.94992491 
   35700     217.7626    76.460154    131502.37   -41100.219    2709.3807     -43809.6    43.209226   0.94974328 
   35800    215.88948    100.99121    131464.38    -41135.28    2686.0756   -43821.356    43.496969   0.95001776 
   35900    215.88964    8.8002333    131306.75   -41077.222    2686.0775     -43763.3    43.498682   0.95115818 
   36000    217.42193    208.90719     131354.7   -41050.475    2705.1422   -43755.617    43.498464   0.95081101 
   36100    219.03415   -199.84298     131428.3    -41068.07    2725.2013   -43793.271    43.520472   0.95027854 
   36200    217.18202   -49.675334    131517.25   -41096.606    2702.1572   -43798.763    43.858983   0.94963581 
   36300    213.73995   -51.433224    131584.76   -41154.091    2659.3313   -43813.423    43.761479   0.94914858 
   36400    218.47683   -298.62808    131431.02   -41109.694    2718.2671   -43827.961     43.65899   0.95025882 
   36500    215.22749    67.010765    131456.78   -41106.846    2677.8391   -43784.685    43.792856   0.95007267 
   36600    216.06594   -126.14235    131457.23   -41243.194    2688.2711   -43931.465    43.651066   0.95006939 
   36700    210.13177   -76.846203    131512.43   -41185.509    2614.4388   -43799.948    43.674619   0.94967061 
   36800    216.81806    90.400825    131546.25   -41180.932    2697.6288    -43878.56    43.569943   0.94942644 
   36900    213.12901   -64.583528    131656.51   -41194.385    2651.7301   -43846.115    43.792778   0.94863136 
   37000    213.11557    69.325848    131555.54   -41125.187    2651.5629    -43776.75     43.79704   0.94935941 
   37100    216.86484    3.9242914     131642.6   -41102.575     2698.211   -43800.786    43.840084   0.94873156 
   37200    212.59417    160.35396     131549.7   -41160.735    2645.0756   -43805.811    43.948086   0.94940154 
   37300    214.70009   -153.73275    131597.61   -41173.962    2671.2773   -43845.239    44.027364   0.94905594 
   37400    212.01261    97.533871    131568.22   -41220.993    2637.8399   -43858.833     43.99686   0.94926796 
   37500    214.25068   -7.9033303    131702.16   -41224.304    2665.6857    -43889.99    44.316508   0.94830256 
   37600     212.8006    22.704689    131829.89   -41186.046    2647.6441    -43833.69    44.416637   0.94738371 
   37700    214.48374   -38.458111    131843.64    -41178.67    2668.5854   -43847.255    44.422627   0.94728489 
   37800    211.66269   -1.7214065    131772.19   -41268.582    2633.4863   -43902.069    44.295297   0.94779856 
   37900    210.43697    61.500612    131780.24   -41225.384     2618.236    -43843.62    44.568643   0.94774063 
   38000     215.8506   -79.524753    131549.75   -41206.903    2685.5918   -43892.495    44.266555    0.9494012 
   38100    213.23012    95.652616    131589.05   -41164.955    2652.9881   -43817.943    44.388748   0.94911765 
   38200     214.1298    160.11405    131610.51   -41177.278    2664.1818   -43841.459    44.583386   0.94896292 
   38300    212.82209   -234.58039    131489.28   -41119.255    2647.9114   -43767.166    44.560546   0.94983783 
   38400    214.35655    -119.9475     131509.8   -41172.591     2667.003   -43839.594    44.442091   0.94968958 
   38500    219.04948   -19.922236     131389.8   -41188.554     2725.392   -43913.946    44.458535   0.95055699 
   38600    214.88032   -45.932379    131405.14   -41146.421    2673.5197   -43819.941    44.792946   0.95044605 
   38700    214.54391   -11.027366    131413.52   -41153.161    2669.3342   -43822.496    44.983195   0.95038539 
   38800    214.97654    28.375536     131385.2   -41166.351    2674.7168   -43841.068    44.834212   0.95059027 
   38900    218.08363    23.190123    131432.12   -41119.083     2713.375   -43832.458    44.990312   0.95025093 
   39000    210.83157   -56.371666    131279.05   -41152.155    2623.1456   -43775.301    45.024531   0.95135888 
   39100    212.46474      22.8914    131425.32   -41112.257    2643.4652   -43755.723    45.021563    0.9503001 
   39200    213.32155   -80.591444    131469.86   -41140.401    2654.1256   -43794.527    45.278207   0.94997813 
   39300    212.90966    134.86444    131660.14   -41140.064     2649.001   -43789.065    45.298684   0.94860518 
   39400    215.65218    21.874799    131599.62   -41105.312    2683.1231   -43788.436     45.24438   0.94904139 
   39500    217.77054    160.15476    131575.43     -41088.7    2709.4795   -43798.179    45.562091    0.9492159 
   39600    216.65539   -21.909441    131592.27   -41130.076    2695.6049   -43825.681    45.718409   0.94909441 
   39700    216.28072   -105.58299    131623.56   -41081.192    2690.9433   -43772.136    45.834595   0.94886884 
   39800    214.90425   -170.91191    131645.43   -41153.062    2673.8174   -43826.879    45.793186    0.9487112 
   39900    213.82473    43.729544     131602.8   -41192.096    2660.3861   -43852.483    45.898086   0.94901847 
   40000    209.11975    22.525613     131433.3   -41219.745    2601.8472   -43821.592    46.137785    0.9502424 
   40100    216.33377   -144.49705    131622.12   -41132.027    2691.6034    -43823.63     46.13895   0.94887921 
   40200    214.20673   -92.934464    131439.73   -41158.462    2665.1389   -43823.601    46.130224   0.95019587 
   40300    215.65605    104.27473    131626.66   -41132.741    2683.1712   -43815.912    46.232215   0.94884643 
   40400    218.78609   -50.710692    131738.44   -41048.022    2722.1149   -43770.137    46.320968    0.9480414 
   40500    219.05758    210.75217    131732.96   -41054.152    2725.4928   -43779.645    46.257805   0.94808082 
   40600    216.89294    3.6459668    131742.88   -41107.101    2698.5606   -43805.661    46.643555   0.94800943 
   40700    211.98757    42.131085    131794.17   -41162.753    2637.5284   -43800.281    46.586268   0.94764048 
   40800    212.24662    33.897413    131775.29   -41204.601    2640.7515   -43845.352     46.70535   0.94777625 
   40900      212.034   -135.64949    131776.36    -41216.31    2638.1061   -43854.416    46.777158   0.94776857 
   41000    215.38389    -192.1745    131579.47   -41128.018    2679.7851   -43807.803    46.779726   0.94918676 
   41100    219.61772   -50.764811    131502.65   -41107.482    2732.4619   -43839.944    46.783241   0.94974122 
   41200     217.3467      192.497    131501.96   -41122.637    2704.2061   -43826.843    47.024248   0.94974625 
   41300     211.2989   -131.82221    131370.03   -41268.078      2628.96   -43897.038    46.982274   0.95070005 
   41400    213.81338   -109.95202       131254   -41214.679     2660.245   -43874.924    46.893493   0.95154047 
   41500    212.84447    102.63545    131168.07   -41220.964    2648.1898   -43869.154    46.949798    0.9521638 
   41600    212.61354   -124.16231    131293.82   -41187.736    2645.3167   -43833.052    46.860145   0.95125184 
   41700    217.44404   -104.46371    131251.64   -41169.007    2705.4172   -43874.424    47.014352    0.9515576 
   41800    217.58137   -97.687544    130991.52   -41179.345    2707.1259    -43886.47    46.957423   0.95344712 
   41900    217.41693    1.5213566    131252.78   -41161.073    2705.0799   -43866.152     46.91893   0.95154928 
   42000    216.09572    7.0318032    131315.55   -41167.397    2688.6416   -43856.038    47.099427   0.95109447 
   42100    213.68381    56.628613    131399.67   -41157.245    2658.6328   -43815.878    46.990889   0.95048555 
   42200    216.01036   -90.420947    131398.79   -41119.281    2687.5795    -43806.86    47.230457   0.95049191 
   42300    214.65175   -19.413222    131398.41   -41085.518    2670.6759   -43756.194     47.26816   0.95049471 
   42400    215.75013   -93.589605    131503.39   -41128.928    2684.3418   -43813.269    47.180087   0.94973592 
   42500     216.0395   -6.7048192    131570.96   -41129.344    2687.9422   -43817.286    47.268877   0.94924814 
   42600    213.57228   -161.56283    131482.12   -41137.178    2657.2452   -43794.423    47.327759   0.94988955 
   42700    212.40198   -118.39252    131456.14   -41133.155    2642.6844   -43775.839    47.412755   0.95007724 
   42800    216.02035   -70.598643    131467.01   -41077.252    2687.7038   -43764.956    47.382139   0.94999868 
   42900    212.77961    46.694304    131525.33   -41147.387    2647.3829    -43794.77    47.292648   0.94957747 
   43000    209.96575   -93.564738    131380.57   -41171.886    2612.3731   -43784.259    47.342771   0.95062377 
   43100    211.94265   -111.68738    131349.59   -41158.629    2636.9695   -43795.598    47.501925   0.95084799 
   43200    221.04663   -100.23734    131530.64   -41125.817    2750.2403   -43876.058    47.550783   0.94953916 
   43300    217.86248   -90.327016    131474.62    -41145.26    2710.6234   -43855.884    47.442785   0.94994373 
   43400     215.7629   -10.885861     131512.7    -41098.25    2684.5007    -43782.75    47.592665   0.94966871 
   43500    216.72298    39.431259    131665.11   -41104.518    2696.4459   -43800.964    47.628101   0.94856939 
   43600    221.77613   -8.7280333    131664.12   -41025.816    2759.3167   -43785.133    47.664881   0.94857654 
   43700    221.22314    8.5447877    131547.43   -41051.463    2752.4364     -43803.9    47.920945   0.94941796 
   43800    217.57279    102.42628    131272.33   -41058.075    2707.0191   -43765.094    47.844973   0.95140756 
   43900    216.20052    28.235068    131363.11   -41094.071    2689.9455   -43784.016    47.855394   0.95075014 
   44000    218.21022   -107.43559    131332.38   -41139.027    2714.9499   -43853.977    47.855096   0.95097255 
   44100    215.93285    98.148476    131399.38    -41159.49    2686.6151   -43846.106    47.989145   0.95048765 
   44200    212.22291    71.225036    131338.89   -41187.708    2640.4564   -43828.164    48.180728   0.95092545 
   44300    217.23651   -57.212902    131264.01    -41184.92    2702.8352   -43887.756    48.193466   0.95146792 
   44400    213.43543    120.79609    131267.84   -41145.074    2655.5426   -43800.617     48.03738   0.95144017 
   44500    213.92968   -68.783866    131333.91   -41176.394    2661.6919   -43838.086    48.119193   0.95096148 
   44600    211.11792   -57.824263    131301.59   -41240.574    2626.7084   -43867.282    48.320572    0.9511956 
   44700    214.68825    123.04244    131333.88   -41209.536      2671.13   -43880.666    48.335698   0.95096172 
   44800    212.72191   -70.268442    131435.23   -41171.089    2646.6649   -43817.754    48.585167    0.9502284 
   44900    213.76499   -151.25888    131323.06   -41126.436    2659.6429   -43786.079    48.460878   0.95104006 
   45000    218.14203    55.308186    131290.38   -41132.216    2714.1015   -43846.318    48.478145   0.95127682 
   45100    216.24858    117.09884    131497.46   -41078.119    2690.5435   -43768.663    48.609505   0.94977871 
   45200    217.93742    16.329283    131295.85   -41154.858    2711.5559   -43866.414    48.621179   0.95123715 
   45300    217.48958   -61.772379    131451.23   -41165.088    2705.9839   -43871.072    48.724446   0.95011273 
   45400    215.91238   -53.900742    131485.07   -41142.966    2686.3605   -43829.326    48.687543   0.94986821 
   45500    214.67893   -39.754808    131385.59   -41144.552    2671.0141   -43815.566    48.777297   0.95058746 
   45600    217.38195    192.34326    131362.52   -41142.129    2704.6448   -43846.773    48.990166   0.95075436 
   45700    219.13599    79.049341    131598.99   -41145.054    2726.4684   -43871.522    49.123065   0.94904595 
   45800      217.105    137.00593    131512.37   -41095.937     2701.199   -43797.136    49.248557   0.94967107 
   45900    219.17115    49.117603    131574.58   -41043.378    2726.9057   -43770.284    49.278913   0.94922207 
   46000    222.47666   -42.323162    131650.52   -41031.939    2768.0326   -43799.972    49.389133   0.94867451 
   46100    223.68305    -4.301439    131689.67   -40994.552    2783.0423   -43777.594    49.226591   0.94839248 
   46200    220.27005    152.32118    131831.89   -41002.181    2740.5782   -43742.759    49.366103   0.94736936 
   46300    218.97626   -203.66802    131933.71   -41020.911    2724.4809   -43745.392    49.270466   0.94663822 
   46400    221.62975    152.21601     131900.9   -41050.886    2757.4954   -43808.382    49.647336   0.94687365 
   46500    216.08853   -124.04698    131772.99   -41058.334    2688.5521   -43746.886    49.531128   0.94779282 
   46600    221.90703    101.83286    131595.72    -41050.03    2760.9454   -43810.975     49.45837   0.94906954 
   46700    217.15447    72.659067     131806.7   -41134.729    2701.8144   -43836.544    49.468864   0.94755038 
   46800    213.96158   -64.960635    131806.07   -41188.503    2662.0888   -43850.592    49.781047   0.94755495 
   46900    216.23308    120.06716    131783.06    -41119.84    2690.3505    -43810.19    49.771827   0.94772039 
   47000    221.26522    12.549504    131973.57   -41104.231      2752.96   -43857.191    49.982087   0.94635229 
   47100    216.40202    21.810942    131816.34   -41083.706    2692.4526   -43776.158    49.902206   0.94748107 
   47200    216.90098     59.36774    131766.21   -41128.584    2698.6606   -43827.245    49.916573   0.94784156 
   47300    216.58027   -22.072885    131731.95   -41146.544    2694.6704   -43841.214    49.894048    0.9480881 
   47400    217.16338    109.92116    131523.78   -41097.751    2701.9254   -43799.677    49.940562    0.9495887 
   47500    217.06366   -59.779503    131507.66   -41034.936    2700.6846   -43735.621    50.102216   0.94970506 
   47600    223.59064    4.2434251    131567.33   -40993.949    2781.8927   -43775.842     50.24931   0.94927438 
   47700    217.76966  -0.83767819    131536.91   -41046.845    2709.4686   -43756.314    50.347907   0.94949391 
   47800    217.68857   -34.956963    131630.12   -41056.085    2708.4596   -43764.545    50.397521   0.94882154 
   47900    214.15737    31.483334    131540.21   -41143.754    2664.5248   -43808.279    50.375326   0.94947009 
   48000    216.61441    -18.83831    131424.22   -41166.391    2695.0951   -43861.486    50.219709   0.95030805 
   48100    214.01492    57.659007    131635.45   -41136.695    2662.7524   -43799.448    50.467746   0.94878307 
   48200    213.59184   -206.93085    131611.91   -41187.832    2657.4885   -43845.321    50.626952   0.94895284 
   48300     213.0079   -15.105174    131456.17   -41160.974    2650.2232   -43811.197    50.499576   0.95007703 
   48400    216.68017    4.0753318    131420.37    -41087.15    2695.9133   -43783.063    50.463261   0.95033589 
   48500    216.07444    139.26418    131597.85   -41137.548    2688.3768   -43825.925    50.535583   0.94905419 
   48600    217.68575   -130.94095     131625.1   -41137.338    2708.4246   -43845.763     50.81852   0.94885772 
   48700    216.96352    96.403165    131627.67   -41102.187    2699.4387   -43801.626    50.713598   0.94883919 
   48800    217.65673   -26.252658    131513.04    -41136.43    2708.0636   -43844.494    50.559766   0.94966622 
   48900    214.55818    29.776359    131691.69   -41123.828    2669.5117   -43793.339    50.689288   0.94837794 
   49000    214.88773    65.818323    131652.38    -41163.18     2673.612   -43836.792    51.043458   0.94866112 
   49100    213.63761    49.222305    131725.13   -41166.632    2658.0581    -43824.69    51.409816   0.94813715 
   49200    212.97149   -61.075098    131765.54   -41183.094    2649.7702   -43832.864    51.336014   0.94784636 
   49300    213.20914    -76.33787    131682.12   -41134.749    2652.7271   -43787.476    51.318354   0.94844687 
   49400    212.65767    18.156628    131494.65   -41103.195    2645.8658   -43749.061    51.269746   0.94979907 
   49500    216.69959    148.68118    131232.82   -41109.641    2696.1549   -43805.796    51.298043   0.95169404 
   49600    213.59548   -101.07707    131134.93   -41103.758    2657.5338   -43761.292    51.484472   0.95240444 
   49700    212.73064   -187.39264    131131.82   -41103.531    2646.7736   -43750.304    51.510157   0.95242704 
   49800    209.70862    124.07942     131189.1   -41137.841    2609.1739   -43747.015    51.598186   0.95201119 
   49900     218.1112   -170.21849     131171.2   -41023.998     2713.718   -43737.716    51.629599    0.9521411 
   50000    215.70324    177.26503    131085.25   -41058.646    2683.7584   -43742.404    51.676268   0.95276538 
   50100    217.57365    163.76174    131178.28   -41078.787    2707.0298   -43785.817    51.900226   0.95208975 
   50200    214.16635   -70.336165    131300.24   -41130.754    2664.6365    -43795.39    51.927061   0.95120539 
   50300    217.48101   -99.888908    131165.08   -41109.972    2705.8772    -43815.85    51.961692   0.95218553 
   50400     214.7981   -124.25232    131016.76   -41143.484    2672.4967   -43815.981    51.969984   0.95326344 
   50500    212.43183    15.674391    131031.17   -41184.086    2643.0558   -43827.141     52.03142   0.95315867 
   50600    213.83663   -82.728978    130953.94   -41212.358    2660.5343   -43872.893    52.021376   0.95372073 
   50700    211.25044     29.58218    130933.34   -41221.235    2628.3571   -43849.592    51.855197   0.95387078 
   50800    213.76132   -40.212967    131056.53   -41221.205    2659.5972   -43880.802    51.991515   0.95297423 
   50900    216.14322    48.040573    131249.52   -41131.038    2689.2325    -43820.27    52.080206   0.95157292 
   51000    214.05814   -25.803344    131297.44   -41166.183    2663.2902   -43829.473     52.25061   0.95122567 
   51100    214.38521    43.702009    131381.48    -41188.33    2667.3596    -43855.69    52.334178   0.95061721 
   51200    212.17266   -186.38479    131276.73    -41162.22    2639.8313   -43802.051    52.284928   0.95137571 
   51300    209.70873   -67.572895    131112.83   -41211.863    2609.1752   -43821.039    52.309908   0.95256495 
   51400    213.12982   -155.96604    131045.61   -41202.898    2651.7401   -43854.638    52.224885   0.95305361 
   51500     215.0921    27.488112    131081.64   -41198.206    2676.1546   -43874.361    52.476526   0.95279164 
   51600    214.32706   -71.005436    131111.61   -41150.748    2666.6361   -43817.384    52.668484   0.95257387 
   51700    214.61931    194.90468    130976.13   -41129.722    2670.2723   -43799.994    52.444172   0.95355919 
   51800    212.94184    57.387594    131156.41   -41166.718    2649.4014    -43816.12     52.50845   0.95224847 
   51900    214.12368    38.513202    131180.02    -41206.74    2664.1057   -43870.846    52.603801   0.95207708 
   52000    210.33597    23.574089    131269.13   -41230.875    2616.9793   -43847.855    52.880987   0.95143079 
   52100    212.26971   -70.292757    131266.23   -41180.199    2641.0388   -43821.237    53.002228   0.95145183 
   52200    209.85449   -71.597203    131207.84   -41203.548    2610.9888   -43814.537    53.000409   0.95187524 
   52300    215.66937   -133.57472    131198.74   -41176.733    2683.3369    -43860.07    53.125446   0.95194123 
   52400     210.9943   -171.45044    131192.25   -41141.971    2625.1702   -43767.142    53.029446   0.95198831 
   52500    217.08182   -51.874328    131287.28   -41130.042    2700.9105   -43830.953    52.841467   0.95129927 
   52600    213.27593    34.706286    131326.17   -41148.471     2653.558   -43802.029    52.941758   0.95101753 
   52700    214.93558    93.669999    131348.05   -41171.615    2674.2072   -43845.822    53.037162   0.95085908 
   52800    214.30561   -104.59376    131413.43    -41146.07    2666.3692    -43812.44    53.098524   0.95038603 
   52900    213.51049   -68.675368    131450.95   -41145.363    2656.4764   -43801.839    52.924523   0.95011479 
   53000      214.199    11.345573    131527.74   -41124.407    2665.0428   -43789.449    53.031079   0.94956005 
   53100    215.92581   -259.17285    131318.85   -41175.778    2686.5276   -43862.306    52.992815   0.95107053 
   53200    214.38834   -48.339974    131365.56   -41169.173    2667.3985   -43836.572    53.258927   0.95073239 
   53300    213.08278   -20.594264    131368.33   -41182.444    2651.1549   -43833.599    53.281725   0.95071234 
   53400    215.34292    32.047458    131395.48   -41260.956    2679.2753   -43940.231    53.441224   0.95051586 
   53500     211.0172    129.40237    131491.75   -41264.862    2625.4551   -43890.318     53.35246   0.94982001 
   53600    212.80139    106.96586    131314.12   -41279.348    2647.6538   -43927.002    53.348615   0.95110483 
   53700    209.83489    45.226396    131477.73   -41297.768    2610.7449   -43908.513    53.376834   0.94992129 
   53800    212.24504   -44.234991    131472.46   -41186.076    2640.7318   -43826.808    53.571258   0.94995937 
   53900    212.79034    192.90974    131468.83   -41228.831    2647.5164   -43876.348    53.765201   0.94998556 
   54000    210.85974   -81.364079    131452.72   -41201.005     2623.496   -43824.501    53.814626   0.95010198 
   54100     213.5701    80.379629    131341.51    -41198.75     2657.218   -43855.968     53.62722   0.95090649 
   54200    215.16356    105.86138    131470.61   -41168.568    2677.0438   -43845.612    53.601293   0.94997272 
   54300      212.902   -119.68097    131332.92   -41139.032    2648.9057   -43787.938    53.691836   0.95096864 
   54400    212.48193    19.349013    131371.22   -41168.715    2643.6792   -43812.394    53.798323   0.95069144 
   54500    214.21951   -50.507298    131214.61   -41157.342    2665.2979    -43822.64    54.021054   0.95182611 
   54600    218.20162      5.41604    131274.08   -41062.244    2714.8429   -43777.087    54.149172   0.95139489 
   54700    216.67687    92.878948    131374.28   -41069.353    2695.8722   -43765.225    54.344015    0.9506693 
   54800    211.82906   -13.693529     131223.3   -41129.681    2635.5563   -43765.238    54.281974   0.95176308 
   54900    213.09484    67.518455    131211.81   -41159.934    2651.3049   -43811.239    54.362986   0.95184642 
   55000    211.37836    179.93898    131310.68   -41211.083    2629.9486   -43841.031    54.186473   0.95112972 
   55100    215.56425   -94.337812    131355.27   -41179.894     2682.029   -43861.923    54.218315   0.95080684 
   55200    212.62848    77.777918    131196.98   -41181.366    2645.5025   -43826.868    54.082024   0.95195404 
   55300    213.01878   -123.33884    131230.39   -41134.561    2650.3586    -43784.92    54.255033   0.95171166 
   55400    215.04729    23.749004    130964.29   -41107.064    2675.5971   -43782.661    54.082565   0.95364539 
   55500    214.28557    74.754137     131058.9   -41037.625    2666.1199   -43703.745    54.117788   0.95295696 
   55600    213.93886   -47.322966    131020.93   -41075.936    2661.8062   -43737.742    54.316229   0.95323312 
   55700     219.7438   -19.203307    130906.93   -41082.385    2734.0307   -43816.416    54.488958   0.95406324 
   55800    217.65772   -45.644671     130922.5   -41090.657    2708.0758   -43798.733     54.67021   0.95394979 
   55900    215.65073   -56.679023    131050.64       -41054     2683.105   -43737.105    54.767042   0.95301701 
   56000    216.73247    100.28895     131002.1   -41057.459    2696.5639   -43754.023    54.530456   0.95337017 
   56100    216.54311   -196.94257    130920.13    -41037.55     2694.208   -43731.758    54.628189   0.95396704 
   56200    216.67461    105.45856    130786.76   -41043.232    2695.8441   -43739.076    54.693899   0.95493988 
   56300    220.08189    14.481328     131031.4   -41078.019    2738.2371   -43816.256     55.07789   0.95315696 
   56400    216.87587     144.1374    131287.79   -41070.216    2698.3482   -43768.564    55.247537   0.95129556 
   56500    212.41294   -93.540998    131396.52   -41152.022    2642.8207   -43794.842    55.090827   0.95050836 
   56600    213.87429    18.971365    131353.01   -41178.735    2661.0028   -43839.738    55.288336   0.95082318 
   56700     213.2602    96.675572    131328.04   -41202.578    2653.3623    -43855.94    55.400129   0.95100399 
   56800     214.1034    34.700199    131363.25   -41135.599    2663.8534   -43799.453    55.377916   0.95074912 
   56900    214.42557   -53.852206    131506.34   -41135.599    2667.8617   -43803.461    55.639271   0.94971463 
   57000    214.81001   -67.858758    131522.93   -41095.863    2672.6449   -43768.508    55.331556   0.94959482 
   57100     218.5799   -41.012269    131355.55   -41153.713    2719.5495   -43873.263    55.597497   0.95080481 
   57200    212.69991    180.27117    131353.18   -41197.068    2646.3912    -43843.46    55.796927   0.95082195 
   57300    212.77598    3.5590585    131262.68   -41231.078    2647.3378   -43878.416    55.975429    0.9514775 
   57400    211.95217    101.77226    131448.62   -41234.919     2637.088   -43872.007    56.183678    0.9501316 
   57500    208.88316    137.88341    131514.82   -41280.831    2598.9036   -43879.735    56.221529   0.94965334 
   57600    210.59762  -0.15201447    131541.29     -41234.6    2620.2348   -43854.835    56.296801   0.94946225 
   57700    209.24085     62.94286    131525.88   -41272.008     2603.354   -43875.362    56.324804    0.9495735 
   57800     206.5271    19.856275    131579.32   -41293.408    2569.5897   -43862.998    56.531297   0.94918785 
   57900    209.94651   -38.795987    131666.53   -41247.649    2612.1337   -43859.782     56.78171   0.94855918 
   58000    209.31457    -88.49259    131642.67   -41237.836    2604.2711   -43842.107    56.884818   0.94873108 
   58100    213.55439     66.19089    131500.64   -41183.169    2657.0226   -43840.192    56.684712    0.9497558 
   58200     219.4279    97.118522    131546.79   -41142.595    2730.1003   -43872.695    56.792943   0.94942257 
   58300    219.17621    2.5992485    131566.48   -41082.413    2726.9687   -43809.382    56.577992   0.94928049 
   58400    214.77118    25.254993    131740.47   -41084.439    2672.1617   -43756.601    56.584109   0.94802675 
   58500    217.03226   -68.198913     131569.3   -41087.177    2700.2939   -43787.471    56.690816   0.94926011 
   58600    218.37505    1.4763046    131599.17   -41039.961    2717.0008   -43756.962    56.903966   0.94904466 
   58700    214.00111   -24.753164    131825.76    -41027.01    2662.5806   -43689.591    57.220167   0.94741338 
   58800    219.47114   -29.113477    131654.59    -41079.39    2730.6383   -43810.028    57.296691    0.9486452 
   58900    213.45673   -108.18403    131515.68   -41125.346    2655.8075   -43781.154    57.188906   0.94964714 
   59000    218.96578   -18.507502    131540.14   -41113.992    2724.3505   -43838.342    57.172414   0.94947058 
   59100    214.77754   -137.37365    131524.95    -41120.85     2672.241   -43793.091    57.109234    0.9495802 
   59200    217.13476   -116.44876    131444.06   -41140.988    2701.5692   -43842.557    57.090246   0.95016462 
   59300    214.98806   -18.967462    131552.14   -41130.876    2674.8602   -43805.736    57.305839   0.94938393 
   59400    208.91384  -0.68145396    131350.99   -41175.516    2599.2853   -43774.802    57.574014   0.95083785 
   59500     211.6787    -169.9218     131121.1   -41136.643    2633.6854   -43770.329     57.68248   0.95250491 
   59600    216.53133     101.9538    130944.71   -41119.571    2694.0614   -43813.632    57.707229   0.95378798 
   59700    213.89942   -46.962478    131191.99   -41151.477    2661.3155   -43812.792    57.882507    0.9519902 
   59800    213.02905    75.431673    131148.32   -41144.787    2650.4864   -43795.273    57.761089    0.9523072 
   59900    215.62649    158.58426    131134.47     -41120.3    2682.8034   -43803.103    57.662717   0.95240779 
   60000    213.16044   -25.080262    131205.24   -41153.092    2652.1211   -43805.214    57.620789   0.95189411 
   60100    211.81432    47.637406    131388.97   -41116.359    2635.3729   -43751.732    57.651253   0.95056299 
   60200    213.13565    145.11387    131496.54   -41093.329    2651.8127   -43745.142    58.004865   0.94978539 
   60300    219.02016    56.518523    131399.51   -41062.382    2725.0271    -43787.41    57.983875   0.95048672 
   60400    215.47612   -72.295633    131375.51   -41009.205    2680.9326   -43690.137    58.441506   0.95066035 
   60500    218.39894   -100.87093    131446.46   -41037.747     2717.298   -43755.045    58.432056   0.95014725 
   60600    216.25428    76.299547    131454.76   -41092.958    2690.6144   -43783.572    58.311846   0.95008725 
   60700    212.12707   -114.08012    131484.74   -41113.647     2639.264   -43752.911    58.412741   0.94987064 
   60800    213.48867    110.95707    131568.06   -41057.973     2656.205   -43714.178    58.351682   0.94926909 
   60900    216.37269   -184.36977     131600.2   -41048.289    2692.0876   -43740.376    58.577777   0.94903722 
   61000    214.33389    33.353172     131477.9   -41083.068    2666.7211   -43749.789    58.802209   0.94992005 
   61100    213.58393     -110.545    131568.07   -41120.411    2657.3902   -43777.801    58.929691   0.94926904 
   61200    214.99466    20.614998    131658.24   -41134.448    2674.9423   -43809.391      59.0051    0.9486189 
   61300    214.56749   -97.052947    131626.98   -41124.826    2669.6276   -43794.453    58.982537   0.94884418 
   61400    212.92475   -6.1239427    131745.07   -41161.959    2649.1888   -43811.148    58.895518   0.94799368 
   61500    212.55127    80.674476    131569.25   -41161.078    2644.5419    -43805.62    59.055088   0.94926049 
   61600    214.64629   -71.928589    131648.05     -41139.3    2670.6079   -43809.908    59.144352    0.9486923 
   61700    210.14596   -31.466545    131364.58   -41213.474    2614.6152   -43828.089    59.144596   0.95073946 
   61800    208.83025    47.854382    131341.31   -41271.816    2598.2453   -43870.061    59.087979   0.95090793 
   61900    208.60173    35.978482    131436.55   -41202.521     2595.402   -43797.923     59.20725   0.95021889 
   62000    214.79932    101.47692    131483.92   -41158.095    2672.5119   -43830.607    59.107563   0.94987651 
   62100    215.36385   -65.800387    131482.84   -41173.535    2679.5357   -43853.071    59.131533   0.94988433 
   62200    212.27926    129.19174    131442.62   -41123.749    2641.1575   -43764.907    59.408856   0.95017497 
   62300    210.53493    62.934468    131669.34   -41164.226    2619.4548   -43783.681    59.682564    0.9485389 
   62400    214.07562   -12.074588    131635.99   -41104.849    2663.5077   -43768.357    59.661283   0.94877922 
   62500     216.8565   -55.123515    131607.31   -41128.418    2698.1072   -43826.525    59.821512   0.94898598 
   62600    218.15056   -18.340872    131787.09   -41153.856    2714.2077   -43868.064    59.942098   0.94769138 
   62700    213.73283   -95.038801    131809.82   -41197.217    2659.2428    -43856.46    59.914497   0.94752794 
   62800    214.45035   -116.00622    131618.09   -41193.122      2668.17   -43861.292    59.957783   0.94890825 
   62900    216.19639    127.55716    131683.21    -41138.35    2689.8942   -43828.244    59.969355   0.94843901 
   63000    219.11051   -57.283878    131666.49   -41111.363    2726.1513   -43837.515    59.912052   0.94855942 
   63100     216.4222    -282.5272     131640.8   -41092.595    2692.7037   -43785.299    60.075812   0.94874454 
   63200    214.76717   -77.830464    131684.95   -41129.663    2672.1119   -43801.775     60.17578   0.94842649 
   63300    216.74333   -42.272722    131545.97     -41149.2    2696.6991     -43845.9    60.395288   0.94942845 
   63400    221.33584    22.236282    131676.15   -41077.745    2753.8386   -43831.583    60.187423   0.94848988 
   63500    213.80661   -8.9337277     131655.7   -41164.259    2660.1608    -43824.42    60.062632   0.94863715 
   63600    219.01123   -108.87148    131604.75   -41184.348    2724.9161   -43909.264     60.10889   0.94900447 
   63700    217.76115     54.27914    131507.89   -41194.511    2709.3627   -43903.874      60.3269   0.94970342 
   63800    212.21551    14.853168    131733.59   -41309.915    2640.3644   -43950.279    60.656137   0.94807627 
   63900    210.10842    220.55706    131786.16   -41312.735    2614.1482   -43926.884    60.603702   0.94769806 
   64000    209.11359   -23.456394    131735.78   -41304.906    2601.7707   -43906.676    60.704402   0.94806048 
   64100    210.60078   -233.47438    131810.83   -41223.575    2620.2741   -43843.849    60.667052    0.9475207 
   64200    213.77245    37.860573    131814.68   -41222.578    2659.7357   -43882.314    60.405855   0.94749302 
   64300    217.19531    150.14207     131761.6   -41127.555    2702.3226   -43829.878    60.669848   0.94787474 
   64400    217.56833   -93.638714       131810   -41163.489    2706.9637   -43870.453    60.770502   0.94752665 
   64500     218.5994    31.059375     131946.9    -41157.35    2719.7921   -43877.142    61.062473   0.94654358 
   64600    215.62186   -32.014705    131974.54   -41215.817    2682.7459   -43898.563    60.976169   0.94634534 
   64700    217.99825    -63.34116    132055.28   -41233.485    2712.3126   -43945.798    61.127324   0.94576672 
   64800    215.31088   -132.43463    132038.46   -41249.898    2678.8766   -43928.774    61.162799   0.94588724 
   64900    217.52969    6.7374595     132211.9   -41234.691    2706.4829   -43941.174    61.107626   0.94464637 
   65000    215.55823   -121.41587    132154.33    -41200.86    2681.9541   -43882.814     61.27766   0.94505787 
   65100    215.77793    44.391616    132086.44   -41224.435    2684.6876   -43909.123    60.956123   0.94554361 
   65200    213.57017   0.47751442    132128.76   -41209.686     2657.219   -43866.905    61.085981   0.94524076 
   65300    214.50834    28.005527    132178.01   -41213.533    2668.8916   -43882.425    61.359448   0.94488854 
   65400     215.7175   -18.598782    132016.87   -41161.525    2683.9358   -43845.461    61.457957   0.94604191 
   65500    210.52075   -17.649808    132088.59   -41223.801    2619.2783   -43843.079    61.470556   0.94552821 
   65600    214.10721   -107.17712    132016.01   -41264.854    2663.9007   -43928.755    61.518814   0.94604804 
   65700    215.09261   -44.387324    132000.12    -41318.88    2676.1609   -43995.041     61.62622   0.94616195 
   65800    210.27422   -19.741511    131930.35    -41327.28     2616.211   -43943.491    61.700661   0.94666229 
   65900    213.48516   -26.545108    131778.91   -41304.182    2656.1613   -43960.344    61.716001   0.94775023 
   66000    218.88939   -76.798107    131828.53    -41203.78    2723.4001    -43927.18    61.903019   0.94739349 
   66100    220.47591    225.31047    132030.77   -41166.357    2743.1394   -43909.497    61.866315   0.94594232 
   66200    220.73782    148.14992    132074.58   -41145.686    2746.3981   -43892.084    61.933081   0.94562851 
   66300    216.52245  -0.81322097    132248.94   -41186.881    2693.9509   -43880.832    61.925919    0.9443818 
   66400    216.08122   -16.906936    132139.79   -41227.003    2688.4611   -43915.464    61.868142   0.94516188 
   66500    218.14176    154.30083    132068.58   -41248.497    2714.0982   -43962.595    61.917076   0.94567147 
   66600    215.41557    -113.4177     131972.1   -41262.624    2680.1792   -43942.803    61.911542   0.94636282 
   66700    214.86203   -24.324602    131942.73   -41285.417    2673.2921   -43958.709    61.971311   0.94657351 
   66800    214.06826    85.827005    132061.27   -41210.367    2663.4161   -43873.783    62.001372   0.94572383 
[...]
   84600    210.16079   -72.568803    131814.64   -41438.251    2614.7998   -44053.051    70.397815    0.9474933 
   84700    212.40951   -59.013241     131901.4   -41448.392    2642.7782    -44091.17       70.215    0.9468701 
   84800      214.723   -42.337159    131984.23   -41430.676    2671.5623   -44102.238    70.313591   0.94627587 
   84900    210.64866    47.177991    131849.57   -41402.409    2620.8698   -44023.279    70.467494   0.94724228 
   85000     210.2747  -0.52921865    131877.34   -41355.261     2616.217   -43971.478    70.752498   0.94704281 
   85100    211.11019   -42.610202    131908.44   -41345.188    2626.6122     -43971.8    70.584994   0.94681953 
   85200    215.72933    7.2930389    131972.31   -41362.076     2684.083   -44046.159    70.468121   0.94636134 
   85300    211.51304    47.953681    132063.54   -41396.985    2631.6244   -44028.609    70.624349   0.94570756 
   85400    213.11794   -124.33277    131915.88   -41380.993    2651.5924   -44032.585    70.628231   0.94676614 
   85500    212.07589   -99.816588    131787.71   -41345.326    2638.6273   -43983.953    70.644123   0.94768695 
   85600    212.82675    114.78166    131882.28   -41321.304    2647.9694   -43969.273    70.801877   0.94700734 
   85700    211.35722    -113.7666     131925.6   -41354.975    2629.6857   -43984.661    70.853429   0.94669638 
   85800    214.29654    44.392737    132147.74   -41358.141    2666.2563   -44024.397     71.11363     0.945105 
   85900    218.63437    46.693786    132073.64    -41277.42    2720.2272   -43997.647    71.167836   0.94563526 
   86000    213.98336    78.393705    132263.02   -41325.085    2662.3598   -43987.445    71.057553   0.94428127 
   86100    213.32004    66.127614    132273.01   -41314.464    2654.1069   -43968.571    70.997833   0.94420997 
   86200    214.24309   -170.46116    132107.11   -41283.443    2665.5914   -43949.035    70.957934   0.94539565 
   86300    212.08732   -4.4388508    132176.34   -41307.658    2638.7695   -43946.428    70.899749   0.94490054 
   86400    215.49941    101.68046    132315.14   -41330.204    2681.2223   -44011.427    71.081427    0.9439093 
   86500    215.88888   -39.374739    132302.23   -41316.303    2686.0681   -44002.371    71.412857   0.94400141 
   86600    215.45951   -14.053383    132321.16   -41260.912    2680.7259   -43941.638    71.374933   0.94386639 
   86700    215.85842   -1.3360041    132270.26   -41249.733    2685.6891   -43935.423    71.548579   0.94422957 
   86800    213.53181    40.590243    132258.28   -41321.581    2656.7417   -43978.322    71.549702   0.94431507 
   86900    215.49531   -32.112486    132297.72   -41290.216    2681.1714   -43971.387    71.750593   0.94403356 
   87000    214.20234    -102.6906    132136.32   -41288.252    2665.0843   -43953.336      71.8774    0.9451867 
   87100    214.64481   -20.498692    132158.26   -41325.245    2670.5895   -43995.834    71.690339   0.94502974 
   87200    213.02723   -17.946938    132124.96   -41319.866    2650.4638   -43970.329    71.671961   0.94526798 
   87300    218.62045   -96.729163    132213.26   -41328.498    2720.0541   -44048.552    71.900926   0.94463667 
   87400    216.71028     182.6874    132276.88   -41347.065    2696.2879   -44043.353    71.986401   0.94418231 
   87500    211.67179    -118.5238    132493.09   -41357.468    2633.5995   -43991.068    71.933247   0.94264152 
   87600     209.3566   -187.99503    132452.62   -41362.002    2604.7941   -43966.796    72.011887   0.94292959 
   87700    213.96933    77.752662    132321.78   -41364.384    2662.1852   -44026.569      71.9964   0.94386194 
   87800     213.0522    -22.23065    132199.87    -41336.35    2650.7744   -43987.124    72.002523   0.94473235 
   87900    215.37111    56.785352     132226.1   -41337.901    2679.6261   -44017.527     72.15975    0.9445449 
   88000    214.20309   -37.708139    132281.05    -41365.82    2665.0937   -44030.914    72.110457   0.94415258 
   88100    219.26712    15.099245    132295.28   -41314.272    2728.0998   -44042.372    72.271846   0.94405097 
   88200    218.30954   -117.25742    132429.44   -41308.418    2716.1857   -44024.604    72.299962   0.94309458 
   88300    214.97608   -82.215458    132278.88   -41357.259    2674.7112    -44031.97    72.241198   0.94416805 
   88400    212.64611    39.796953    132335.28   -41460.518    2645.7219    -44106.24    72.108822   0.94376563 
   88500    215.73375   -8.1988886    132374.38   -41366.146     2684.138   -44050.284     72.47825    0.9434869 
   88600    214.77678   -116.16058    132525.19   -41322.985    2672.2314   -43995.216    72.614133   0.94241325 
   88700     217.9389    22.809133    132475.16   -41299.948    2711.5743   -44011.522    72.499711    0.9427691 
   88800    217.10871    -202.7417    132356.56   -41243.202    2701.2451   -43944.447    72.484764   0.94361388 
   88900    212.78893   -99.651226    132113.09   -41283.754    2647.4988   -43931.252    72.423647   0.94535288 
   89000    216.36824   -19.036313    132101.65   -41262.006    2692.0322   -43954.039    72.414271   0.94543478 
   89100    215.15356    98.484649    132046.07   -41355.589    2676.9194   -44032.509    72.469485   0.94583268 
   89200      215.124     126.9011    132330.39   -41376.202    2676.5515   -44052.754    72.721881   0.94380054 
   89300    214.87439   -127.40425    132341.56   -41396.369    2673.4459   -44069.815    72.801867   0.94372084 
   89400    212.82844   -34.148836    132298.43   -41411.949    2647.9904   -44059.939    72.766711   0.94402853 
   89500    210.31955     57.63296    132282.81   -41438.608    2616.7751   -44055.383     72.72814   0.94413996 
   89600    208.06531   -111.01825    132326.06   -41484.782     2588.728    -44073.51    72.800561   0.94383142 
   89700    210.01814    -70.52004    132198.08    -41452.59    2613.0249   -44065.615    72.667345   0.94474514 
   89800    212.57806   -2.2819853    132167.16   -41422.757    2644.8752   -44067.632    72.684887   0.94496615 
   89900    207.30307   -89.355252    132160.86   -41480.641    2579.2443   -44059.885    72.762414   0.94501115 
   90000    217.14815    18.163542    132142.29   -41392.511    2701.7358   -44094.247    72.861465   0.94514402 
   90100    212.78964   -53.125805     131959.2   -41392.416    2647.5077   -44039.924    72.892808   0.94645533 
   90200    213.18763    188.35253    131997.31   -41433.348    2652.4594   -44085.807    72.780024   0.94618208 
   90300    212.02723     23.85115    132016.92   -41434.584    2638.0219   -44072.606    73.054775   0.94604156 
   90400    210.84663     37.55269    132079.35   -41419.943     2623.333   -44043.276    73.085523   0.94559435 
   90500    215.46245    69.574675    132087.86   -41385.438    2680.7626   -44066.201    73.123874   0.94553348 
   90600    219.83636   -24.949358    131876.22   -41299.223    2735.1823   -44034.406    73.279165   0.94705089 
   90700    215.09693    -40.19366    131912.92   -41299.038    2676.2148   -43975.253    73.454539   0.94678741 
   90800    217.34826   -63.494442    132013.05   -41329.848    2704.2255   -44034.074    73.151633   0.94606925 
   90900    210.21079    41.906406    131892.99   -41425.736    2615.4219   -44041.158    73.217621   0.94693045 
   91000    211.07763   -41.463369    131712.38   -41443.258     2626.207   -44069.465    73.209878   0.94822892 
   91100    212.31343   -38.780304    131673.41   -41431.843    2641.5828   -44073.426    73.444298   0.94850958 
   91200    214.21638    29.207089    131750.08   -41392.171     2665.259    -44057.43    73.332182   0.94795763 
   91300     212.4705   -19.765697    131796.58   -41299.962     2643.537   -43943.499    73.438193   0.94762319 
   91400    216.73175    74.661299    131755.15   -41284.906     2696.555   -43981.461      73.5243   0.94792115 
   91500    216.45383   -189.64913     131947.8   -41296.382    2693.0971   -43989.479    73.373464   0.94653711 
   91600    213.21428   -86.983288    131826.32   -41329.393     2652.791   -43982.184    73.526082   0.94740935 
   91700    214.12637    209.86894    132018.76   -41394.727    2664.1392   -44058.866    73.619972   0.94602838 
   91800    217.39784    114.81843    132128.87   -41370.544    2704.8425   -44075.386    73.588059      0.94524 
   91900    215.70133     89.68193     132096.7   -41371.435    2683.7346    -44055.17    73.747303   0.94547017 
   92000    212.75926     78.47169    132063.75   -41382.251    2647.1297   -44029.381    73.870132   0.94570606 
   92100     210.9325    -15.66331    132054.87   -41422.991    2624.4014   -44047.393    73.878042   0.94576965 
   92200    216.79358   -49.055355    132200.66   -41358.296    2697.3243    -44055.62    73.907899   0.94472668 
   92300    216.78111    104.65149    132049.03   -41273.353    2697.1691   -43970.522    73.612932   0.94581149 
   92400    215.83897    42.067305    132128.99   -41275.001    2685.4472   -43960.448    73.699896   0.94523912 
   92500    209.02307     51.69567    132174.87   -41311.469    2600.6444   -43912.114    73.555034   0.94491105 
   92600    218.22735    47.389925    132202.73   -41289.809    2715.1631   -44004.973    73.842756    0.9447119 
   92700    216.30513    58.322978    132085.83   -41281.548     2691.247   -43972.795    74.000441     0.945548 
   92800    213.46271    66.178412    131997.11   -41323.055     2655.882   -43978.937    74.068333   0.94618355 
   92900    215.49583   -67.409614    132152.47    -41279.06    2681.1778   -43960.237    74.270862   0.94507117 
   93000    213.95326    298.93031    131991.69    -41285.64    2661.9854   -43947.625    74.182565   0.94622239 
   93100    213.68903   -82.130425    132144.54   -41214.777    2658.6978   -43873.474    74.329441   0.94512792 
   93200    216.35965   -21.046194    132001.83   -41225.516    2691.9254   -43917.442    74.349456   0.94614969 
   93300    216.19834    106.75533    131895.32   -41230.295    2689.9184   -43920.213    74.394025   0.94691377 
   93400    215.43532   -28.488809    131897.66   -41273.716     2680.425   -43954.141    74.463268   0.94689693 
   93500    209.89369    139.61359     132025.8   -41317.323    2611.4765     -43928.8     74.64791   0.94597792 
   93600    209.95999   -36.686493    131948.53   -41380.658    2612.3014   -43992.959     74.62275   0.94653188 
   93700    210.95301   -1.1247525    132071.89   -41345.446    2624.6565   -43970.102    74.529016    0.9456478 
   93800     212.5378    41.311161    132069.87   -41312.976    2644.3743   -43957.351    74.539526   0.94566222 
   93900    211.73206    -51.81546    132280.33   -41301.387    2634.3494   -43935.737    74.971321   0.94415768 
   94000    212.69886   -117.39864    132112.77   -41330.043    2646.3782   -43976.421     75.24317   0.94535515 
   94100    214.79776    58.213015    132137.54    -41338.45    2672.4925   -44010.943    75.345159   0.94517797 
   94200    213.48986   -36.713236    132083.59   -41335.875    2656.2197   -43992.095    75.210521   0.94556399 
   94300    215.54472   -15.125268     132070.6   -41290.261    2681.7861   -43972.047    75.194877   0.94565702 
   94400    214.51373   -53.433283    131932.14   -41285.523    2668.9587   -43954.482    74.957749   0.94664946 
   94500    214.52837    150.69568    131955.55    -41214.87    2669.1407   -43884.011    74.774812   0.94648151 
   94600    217.98329   -67.024345    131809.56   -41256.971    2712.1266   -43969.098     74.51496   0.94752984 
   94700    217.94359    58.028901    131800.99   -41300.747    2711.6326   -44012.379    74.984282   0.94759143 
   94800    210.46808    125.16248    131750.47   -41296.801     2618.623   -43915.424       75.286    0.9479548 
   94900    214.49877   -16.130653    131688.93     -41251.3    2668.7724   -43920.073    75.596519   0.94839778 
   95000    216.42726   -26.042849    131778.68    -41233.05    2692.7666   -43925.817    75.792533   0.94775189 
   95100    217.27885    40.466062    131762.48   -41225.892     2703.362   -43929.254    75.638108   0.94786841 
   95200    215.05126    2.9870009    131734.86   -41246.553    2675.6466     -43922.2    75.464017    0.9480671 
   95300    216.59169   -38.328108    131656.33    -41144.71    2694.8124   -43839.522    75.414258    0.9486326 
   95400    219.70727      118.549    131720.94   -41208.369    2733.5761   -43941.945    75.507968    0.9481673 
   95500    219.62746    68.138831    131896.39   -41219.425    2732.5832   -43952.008      75.8344   0.94690603 
   95600    216.88138   -13.241427    131842.26   -41214.962    2698.4166   -43913.379    75.915205   0.94729485 
   95700      216.965   -64.988073    131837.98   -41272.981    2699.4571   -43972.438     76.04325    0.9473256 
   95800    214.39077    112.61415     131807.6   -41325.119    2667.4288   -43992.548    76.066839   0.94754391 
   95900    214.95863    83.997452    131704.01   -41271.435    2674.4941   -43945.929    76.126249   0.94828924 
   96000    212.60644    68.332319    131751.76   -41336.456    2645.2283   -43981.684    76.078522   0.94794551 
   96100     212.2577   -9.5469765    131766.17   -41273.646    2640.8893   -43914.535    76.018842   0.94784188 
   96200    213.68353   -114.31428    131770.86   -41309.504    2658.6293   -43968.133    76.279866    0.9478081 
   96300    216.62255   -17.870484    131656.48   -41249.595    2695.1963   -43944.791    76.468543   0.94863153 
   96400    215.25042   -30.472558    131718.35   -41225.619    2678.1245   -43903.743    76.397382     0.948186 
   96500    214.18827   -1.9326537    131785.71   -41273.233    2664.9093   -43938.142    76.391602   0.94770134 
   96600    212.48382     56.58303    131581.18   -41265.475    2643.7027   -43909.177    76.488705    0.9491744 
   96700    208.73202   -85.563041    131530.07   -41339.183    2597.0232   -43936.206     76.62988   0.94954327 
   96800    209.11581   -184.68308    131485.18   -41393.777    2601.7983   -43995.575    76.481062   0.94986745 
   96900    207.58408    -110.3337    131455.37   -41324.546    2582.7407   -43907.287     76.50833   0.95008283 
   97000    212.28863    2.2693893    131551.47   -41315.201    2641.2742   -43956.475    76.464128   0.94938877 
   97100    213.77395     77.70597    131555.73   -41309.843    2659.7543   -43969.597    76.457967   0.94935807 
   97200    211.14922    83.707559     131467.5     -41315.8    2627.0978   -43942.898    76.575045   0.94999516 
   97300    213.89937    136.32974    131452.51   -41311.788    2661.3148   -43973.102     76.77098   0.95010349 
   97400    210.54117    32.834261    131519.62   -41306.631    2619.5325   -43926.163    76.973555   0.94961868 
   97500    213.84957   -64.332635    131465.38   -41216.611    2660.6953   -43877.306    76.884463   0.95001049 
   97600    216.31989    86.293124    131507.88   -41279.167    2691.4307   -43970.597    76.908687   0.94970351 
   97700    217.48817   -192.35705    131461.15   -41218.358    2705.9663   -43924.324     76.86849   0.95004106 
   97800    212.88137   -175.18961     131498.7   -41204.995     2648.649   -43853.644    77.093055   0.94976976 
   97900    218.02058    8.3182441    131468.44   -41166.872    2712.5905   -43879.462    77.220395   0.94998836 
   98000    218.18747    151.59513    131610.99   -41183.717    2714.6669   -43898.384    77.068458   0.94895944 
   98100    215.73474   -22.889054    131767.96   -41254.264    2684.1503   -43938.414    77.376998   0.94782899 
   98200     216.4259    16.866214    131709.72   -41241.377    2692.7497   -43934.127    77.415736   0.94824807 
   98300    213.22292   -95.013867    131450.77   -41264.073    2652.8985   -43916.972    77.215943   0.95011612 
   98400    213.77629    25.477153    131540.37   -41282.507    2659.7835   -43942.291    77.668484   0.94946889 
   98500    215.62013    35.868882    131542.66   -41290.993    2682.7244   -43973.717    77.786022   0.94945235 
   98600    215.20977   -110.37253    131586.86   -41328.476    2677.6187   -44006.094    77.890987   0.94913348 
   98700    209.42055    38.151178    131612.85   -41382.983    2605.5898   -43988.572    77.918416   0.94894605 
   98800    210.28458   -242.70213    131461.05   -41350.264      2616.34   -43966.604    77.741825   0.95004178 
   98900     212.8292    52.561003    131507.04   -41358.791    2647.9999   -44006.791    77.862447   0.94970951 
   99000    209.56548    46.463056       131402   -41391.146     2607.393   -43998.539      77.7093   0.95046873 
   99100    211.22924   -135.30954    131492.32     -41309.2    2628.0933   -43937.294     77.88004   0.94981589 
   99200    212.69342    -114.7535    131340.75   -41276.067    2646.3105   -43922.378    77.896435   0.95091199 
   99300     215.3267   -109.18198    131480.55   -41232.491    2679.0736   -43911.564    78.242434   0.94990086 
   99400    215.67847    131.57196    131616.54   -41194.351    2683.4503   -43877.801    78.357326   0.94891944 
   99500    222.90791    115.83551    131720.97   -41080.126    2773.3982   -43853.524    78.309088    0.9481671 
   99600    219.88213   -90.817488    131458.16   -41108.275    2735.7518   -43844.027    78.359305   0.95006269 
   99700    222.03648    14.800727     131578.8   -41121.794    2762.5559    -43884.35    78.486595   0.94919159 
   99800    218.73776   -34.096157    131519.72    -41133.94    2721.5135   -43855.454    78.560021   0.94961795 
   99900     212.7866    68.626088    131299.35   -41198.561    2647.4699   -43846.031    78.394296   0.95121183 
  100000    218.95822    179.01715    131498.85   -41200.359    2724.2565   -43924.615    78.598636   0.94976871 
  100100    216.85001    112.61837    131445.22    -41124.92    2698.0264   -43822.947    78.667137   0.95015619 
  100200    215.69327     44.87103    131567.93   -41126.682    2683.6343   -43810.317    79.126272   0.94927005 
  100300      219.822    20.329699    131464.46   -41113.585    2735.0035   -43848.589    79.090573   0.95001713 
  100400    216.83956   -43.295206    131372.88   -41160.971    2697.8964   -43858.867    79.092936    0.9506794 
  100500    220.72154   -21.703098    131564.64   -41087.706    2746.1955   -43833.901     79.02073   0.94929373 
  100600    215.09578   -5.5530107    131472.32   -41171.753    2676.2004   -43847.954    79.099391   0.94996035 
  100630    216.63375   -122.23706    131454.79   -41162.722    2695.3357   -43858.058    79.115791   0.95008703 
Loop time of 79.5841 on 6 procs for 100000 steps with 4175 atoms

Performance: 542.822 ns/day, 0.044 hours/ns, 1256.532 timesteps/s
98.4% CPU use with 6 MPI tasks x no OpenMP threads

MPI task timing breakdown:
Section |  min time  |  avg time  |  max time  |%varavg| %total
---------------------------------------------------------------
Pair    | 63.673     | 64.818     | 66.574     |  13.8 | 81.45
Neigh   | 4.9831     | 5.0065     | 5.0398     |   0.9 |  6.29
Comm    | 5.4606     | 7.2156     | 8.393      |  41.5 |  9.07
Output  | 0.16022    | 0.16097    | 0.1641     |   0.3 |  0.20
Modify  | 1.7327     | 1.7638     | 1.7996     |   1.7 |  2.22
Other   |            | 0.6191     |            |       |  0.78

Nlocal:        695.833 ave         700 max         691 min
Histogram: 1 0 1 1 0 0 0 1 1 1
Nghost:        1468.33 ave        1491 max        1452 min
Histogram: 1 1 1 0 1 0 1 0 0 1
Neighs:        0.00000 ave           0 max           0 min
Histogram: 6 0 0 0 0 0 0 0 0 0
FullNghs:      19291.3 ave       19501 max       19051 min
Histogram: 1 0 1 1 0 0 0 1 1 1

Total # of neighbors = 115748
Ave neighs/atom = 27.724072
Neighbor list builds = 5356
Dangerous builds = 0

undump              1
unfix               2
unfix               3
unfix               4


################################################
#######         Run Simulation         #########
################################################

reset_timestep      0
log                 log.run_${NAME}
log                 log.run_liquid_density_MLmW
