
# Create simulation box of size 50 x 50 x 50 Angstrom
#
lattice	            sc 1
Lattice spacing in x,y,z = 1.0000000 1.0000000 1.0000000
region 	            all block 0 50 0 50 0 50 units box
create_box          1 all
Created orthogonal box = (0.0000000 0.0000000 0.0000000) to (50.000000 50.000000 50.000000)
  1 by 2 by 3 MPI processor grid

# fill box with 4175 randomly distributed atoms
#
create_atoms        1 random 4175 63782 all
Created 4175 atoms
  create_atoms CPU = 0.001 seconds
mass                1 18.015

# Define potential
#
pair_style          sw
pair_coeff          * * ML_mW.sw mW
Reading sw potential file ML_mW.sw with DATE: 2019-02-27

# Run minimization
#
minimize            1.0e-8 1.0e-8 10000 1000
WARNING: Using 'neigh_modify every 1 delay 0 check yes' setting during minimization (../min.cpp:187)
Neighbor list info ...
  update every 1 steps, delay 0 steps, check yes
  max neighbors/atom: 2000, page size: 100000
  master list distance cutoff = 6.0032907
  ghost atom cutoff = 6.0032907
  binsize = 3.0016454, bins = 17 17 17
  1 neighbor lists, perpetual/occasional/extra = 1 0 0
  (1) pair sw, perpetual
      attributes: full, newton on
      pair build: full/bin/atomonly
      stencil: full/bin/3d
      bin: standard
Per MPI rank memory allocation (min/avg/max) = 4.255 | 4.258 | 4.261 Mbytes
Step Temp E_pair E_mol TotEng Press 
       0            0    7792709.3            0    7792709.3    5898794.3 
     630            0   -45180.336            0   -45180.336   -154.07449 
Loop time of 1.18747 on 6 procs for 630 steps with 4175 atoms

98.0% CPU use with 6 MPI tasks x no OpenMP threads

Minimization stats:
  Stopping criterion = max force evaluations
  Energy initial, next-to-last, final = 
      7792709.32924461  -45180.0188663597   -45180.336116598
  Force two-norm initial, final = 2.0191930e+08 4.9721331
  Force max component initial, final = 1.0948746e+08 0.73126211
  Final line search alpha, max atom move = 0.053306038 0.038980685
  Iterations, force evaluations = 630 1000

MPI task timing breakdown:
Section |  min time  |  avg time  |  max time  |%varavg| %total
---------------------------------------------------------------
Pair    | 0.86975    | 0.98887    | 1.0901     |   6.9 | 83.28
Neigh   | 0.023731   | 0.024612   | 0.025293   |   0.3 |  2.07
Comm    | 0.05266    | 0.15415    | 0.27461    |  17.5 | 12.98
Output  | 0          | 0          | 0          |   0.0 |  0.00
Modify  | 0          | 0          | 0          |   0.0 |  0.00
Other   |            | 0.01983    |            |       |  1.67

Nlocal:        695.833 ave         704 max         685 min
Histogram: 1 1 0 0 1 0 0 1 0 2
Nghost:        1494.17 ave        1515 max        1468 min
Histogram: 1 1 0 0 0 0 1 1 1 1
Neighs:        0.00000 ave           0 max           0 min
Histogram: 6 0 0 0 0 0 0 0 0 0
FullNghs:      19997.0 ave       20462 max       19320 min
Histogram: 1 1 0 0 0 0 0 2 0 2

Total # of neighbors = 119982
Ave neighs/atom = 28.738204
Neighbor list builds = 26
Dangerous builds = 0

# Add velocity/set timestep
#
velocity            all create ${TEMP} 120598 rot yes dist gaussian
velocity            all create 210 120598 rot yes dist gaussian
timestep            5.0

# Define output
#
compute	            1 all msd
thermo	            100
thermo_style        custom step temp press vol etotal ke pe c_1[4] density

# Neighbor lists
#
neigh_modify        delay 0 every 1 check yes

# Set fixes
#
fix                 1 all momentum 10 linear 1 1 1 rescale
fix                 2 all nve
fix                 3 all temp/csvr ${TEMP} ${TEMP} 500.0 928347
fix                 3 all temp/csvr 210 ${TEMP} 500.0 928347
fix                 3 all temp/csvr 210 210 500.0 928347
fix                 4 all press/berendsen iso ${PRES} ${PRES} 1000.0 modulus 20000
fix                 4 all press/berendsen iso 300 ${PRES} 1000.0 modulus 20000
fix                 4 all press/berendsen iso 300 300 1000.0 modulus 20000

# Run 0.5 ns equilibration
#
dump                1 all custom 1000 eq.${NAME}.dump id type x y z vx vy vz
dump                1 all custom 1000 eq.liquid_density_MLmW.dump id type x y z vx vy vz
run                 100000
Per MPI rank memory allocation (min/avg/max) = 3.506 | 3.508 | 3.511 Mbytes
Step Temp Press Volume TotEng KinEng PotEng c_1[4] Density 
     630          210    801.42152       125000   -42567.537    2612.7992   -45180.336 2.7295415e-33   0.99914793 
     700    134.25342    218.89308    125195.86   -41766.925    1670.3677   -43437.293   0.24278479   0.99758483 
     800    166.22927    107.51149    125127.14   -41045.376    2068.2081   -43113.584   0.57025395   0.99813271 
     900    181.99597    332.68958    124776.27   -40651.126    2264.3759   -42915.501    1.0139963    1.0009395 
    1000    195.04223    335.20001    124875.78   -40398.491    2426.6961   -42825.187    1.3568071    1.0001418 
    1100    202.81728    450.85516    124839.81   -40227.809    2523.4326   -42751.242    1.7751373      1.00043 
    1200     204.3198    248.21206    124719.59   -40267.158    2542.1267   -42809.285    2.1134235    1.0013943 
    1300    203.08808    194.76595    124819.92   -40264.165    2526.8018   -42790.967    2.4437425    1.0005894 
    1400    200.31469    221.05117    124744.09   -40293.835    2492.2956    -42786.13    2.7946989    1.0011976 
    1500    206.71702    306.83448     124991.3   -40249.186    2571.9527   -42821.138    2.9855553   0.99921744 
    1600     211.6336    258.51159    125056.34   -40160.171    2633.1244   -42793.295    3.3347791   0.99869781 
    1700    209.02216    137.79003    125211.22   -40193.305     2600.633   -42793.938      3.70063   0.99746246 
    1800    210.09041    376.23875    125309.44   -40280.527    2613.9242   -42894.452    4.0887216   0.99668061 
    1900     212.8654    153.78437    125487.91   -40283.666    2648.4503   -42932.116    4.3532483   0.99526316 
    2000    211.37603    345.03296    125437.49    -40265.37    2629.9197    -42895.29    4.5375757   0.99566322 
    2100    213.49236    227.20609    125462.92   -40235.779    2656.2508    -42892.03    4.7746428   0.99546139 
    2200     213.8168     291.6103     125358.8   -40282.614    2660.2875   -42942.902    5.1505709    0.9962882 
    2300    212.24916    183.58117    125148.38   -40269.732    2640.7831   -42910.515    5.3777741   0.99796333 
    2400    212.46166    341.60719    125246.19   -40304.314     2643.427   -42947.741    5.6887981   0.99718397 
    2500    212.40994    241.86598    125293.94   -40268.849    2642.7835   -42911.632    5.9203986   0.99680394 
    2600    216.34178    304.82716    125252.13   -40217.962     2691.703   -42909.665    6.2423969   0.99713669 
    2700    212.03446    256.04975    125142.11   -40243.207    2638.1119   -42881.319    6.5356748    0.9980133 
    2800    210.31671    251.77046    125277.51   -40224.385    2616.7397   -42841.125     6.832908   0.99693466 
    2900    210.01419    277.38104    125290.35   -40288.342    2612.9758   -42901.318    7.1075878   0.99683246 
    3000    212.99644    468.48261    125417.94   -40312.463    2650.0807   -42962.544    7.3951364   0.99581837 
    3100    213.90986    221.21965    125636.29   -40298.544    2661.4454   -42959.989    7.6543755    0.9940877 
    3200    209.05075    364.68587    125660.51   -40343.627    2600.9887   -42944.616     7.950972   0.99389609 
    3300    209.80125    575.20778    125810.53   -40335.683    2610.3264   -42946.009    8.1028072   0.99271097 
    3400     210.7843     251.5168    125771.59   -40382.269    2622.5574   -43004.826    8.4601056   0.99301834 
    3500    211.81478    452.06566    125846.18   -40413.724    2635.3786   -43049.102     8.700688   0.99242973 
    3600    211.26211    375.91199    125906.62   -40459.372    2628.5022   -43087.874    9.0306611   0.99195332 
    3700    211.22522    306.00075    125935.36   -40532.572    2628.0433   -43160.615    9.2864768   0.99172695 
    3800    211.33719    237.05601     126067.6   -40507.288    2629.4365   -43136.724    9.5229323   0.99068666 
    3900       207.47     338.3715    126007.81   -40551.604    2581.3212   -43132.925    9.7606925   0.99115677 
    4000    215.45526     464.8344    126173.71   -40555.996     2680.673   -43236.669    10.000771   0.98985355 
    4100    207.44392    116.45817    126146.17   -40548.541    2580.9967   -43129.538    10.189605    0.9900696 
    4200    212.83909    182.86092    126365.51   -40557.626    2648.1229   -43205.749    10.406815   0.98835109 
    4300    212.89999    280.49953     126444.7   -40561.607    2648.8807   -43210.487    10.502953   0.98773215 
    4400    210.55561    200.03042    126448.33   -40565.734     2619.712   -43185.446    10.641513   0.98770376 
    4500    208.89972    289.42716    126629.02   -40578.283    2599.1096   -43177.393    10.755264    0.9862944 
    4600    206.75149    274.63328    126389.77   -40626.906    2572.3816   -43199.288    10.869275    0.9881614 
    4700    212.45402    440.99395    126289.31   -40556.741    2643.3319   -43200.073    10.949914   0.98894748 
    4800    208.15762    166.24392    126544.32   -40630.596    2589.8766   -43220.473    11.145377   0.98695454 
    4900    213.36086    89.498627    126436.97   -40517.646    2654.6147    -43172.26    11.427825   0.98779253 
    5000    215.15028    296.45818    126520.71   -40475.509    2676.8786   -43152.388    11.580073    0.9871387 
    5100    213.86158    246.45818    126580.27   -40533.216    2660.8447   -43194.061    11.724566   0.98667424 
    5200     209.1755    403.98177    126755.48   -40587.328    2602.5409   -43189.869    11.920259   0.98531039 
    5300    209.19259    289.91549    126599.06     -40568.3    2602.7536   -43171.053    12.175033   0.98652782 
    5400    211.92312    384.07826    126726.02   -40594.476    2636.7265   -43231.203    12.310252   0.98553947 
    5500    210.42648    305.51577    126818.85   -40606.102    2618.1054   -43224.207    12.472164   0.98481804 
    5600    211.37429    423.97682    126469.52   -40614.377     2629.898   -43244.275    12.673746   0.98753824 
    5700    209.76526    356.95265    126514.65   -40620.251    2609.8786    -43230.13    12.813221   0.98718598 
    5800    208.09461    185.46621    126457.56   -40656.502    2589.0925   -43245.595    12.827295   0.98763169 
    5900    206.54971    351.76834    126516.43   -40680.826     2569.871   -43250.697    13.056505   0.98717211 
    6000     206.9114    409.11285    126412.91   -40667.123    2574.3711   -43241.495    13.124879   0.98798055 
    6100    209.86467    269.45481     126624.2   -40602.284    2611.1155     -43213.4    13.352003   0.98633191 
    6200    208.56785    211.94709    126630.02   -40666.799    2594.9805   -43261.779    13.665901    0.9862866 
    6300    212.64213    403.76573    126596.65   -40633.527    2645.6723   -43279.199    13.805935   0.98654657 
    6400    212.75771    306.86335    126770.58   -40615.894    2647.1104   -43263.004    14.076502   0.98519303 
    6500    214.03306    363.62494    126836.88    -40575.39    2662.9782   -43238.368    14.292981   0.98467808 
    6600    209.84188     403.6327    127064.74   -40658.034     2610.832   -43268.866     14.49344   0.98291227 
    6700    208.50168    283.80946    127094.41   -40734.432    2594.1573    -43328.59    14.621072   0.98268284 
    6800    206.41498    362.81149    127139.81   -40662.216    2568.1948   -43230.411    14.633667   0.98233193 
    6900    213.88388    257.25129    126982.71   -40598.872    2661.1221   -43259.994    14.836446    0.9835472 
    7000    211.77188    380.60774     126890.1   -40599.067    2634.8447   -43233.912    15.056935   0.98426502 
    7100    212.97381    369.03044    127044.45   -40638.877    2649.7991   -43288.676    15.353552   0.98306928 
    7200    211.21563    318.58678    127074.13   -40701.665    2627.9239   -43329.589    15.566808   0.98283961 
    7300    205.94402    434.24499    127371.35   -40763.798    2562.3351   -43326.133    15.601153   0.98054621 
    7400    208.10498    434.17369    127589.25   -40793.547    2589.2216   -43382.768    15.844813   0.97887155 
    7500    209.44383    242.86909    127666.53   -40768.547    2605.8794   -43374.427    15.971761   0.97827903 
    7600    205.22455    255.36386    127697.11   -40851.454    2553.3835   -43404.838    16.147451   0.97804474 
    7700    207.38596    327.70891    127718.11   -40755.398    2580.2756   -43335.673    16.194075     0.977884 
    7800    210.32184    447.51415    127739.55    -40742.89    2616.8035   -43359.693    16.297206   0.97771986 
    7900    216.44576    496.34349    127935.33   -40815.367    2692.9967   -43508.364    16.459195   0.97622361 
    8000    212.63304    308.83267    127936.58   -40804.657    2645.5592   -43450.216    16.666111   0.97621407 
    8100    210.29306    405.38826    128052.71   -40873.706    2616.4455   -43490.151    16.851808   0.97532873 
    8200    205.31797    102.68797    128056.18   -40903.771    2554.5459   -43458.317    17.074931    0.9753023 
    8300    210.46045    180.10843    128054.25    -40888.85    2618.5282   -43507.378    17.150408   0.97531705 
    8400    210.25471    152.16155    127939.89    -40843.38    2615.9683   -43459.348    17.095281   0.97618884 
    8500    215.11589     263.1557    127967.59   -40770.477    2676.4506   -43446.928    17.269239   0.97597755 
    8600    211.90564    242.74842    127717.03   -40790.817     2636.509   -43427.326    17.475273   0.97789219 
    8700    213.89759    384.86988    127579.17   -40762.392    2661.2927   -43423.684    17.555866   0.97894895 
    8800    205.23861    254.65285    127601.44   -40788.073    2553.5586   -43341.632     17.64968   0.97877806 
    8900    206.61037     349.0952    127779.04   -40854.772    2570.6257   -43425.398    17.868073   0.97741766 
    9000    208.04213     350.9489    127698.04   -40805.999    2588.4396   -43394.439     18.11137   0.97803765 
    9100    204.74255    452.55588    127706.08   -40852.654    2547.3865    -43400.04    18.305503   0.97797607 
    9200    209.91628    325.70404    127902.48   -40753.428    2611.7577   -43365.185    18.495669   0.97647437 
    9300    209.07396    337.46877    128108.08   -40796.249    2601.2776   -43397.526    18.481275   0.97490721 
    9400     209.5437    305.22139    128277.08   -40764.243     2607.122   -43371.364    18.715655   0.97362279 
    9500    208.79716    164.80642    128313.43   -40792.275    2597.8336   -43390.108    18.950177   0.97334697 
    9600    207.66033    408.64002    128304.54   -40770.725    2583.6894   -43354.414    19.164882   0.97341446 
    9700    212.19315    212.15403    128325.33   -40714.351    2640.0862   -43354.438    19.442651   0.97325676 
    9800    208.91463    342.69325    128320.48   -40786.192    2599.2951   -43385.487    19.696635   0.97329348 
    9900    207.53037     126.3723    128179.39   -40861.751    2582.0724   -43443.824    19.740533   0.97436487 
   10000    207.43087    212.56804     128065.6   -40861.932    2580.8343   -43442.767    19.766727   0.97523056 
   10100    211.82067    421.83872    128216.72   -40846.496    2635.4519   -43481.948      19.7774   0.97408118 
   10200    209.98521     398.3009    128408.53   -40922.065    2612.6152    -43534.68    19.961075   0.97262615 
   10300    208.26607    195.00422    128527.62    -40922.57    2591.2259   -43513.795    20.030156   0.97172495 
   10400     210.4825    310.83222    128485.16   -40872.649    2618.8025   -43491.452    20.174237   0.97204603 
   10500     210.7732     389.1888    128572.28   -40859.752    2622.4193   -43482.171    20.136155   0.97138737 
   10600    210.20935    385.81613    128383.01   -40797.602    2615.4039   -43413.006    20.329192   0.97281946 
   10700    211.43528    181.51408    128237.26   -40784.958    2630.6568   -43415.615    20.463296   0.97392513 
   10800    213.72873    318.03386    128134.96   -40772.532    2659.1917   -43431.724    20.773103   0.97470267 
   10900    210.95713     291.5334     128168.2   -40793.152    2624.7078    -43417.86    20.791965    0.9744499 
   11000    212.29345    519.27495    128057.46   -40778.036    2641.3341    -43419.37    20.819478   0.97529255 
   11100    210.08972     308.3497    128087.67   -40820.185    2613.9156   -43434.101    20.869632   0.97506257 
   11200    208.34494    270.65455    128113.55   -40803.535    2592.2071   -43395.742    21.095505   0.97486557 
   11300    211.88717    336.18523    128189.27   -40797.437    2636.2792   -43433.717    21.270958   0.97428974 
   11400     211.8297    279.85517    128193.51   -40805.965    2635.5642   -43441.529    21.465411   0.97425753 
   11500    207.18122    271.28128    128049.97   -40829.531    2577.7282   -43407.259    21.493206   0.97534964 
   11600    205.54805    91.169283    128058.81   -40833.544    2557.4085   -43390.952    21.576042   0.97528232 
   11700    212.15429    288.34834    128083.81   -40729.466    2639.6027   -43369.068    21.880404   0.97509193 
   11800    204.57243     280.8471     127992.6   -40795.307      2545.27   -43340.577    22.062314   0.97578683 
   11900    210.78809    299.77191    127947.96   -40787.733    2622.6046   -43410.338    22.012997   0.97612728 
   12000    210.97826    220.21696    127935.73   -40791.452    2624.9706   -43416.422    22.078322   0.97622054 
   12100    214.44323     434.1562    127893.41    -40746.96    2668.0814   -43415.041    22.179615   0.97654361 
   12200    210.97285    143.05488    128044.21    -40762.19    2624.9034   -43387.093    22.328859    0.9753935 
   12300    212.10447    190.28543    128065.17   -40774.993    2638.9828   -43413.976    22.645068    0.9752339 
   12400     212.2253    385.39819    128248.74   -40758.328    2640.4863   -43398.815    22.804695   0.97383794 
   12500    208.90379     389.8653    128245.04   -40849.168    2599.1603   -43448.328    22.843734   0.97386605 
   12600     208.0524    277.00547    128305.43   -40774.655    2588.5674   -43363.222    22.956896   0.97340768 
   12700    213.07072    344.31134     128452.3   -40742.487    2651.0049   -43393.492    22.947949   0.97229473 
   12800    210.23537    324.67492    128380.84   -40712.029    2615.7277   -43327.757    23.184708   0.97283591 
   12900     210.5588    305.91966    128393.07   -40764.931    2619.7518   -43384.683    23.465612   0.97274327 
   13000    216.09641    116.12461    128402.07   -40715.369    2688.6502   -43404.019    23.661654   0.97267503 
   13100    214.32387    385.86086    128461.41   -40738.011    2666.5964   -43404.607    23.768066   0.97222574 
   13200    212.02122    137.22348       128224   -40656.409    2637.9471   -43294.356    23.762633   0.97402583 
   13300    212.26516    215.66765    128139.41   -40683.258    2640.9821    -43324.24    23.784989   0.97466886 
   13400    211.34564    500.97661    128001.18   -40759.826    2629.5416   -43389.367    23.900394   0.97572143 
   13500    209.19759    287.82426    127952.77   -40790.084    2602.8157     -43392.9    24.111774   0.97609058 
   13600    208.73722    247.12435    127983.48    -40805.84    2597.0878   -43402.927    24.242338   0.97585631 
   13700    212.82057    403.38116    128088.19   -40807.974    2647.8925   -43455.866    24.451521   0.97505861 
   13800    209.25559    309.96398    128256.05   -40730.555    2603.5374   -43334.092    24.755215   0.97378244 
   13900     210.6703    424.36344       128394   -40767.331     2621.139    -43388.47    24.793501   0.97273618 
   14000    213.19386    297.30255    128232.93   -40765.405    2652.5369   -43417.942    24.980065   0.97395805 
   14100    214.02342    242.32452    128391.01   -40771.827    2662.8583   -43434.685     25.29136   0.97275886 
   14200     208.4223    228.26944    128183.99   -40816.432    2593.1697   -43409.602    25.369519   0.97432989 
   14300    206.58274    333.46079    128276.58   -40872.716    2570.2821   -43442.998    25.398338   0.97362663 
   14400    210.24085    349.49232    128304.02   -40835.697    2615.7958   -43451.493    25.555663    0.9734184 
   14500    211.90054    379.03424    128206.05    -40798.54    2636.4456   -43434.986     25.88919   0.97416223 
   14600    211.69774    327.09629    128326.01   -40815.255    2633.9224   -43449.178    26.073868    0.9732516 
   14700    207.22317    302.61706    128200.24    -40878.71    2578.2503   -43456.961    26.048172   0.97420637 
   14800    206.90615    295.00414    128091.28   -40903.968    2574.3058   -43478.274    26.107396   0.97503508 
   14900    201.40312    386.67205    128223.66   -40979.187    2505.8377   -43485.024    26.195674   0.97402847 
   15000    205.18733    326.39641    128237.84   -40973.421    2552.9205   -43526.341    26.344154   0.97392072 
   15100    206.55558    220.71923    128373.76   -40995.415    2569.9441   -43565.359    26.557254   0.97288956 
   15200     208.1937    410.17487    128556.05    -40935.41    2590.3254   -43525.735    26.747209   0.97151005 
   15300     207.7412    331.49643    128460.64   -40950.189    2584.6954   -43534.884    26.823353   0.97223157 
   15400    208.86893    313.35651    128659.77   -40948.499    2598.7266   -43547.226    26.902858   0.97072686 
   15500    211.20822    261.79996    128731.83   -40938.451    2627.8318   -43566.283     27.08448   0.97018346 
   15600    212.12209    429.51602    128834.75   -40876.389    2639.2021   -43515.591    27.223876    0.9694084 
   15700    209.40707     159.3395    128968.02   -40968.714    2605.4221   -43574.136     27.49829   0.96840668 
   15800    208.63831    345.26161    128868.66   -40963.702    2595.8572   -43559.559    27.513526   0.96915336 
   15900    207.39245    268.44831    128731.92   -41008.831    2580.3563   -43589.187     27.51052   0.97018279 
   16000    211.12775    239.52759    128851.78   -40943.532    2626.8306   -43570.363    27.709987   0.96928028 
   16100    208.39042    203.02758    128771.23   -40902.505     2592.773   -43495.278    27.788543   0.96988659 
   16200    212.06797    203.80131    128813.13   -40948.818    2638.5287   -43587.347     27.78219   0.96957113 
   16300    209.25927    373.65018    128917.71   -40976.879    2603.5832   -43580.463    27.842822   0.96878462 
   16400    215.52977    228.93659    129115.03   -40898.446       2681.6   -43580.046    28.100858   0.96730405 
   16500    211.13074    287.82627    129008.65   -40892.722    2626.8678   -43519.589    28.385071   0.96810166 
   16600    212.11059    347.82911    129227.63   -40881.999     2639.059   -43521.058    28.419213   0.96646119 
   16700    212.07023    319.37369    129233.98   -40931.502    2638.5569   -43570.059    28.371475   0.96641375 
   16800    211.65388    142.66359    129456.07   -40935.676    2633.3766   -43569.052    28.721083   0.96475579 
   16900    215.02271    206.37545    129383.84   -40912.182    2675.2913   -43587.473    28.953916   0.96529439 
   17000    214.61417    399.43847    129434.53   -40952.344    2670.2083   -43622.552    29.265304   0.96491631 
   17100    211.79307    256.35297    129407.27    -40885.37    2635.1085   -43520.478    29.306277   0.96511956 
   17200    210.43896    451.67313    129395.01   -40900.065    2618.2607   -43518.325    29.214189   0.96521104 
   17300     212.5343    297.83373    129237.79   -40951.922    2644.3308   -43596.253    29.327549   0.96638523 
   17400    206.29374    241.55786    129194.75   -40969.009    2566.6863   -43535.696    29.543347   0.96670715 
   17500    210.72463    349.55388    129173.38   -40958.818     2621.815   -43580.633    29.752787   0.96686708 
   17600    217.45186     336.5538    129162.23    -40932.59    2705.5146   -43638.104    29.973458   0.96695058 
   17700    212.08391    286.46761    129333.25   -40949.702    2638.7271   -43588.429    29.863692   0.96567196 
   17800    208.71062    247.04699    129188.15   -40968.406     2596.757   -43565.163    29.799792   0.96675656 
   17900    215.42505     312.8345    129075.58   -40941.579    2680.2971   -43621.876     29.71548   0.96759966 
   18000     212.4449    291.76408    129164.65   -40893.323    2643.2184   -43536.542    30.023978   0.96693247 
   18100    210.48006    322.80526    129179.79    -40990.58    2618.7721   -43609.352    30.134178   0.96681911 
   18200    209.37434    263.47223    129204.74    -41008.97    2605.0148   -43613.985    30.449402   0.96663241 
   18300    212.65284    325.50344    129173.86   -40925.508    2645.8057   -43571.314    30.617559   0.96686352 
   18400    208.84873     541.5004    129402.96   -40978.686    2598.4752   -43577.161    30.674425   0.96515175 
   18500     215.1646    364.65463     129319.5   -40959.177    2677.0567   -43636.234    30.529607   0.96577463 
   18600    208.47012    304.91172    129497.73   -41018.285    2593.7647    -43612.05    30.536728   0.96444538 
   18700    211.94055    471.93755    129519.14   -40986.501    2636.9434   -43623.445    30.522046   0.96428599 
   18800    211.94265    326.64631    129534.36   -40965.607    2636.9695   -43602.576     30.79606   0.96417271 
   18900    208.42621    268.40585    129778.84   -40995.023    2593.2184   -43588.242    31.060682   0.96235638 
   19000     209.3278    371.47352    129527.16   -40966.366    2604.4359   -43570.802    30.956731   0.96422625 
   19100    208.66656    334.20128    129534.22   -41019.123    2596.2087   -43615.331     31.11897   0.96417372 
   19200    213.27235    290.65788    129353.97   -40989.862    2653.5136   -43643.375    31.156158   0.96551728 
   19300    213.34613    131.74325    129336.99   -40941.818    2654.4315    -43596.25    31.516403   0.96564405 
   19400     211.9007    253.06023    129298.48   -40947.061    2636.4476   -43583.509    31.779335   0.96593161 
   19500     212.4005    417.28726     129383.3   -40935.537    2642.6661   -43578.204    31.824967   0.96529839 
   19600    213.10779    268.05684    129209.59   -40980.994    2651.4661    -43632.46    31.839594   0.96659611 
   19700    210.68542    255.14884    129115.08   -40963.319    2621.3271   -43584.646    31.900034   0.96730367 
   19800    210.67017    234.84838    129196.34   -41002.787    2621.1374   -43623.924    31.749039   0.96669525 
   19900    210.23453    400.10989    129308.86   -41009.948    2615.7173   -43625.666    31.857747    0.9658541 
   20000    205.14755    333.09014    129263.98   -41048.693    2552.4255   -43601.118    31.879722   0.96618943 
   20100    209.59659    239.64781    129346.27    -41001.42    2607.7801     -43609.2    32.017983   0.96557474 
   20200    212.95302    153.76267    129346.13   -41049.408    2649.5404   -43698.948    31.975238   0.96557577 
   20300    208.21356    291.42962    129431.94   -41071.342    2590.5725   -43661.915    32.247495   0.96493563 
   20400    211.38606    402.97064    129552.76   -41066.365    2630.0445   -43696.409    32.348937   0.96403571 
   20500     206.6473    318.10089    129524.05   -41028.939    2571.0853   -43600.025    32.501825   0.96424942 
   20600    210.45462    276.08207    129597.55   -41069.119    2618.4556   -43687.574    32.697741   0.96370259 
   20700    211.12322    294.75047    129765.85   -41022.207    2626.7743   -43648.981    32.981672    0.9624527 
   20800     212.9284    364.08993    129902.65   -41050.499    2649.2341   -43699.733    33.016761   0.96143912 
   20900    210.42287    172.36395    129661.49   -41104.738    2618.0605   -43722.799    32.956512   0.96322736 
   21000    205.98198     309.6106     129530.2   -41192.931    2562.8075   -43755.739    33.033468   0.96420368 
   21100    205.92151     441.2275    129438.79   -41204.964    2562.0551   -43767.019    33.023785   0.96488458 
   21200    207.44632    434.60679    129581.16   -41173.917    2581.0266   -43754.943    32.862067   0.96382447 
   21300    203.40402     403.6439    129772.84   -41182.252    2530.7327   -43712.984    32.990532   0.96240082 
   21400    206.44251    341.21288    129790.33   -41157.787    2568.5372   -43726.324    33.105945   0.96227118 
   21500    210.08745     329.5904    129868.65     -41159.2    2613.8873   -43773.088    33.292872   0.96169083 
   21600    211.40367    356.20861    129840.73   -41121.153    2630.2636   -43751.417    33.266782    0.9618976 
   21700    212.03018    243.85496    129960.37    -41088.41    2638.0586   -43726.469    33.210271   0.96101214 
   21800    213.08192    515.93945    130040.92   -41087.716    2651.1442    -43738.86    33.172668   0.96041683 
   21900    210.78079    317.53207    129917.83   -41094.006    2622.5137    -43716.52     33.36276   0.96132682 
   22000    206.22821    471.02531    129890.95   -41136.699    2565.8709    -43702.57    33.708227   0.96152574 
   22100     213.7968    311.73991    129962.05    -41075.44    2660.0386   -43735.478    33.747337    0.9609997 
   22200    213.29188    575.25613    130312.36   -41123.069    2653.7565   -43776.826    33.830469    0.9584163 
   22300    206.48091    165.71896    130234.01   -41110.371    2569.0151   -43679.386    33.808932   0.95899291 
   22400    211.87693    268.86304    130150.51   -41085.168    2636.1518   -43721.319    33.844414   0.95960815 
   22500    209.09746    251.56737    130224.81   -41099.828    2601.5699   -43701.398    33.842834   0.95906063 
   22600    210.75197    298.34513    130228.96   -41071.543    2622.1551   -43693.698    33.956462    0.9590301 
   22700    207.36661    333.52674       130240   -41079.622    2580.0349   -43659.657    33.963598   0.95894883 
   22800    214.45358     369.5552    130176.16   -41054.053    2668.2103   -43722.264    34.067663   0.95941905 
   22900    211.58048    308.13048     130139.2   -41100.484    2632.4634   -43732.948    34.344688   0.95969154 
   23000    211.00935    426.10647    130084.13   -41071.192    2625.3575    -43696.55    34.534993    0.9600978 
   23100    206.89832    371.83622    130134.33   -41167.647    2574.2084   -43741.855    34.652478   0.95972748 
   23200    213.18132    338.93762    130041.98   -41112.317    2652.3809   -43764.698    34.632629   0.96040904 
   23300    209.13183    219.86916    130054.82   -41154.687    2601.9976   -43756.685    34.737653    0.9603142 
   23400    209.82836    139.95022    129958.29   -41090.916    2610.6637    -43701.58    34.946277   0.96102754 
   23500    213.20212    286.73666    129927.54   -41123.869    2652.6398   -43776.509    34.941809   0.96125492 
   23600    210.72967    199.40671    130072.84   -41111.638    2621.8778   -43733.515     35.00652   0.96018115 
   23700    207.54245     218.3621     129984.5   -41132.169    2582.2226   -43714.392    35.002546   0.96083371 
   23800    207.23606    192.49814    129897.34   -41192.038    2578.4106   -43770.448      35.0672   0.96147842 
   23900    205.34513    412.88406    129908.71   -41196.768    2554.8838   -43751.652    35.100371   0.96139431 
   24000    208.84874     194.7329    129945.93   -41127.549    2598.4754   -43726.024    34.948052   0.96111894 
   24100    211.55316    347.34742    130023.81   -41139.027    2632.1235   -43771.151    34.966658   0.96054324 
   24200    205.09495    325.55618    130021.28   -41200.609    2551.7711    -43752.38    35.093296   0.96056195 
   24300    207.32593    340.30592    130223.03   -41184.531    2579.5287    -43764.06    35.137744   0.95907375 
   24400    210.48984    324.30802    130211.64   -41233.055    2618.8938   -43851.949    35.400325   0.95915763 
   24500    209.18634    414.45243    130334.21    -41192.13    2602.6757   -43794.806    35.502344    0.9582556 
   24600    209.87992    500.71235    130282.29   -41197.429    2611.3052   -43808.734    35.554526   0.95863748 
   24700    209.55562    303.01967    130250.16   -41215.029    2607.2703   -43822.299    35.635388   0.95887398 
   24800    209.73842    390.82984    130344.53   -41210.011    2609.5447   -43819.555    35.879647   0.95817975 
   24900    210.34514     223.1853    130336.14   -41179.041    2617.0934   -43796.135    35.923737   0.95824142 
   25000    211.22781    208.60171    130234.77   -41159.463    2628.0755   -43787.539    36.027437    0.9589873 
   25100    208.02225    245.04524    130201.92   -41169.928    2588.1923    -43758.12    36.193661   0.95922928 
   25200    206.29133    266.76102    130292.04   -41207.608    2566.6564   -43774.264    36.328691   0.95856576 
   25300    209.18858    323.20965    130301.89   -41219.025    2602.7036   -43821.728    36.434264    0.9584933 
   25400    211.90778    282.59259    130343.76   -41218.854    2636.5357    -43855.39    36.618446   0.95818539 
   25500    208.02012    463.83493     130422.4   -41178.205    2588.1658   -43766.371    36.834556   0.95760767 
   25600    206.38635    311.05862    130342.33   -41240.198    2567.8386   -43808.037     36.76086   0.95819592 
   25700    207.51449    346.82081    130332.66   -41255.642    2581.8748   -43837.516    36.721254   0.95826707 
   25800    209.20819    236.06673    130296.85   -41253.544    2602.9477   -43856.492    36.640474    0.9585304 
   25900    211.00473    417.90096    130393.41     -41220.8       2625.3     -43846.1    36.798899   0.95782055 
   26000    213.40218    212.07738    130430.86   -41173.639    2655.1288   -43828.768    36.788884   0.95754559 
   26100    207.69781    281.81384    130351.32   -41244.763    2584.1556   -43828.918    36.711199   0.95812983 
   26200    210.29996    298.02002    130471.33   -41246.221    2616.5313   -43862.752    36.728038   0.95724854 
   26300    210.70144    307.79068    130433.21   -41228.152    2621.5265   -43849.679    36.934938   0.95752833 
   26400     209.9482    246.08002    130309.21   -41218.287    2612.1548   -43830.442    37.058565   0.95843945 
   26500    208.21192    196.07722    130405.78    -41278.01    2590.5521   -43868.563    36.901126    0.9577297 
   26600    210.74062    351.04684    130368.28   -41322.953     2622.014   -43944.967    36.904116   0.95800521 
   26700     209.0232    264.51816    130498.04   -41347.586     2600.646   -43948.232    37.198855   0.95705264 
   26800    207.14231    298.38906    130466.55    -41282.42    2577.2442   -43859.664     37.15169   0.95728362 
   26900    210.34129    342.05186    130653.21   -41282.779    2617.0456   -43899.825    37.097111   0.95591601 
   27000    206.96032    253.94248    130651.23   -41321.945    2574.9799   -43896.924    37.168166   0.95593046 
   27100    208.95017    392.84562    130469.01    -41312.61    2599.7373   -43912.348    37.025844   0.95726559 
   27200    207.06621    340.46607     130609.5   -41324.583    2576.2973    -43900.88    37.181311   0.95623587 
   27300    208.33921    443.95428    130774.17   -41344.844    2592.1359    -43936.98    37.382967   0.95503181 
   27400    209.39245    174.17257    130848.85   -41289.266    2605.2402   -43894.506     37.43693   0.95448675 
   27500      211.068    231.81601    130738.54   -41235.405    2626.0872   -43861.492    37.493778   0.95529211 
   27600    211.17328    344.26001     130804.5   -41270.719    2627.3971   -43898.116    37.607291   0.95481035 
   27700    210.62578    436.27888    130635.25   -41270.166    2620.5851   -43890.751    37.492055   0.95604741 
   27800    213.68299    206.91045    130662.57   -41205.259    2658.6226   -43863.882    37.642037   0.95584752 
   27900    209.12701    323.21576    130722.27    -41235.71    2601.9376   -43837.648    37.735673   0.95541097 
   28000     208.9807    65.925502       130700   -41270.202    2600.1172   -43870.319    37.639884   0.95557378 
   28100    211.73961    329.94612    130727.18   -41249.524    2634.4433   -43883.968    37.786517   0.95537506 
   28200    207.55333    240.39184    130620.15   -41291.291     2582.358   -43873.649    37.877019   0.95615796 
   28300    208.13858    178.08199    130643.99   -41282.125    2589.6396   -43871.765    37.849092   0.95598341 
   28400    209.57897    353.01823    130688.79   -41323.822    2607.5608   -43931.383    37.828272    0.9556557 
   28500    208.15113    394.18143     130667.4   -41344.218    2589.7958   -43934.013     37.74054   0.95581214 
   28600    209.26996    400.14428    130601.16   -41300.895    2603.7162   -43904.611    37.912516   0.95629696 
   28700    205.42415    421.74058    130642.98   -41315.543    2555.8669    -43871.41    37.933798   0.95599083 
   28800     212.7923    316.67278    130785.26   -41283.514    2647.5407   -43931.054    37.942117   0.95495085 
   28900    212.51987    265.80511    130730.57   -41244.535    2644.1512   -43888.686    37.990702   0.95535028 
   29000    208.15966    318.92006    130740.54   -41316.935    2589.9019   -43906.837    38.182197   0.95527746 
   29100     212.6845    328.63084    130831.95   -41255.129    2646.1996   -43901.329    38.124611   0.95461002 
   29200    211.86012    241.54515    130666.17   -41221.179    2635.9426   -43857.122    38.091613   0.95582119 
   29300    210.13765    350.92447    130570.61   -41283.908    2614.5118    -43898.42      38.1578   0.95652068 
   29400    207.98979     252.6623    130629.88   -41324.734    2587.7883   -43912.523    38.182815   0.95608669 
   29500    208.63699     353.7032    130626.13   -41357.616    2595.8408   -43953.457    38.127157   0.95611417 
   29600    210.45271    305.10645    130683.01   -41275.498    2618.4318    -43893.93    38.345897   0.95569797 
   29700    209.58002     301.7843    130639.18   -41308.725    2607.5738   -43916.299    38.497505   0.95601866 
   29800    209.83815   -79.461755       130559   -41286.873    2610.7855   -43897.658     38.58975   0.95660574 
   29900    208.86831     195.1999    130612.75   -41316.651    2598.7188    -43915.37    38.768195   0.95621211 
   30000    209.75163    448.80809    130701.26   -41297.117     2609.709   -43906.825    38.937163   0.95556455 
   30100    210.74735    248.99928    130591.17   -41303.181    2622.0977   -43925.279    38.900103   0.95637011 
   30200    208.87273    425.54337    130643.37   -41316.246    2598.7739    -43915.02    38.812566   0.95598801 
   30300    209.95678    131.00764       130715   -41281.759    2612.2615    -43894.02    39.054545   0.95546413 
   30400    211.88428    251.88947    130721.86   -41265.117    2636.2432    -43901.36    39.147839   0.95541394 
   30500    212.72856    351.96173    130642.24    -41258.65    2646.7477   -43905.398    39.296232   0.95599627 
   30600    208.54835    412.17354    130699.49   -41241.857     2594.738   -43836.595    39.534788   0.95557749 
   30700    206.42649    363.34009     130502.5   -41240.898     2568.338   -43809.236    39.592673   0.95701994 
   30800    213.95773    269.82305    130466.81   -41161.613     2662.041   -43823.654    39.516402   0.95728168 
   30900    208.56254    320.36273    130484.27   -41265.964    2594.9144   -43860.879    39.441199    0.9571536 
   31000     203.2799    207.39578    130352.67   -41300.718    2529.1884   -43829.906    39.424638   0.95811995 
   31100    212.26101    471.00432    130228.18   -41304.324    2640.9304   -43945.255    39.570619   0.95903582 
   31200    207.06924    388.56383    130414.71   -41328.055     2576.335    -43904.39    39.660845   0.95766411 
   31300    209.54367    332.41793    130492.53   -41293.679    2607.1216   -43900.801    39.598134   0.95709302 
   31400    209.27901    411.11406    130614.26   -41254.363    2603.8288   -43858.192    39.584236   0.95620106 
   31500    207.82426    214.48856    130646.95   -41311.039     2585.729   -43896.768    39.771961   0.95596179 
   31600    214.06823     260.9971    130681.91   -41245.297    2663.4157   -43908.712    39.757091   0.95570605 
   31700    209.61436    364.82582    130724.51   -41279.063    2608.0012   -43887.064    39.846441   0.95539457 
   31800    212.01695    331.93236    130516.47   -41210.841    2637.8939   -43848.735    39.873974    0.9569175 
   31900    212.08433    505.01398    130599.89   -41197.773    2638.7323   -43836.505    39.963546   0.95630624 
   32000    214.77578    386.48806    130616.86   -41184.921    2672.2191    -43857.14    40.163575     0.956182 
   32100    210.59231    325.01811    130596.31   -41192.103    2620.1688   -43812.271    40.026111   0.95633247 
   32200    207.45405    228.64127    130601.79   -41197.599    2581.1228   -43778.722    40.021456   0.95629235 
   32300    211.84786    205.74842    130680.69   -41197.156    2635.7901   -43832.946    40.216289   0.95571495 
   32400    210.62637    256.46214    130628.16   -41253.961    2620.5925   -43874.553    39.917234   0.95609931 
   32500     207.2264    386.47396    130629.09   -41257.132    2578.2904   -43835.422    39.944776   0.95609249 
   32600    210.57652    465.68125    130610.72    -41209.26    2619.9722   -43829.232    40.133631   0.95622695 
   32700    206.71797    175.86232    130443.59   -41269.065    2571.9645    -43841.03    40.101173   0.95745213 
   32800    207.51589    126.77696    130315.54   -41301.137    2581.8922   -43883.029    40.067251   0.95839289 
   32900    207.49524    34.047949    130319.88   -41297.803    2581.6353   -43879.438    40.127627   0.95836101 
   33000       209.42    324.95504    130342.49   -41337.117     2605.583     -43942.7    40.249212   0.95819473 
   33100    210.47379    447.13079       130259   -41273.683    2618.6941   -43892.377    40.235775    0.9588089 
   33200    209.34169    391.69656    130254.47   -41300.416    2604.6086   -43905.024     40.06879    0.9588423 
   33300    208.41584     327.6323    130281.49   -41241.411    2593.0893     -43834.5    40.319972   0.95864342 
   33400    207.40021    313.05688    130260.42   -41315.903    2580.4529   -43896.356    40.554705   0.95879845 
   33500    214.48679    404.45646    130262.95    -41274.57    2668.6234   -43943.193    40.890891   0.95877983 
   33600    209.38332    270.31328    130218.91   -41244.647    2605.1266   -43849.773    40.813048   0.95910409 
   33700    209.32052    363.64894    130118.19   -41216.592    2604.3453   -43820.938    40.474296   0.95984651 
   33800    205.09441    229.10354    129938.71   -41190.977    2551.7644   -43742.741    40.326178   0.96117229 
   33900    210.42996    313.38161    129927.77   -41191.215    2618.1488   -43809.364    40.558496   0.96125325 
   34000    210.98833    393.06869    130031.22   -41145.062    2625.0959   -43770.158    40.699777   0.96048847 
   34100    206.09243    191.78734    129981.51   -41173.063    2564.1816   -43737.244    40.945766   0.96085579 
   34200     209.9738    299.01661    129934.82   -41183.412    2612.4732   -43795.885    41.113825   0.96120112 
   34300    208.32144    486.01136    130077.44   -41222.768    2591.9148   -43814.683    41.105449   0.96014719 
   34400    209.47777     422.7965    130116.49   -41165.816    2606.3017   -43772.117    41.267568   0.95985903 
   34500    210.28055    277.56283    130172.17   -41180.691    2616.2898   -43796.981    41.504207   0.95944847 
   34600     212.0125    214.51513    130144.05   -41176.623    2637.8386   -43814.462    41.377018   0.95965577 
   34700     208.2728    81.959169    130157.19   -41246.705    2591.3096   -43838.014    41.585005   0.95955887 
   34800    209.03373    223.56943    130192.21   -41228.756     2600.777   -43829.533    41.936878    0.9593008 
   34900     206.2447    314.86628    130179.22   -41242.577    2566.0762   -43808.653     41.72176   0.95939654 
   35000    204.51449    276.37927    130122.38   -41303.834    2544.5491   -43848.384    41.710355   0.95981564 
   35100    205.28077    411.77307    130087.22   -41234.509    2554.0831   -43788.592    41.710674   0.96007505 
   35200    206.19232     195.9871    130053.36   -41236.072    2565.4245   -43801.497    41.949568   0.96032496 
   35300    211.08872     341.8224    130149.74    -41225.36     2626.345   -43851.705    42.006195    0.9596138 
   35400    207.10336    139.61024    129943.21   -41242.871    2576.7595    -43819.63    42.126039   0.96113903 
   35500     211.6317    294.04502       130053   -41139.896    2633.1007   -43772.997    41.938191   0.96032763 
   35600    208.98077    283.09075    130015.13   -41180.826    2600.1181   -43780.944    42.089218   0.96060738 
   35700     207.5563    340.53187     130027.6   -41137.905    2582.3949   -43720.299    41.959843   0.96051527 
   35800      209.722    147.49648    130088.65   -41172.493    2609.3404   -43781.833    41.993673   0.96006444 
   35900    207.14636    180.07187    130059.12   -41115.004    2577.2946   -43692.299    42.173835   0.96028247 
   36000    209.97922    385.72706    130113.09   -41074.248    2612.5407   -43686.788    42.215511   0.95988417 
   36100    211.64339    309.05071    130174.23   -41093.082    2633.2461   -43726.328    42.448696    0.9594333 
   36200    212.46799    447.99878    130195.94   -41120.784    2643.5057   -43764.289    42.616988   0.95927334 
   36300    205.99998    240.59337     130114.3   -41187.037    2563.0314   -43750.068    42.655232   0.95987523 
   36400    209.37666    343.06628    130062.32   -41134.147    2605.0437   -43739.191    42.635739   0.96025883 
   36500    211.21229    150.82105    130146.81   -41120.768    2627.8825   -43748.651    42.694711    0.9596354 
   36600    209.79367    312.96527    129882.59   -41252.186     2610.232   -43862.418    42.653828    0.9615876 
   36700    207.67127      295.614    129823.72   -41197.856    2583.8254   -43781.682    42.768204   0.96202364 
   36800    209.55675    348.32904    129979.81   -41181.676    2607.2844   -43788.961    42.753799   0.96086836 
   36900     210.8147     445.0412     130095.3   -41204.525    2622.9356   -43827.461    42.882748   0.96001541 
   37000    213.29829    254.57788    130108.67   -41148.716    2653.8363   -43802.552    43.197511   0.95991677 
   37100    212.82726    271.75594    130245.25   -41124.771    2647.9757   -43772.747    43.381687   0.95891013 
   37200    208.56815    320.11127    130218.76   -41173.075    2594.9843    -43768.06    43.493708   0.95910521 
   37300    211.09121    288.19644    130196.44   -41188.537     2626.376   -43814.913    43.417564   0.95926964 
   37400     208.7719    364.90501    130054.21   -41213.759    2597.5193   -43811.278    43.503947   0.96031872 
   37500    207.98538    280.64945    129984.68   -41220.643    2587.7336   -43808.376      43.7979   0.96083241 
   37600     209.7256    294.84073    129989.96   -41173.363    2609.3851   -43782.748    43.720873   0.96079339 
   37700    206.08302     169.8069    129852.86   -41172.256    2564.0645    -43736.32    43.580459   0.96180781 
   37800    206.42892    344.12264    129720.14   -41259.588    2568.3683   -43827.956    43.750146    0.9627918 
   37900     208.5037    266.61637    129580.94   -41215.714    2594.1824   -43809.897    43.957665   0.96382612 
   38000     208.1783    231.66512    129547.72   -41194.702    2590.1338   -43784.836    43.964265   0.96407325 
   38100     206.3206    511.58324    129625.95   -41164.981    2567.0205   -43732.002    44.178483   0.96349143 
   38200    209.83806    175.10582    129851.62   -41177.989    2610.7844   -43788.773    44.211257   0.96181696 
   38300    210.87006    352.09148     129698.6   -41124.854    2623.6245   -43748.479    44.231725   0.96295176 
   38400    207.11608    436.58918    129828.22   -41183.033    2576.9178   -43759.951    44.290328   0.96199029 
   38500    207.56733    155.14645    129872.34   -41205.874    2582.5322   -43788.406    44.282134   0.96166353 
   38600    209.38923    325.63831    129923.02   -41180.422    2605.2001   -43785.622     44.29875   0.96128838 
   38700    212.44467    449.67375     129948.1   -41197.976    2643.2156   -43841.192    44.584636   0.96110286 
   38800    208.96846     351.4953     130029.4   -41228.263     2599.965   -43828.228    44.703193   0.96050195 
   38900    211.87023    265.40136    130040.76   -41184.198    2636.0684   -43820.266    44.883545   0.96041804 
   39000    210.67712    353.10366    130030.43   -41237.901    2621.2239   -43859.125    44.944091   0.96049432 
   39100    210.53786    352.25943    129957.05   -41211.276    2619.4912   -43830.767    44.888632   0.96103667 
   39200    212.39403    239.96561     130090.9   -41237.361    2642.5856   -43879.947    44.934195   0.96004785 
   39300    208.58678    291.70675    129882.14   -41210.576    2595.2162   -43805.792    45.207355   0.96159096 
   39400    213.54241    333.94227    129897.74   -41166.219    2656.8736   -43823.093    45.304788   0.96147545 
   39500    213.39422    391.32928    129930.27   -41150.369    2655.0298   -43805.399    45.135381   0.96123472 
   39600    209.32154    346.10304    130209.75   -41197.922    2604.3579    -43802.28    45.559219   0.95917159 
   39700    211.43283    235.14623     130145.7    -41134.17    2630.6264   -43764.796    45.418381    0.9596436 
   39800    207.46518    210.02269    129957.51   -41187.304    2581.2613   -43768.565    45.607992   0.96103329 
   39900    209.93654    277.61711     130002.1   -41220.695    2612.0096   -43832.704    45.709361   0.96070365 
   40000     209.5957    334.32823    130028.73   -41246.013     2607.769   -43853.782    45.642936   0.96050691 
   40100    205.74138     344.7408    130054.91    -41153.55    2559.8139   -43713.364    45.517674   0.96031351 
   40200    209.74717    274.54991    130134.44   -41181.305    2609.6535   -43790.959    45.609989   0.95972664 
   40300    213.96313    182.22414    130139.02   -41165.905    2662.1081   -43828.013    45.682713   0.95969291 
   40400    211.89734    225.05657    130273.72   -41085.485    2636.4058   -43721.891    45.958954    0.9587006 
   40500    209.87057    230.97142    130160.72    -41095.22    2611.1889   -43706.409    45.899806   0.95953287 
   40600    208.65349    372.20234    130137.79   -41132.565    2596.0461   -43728.611    46.109827   0.95970192 
   40700    211.80785     325.4958    130022.73   -41179.128    2635.2923   -43814.421     46.14864   0.96055124 
   40800    212.02862    381.80678    130014.53   -41241.897    2638.0391   -43879.936     46.10942   0.96061182 
   40900    206.98881    356.95444    130167.37   -41273.489    2575.3343   -43848.823    46.233559   0.95948384 
   41000    211.15604    188.82283    130045.08   -41207.783    2627.1826   -43834.965    46.370229   0.96038617 
   41100    212.98601    412.99282    130024.43   -41201.084    2649.9509   -43851.035    46.069608   0.96053864 
   41200     211.7367    215.02626    130116.83    -41218.03    2634.4071   -43852.437    46.209497   0.95985651 
   41300    204.12947    325.94271    130062.67     -41353.5    2539.7587   -43893.259     46.28446   0.96025627 
   41400    204.77256    194.37494    129970.63   -41289.408    2547.7599   -43837.168    46.422113   0.96093628 
   41500    205.19763    174.81958     129996.5   -41269.807    2553.0486   -43822.855    46.684917   0.96074501 
   41600    205.59705    312.53459    130021.65   -41226.394    2558.0182   -43784.412    46.769109   0.96055921 
   41700    207.94784    295.75549    130207.76   -41202.672    2587.2665   -43789.939    46.904014   0.95918625 
   41800    209.48864    243.32042    130151.95   -41214.733    2606.4369    -43821.17    46.647672   0.95959751 
   41900     214.3224    117.49003    130054.96   -41198.591    2666.5781   -43865.169    46.770714   0.96031316 
   42000    209.65024    247.04857    129940.62    -41189.91    2608.4475   -43798.358     46.51625   0.96115819 
   42100    209.12039    287.59886    129863.68   -41183.374    2601.8553   -43785.229    46.671722   0.96172761 
   42200    208.63239    351.00585    129953.92   -41124.765    2595.7836   -43720.548    46.978094   0.96105982 
   42300    210.19203    288.63208    129915.38   -41085.707    2615.1885   -43700.895    46.995866   0.96134493 
   42400    211.81453    353.14679    129988.03     -41130.6    2635.3754   -43765.976    46.933387   0.96080762 
   42500    213.64423    253.42632    129920.51   -41127.948    2658.1404   -43786.089    47.102538   0.96130696 
   42600    211.68976    228.26382     129879.2   -41133.661    2633.8231   -43767.485    47.141553   0.96161274 
   42700    212.26314    68.866279    129902.95   -41146.363    2640.9571    -43787.32     47.33841   0.96143692 
   42800     215.7379    132.84299    129837.36   -41092.046    2684.1897   -43776.235    47.350916   0.96192263 
   42900    210.48489    267.70027    129820.19   -41169.845    2618.8322   -43788.678    47.410142    0.9620498 
   43000    210.70825    444.18791    129744.76   -41193.413    2621.6113   -43815.024     47.41464    0.9626091 
   43100    210.31206    70.221945    129702.69   -41168.535    2616.6819   -43785.216    47.446768   0.96292135 
   43200    212.22145     306.6321    129572.17   -41138.604    2640.4383   -43779.042    47.442501   0.96389129 
   43300    212.76899    388.32257    129485.04   -41136.944    2647.2508   -43784.194    47.292511   0.96453995 
   43400    215.43041    322.76006    129566.04   -41094.655    2680.3639   -43775.019    47.273341   0.96393694 
   43500    213.45558    330.22741    129593.86     -41110.7    2655.7932   -43766.493    47.476219   0.96373002 
   43600    217.51756    424.82403    129625.06   -41024.674    2706.3319   -43731.006    47.930873   0.96349807 
   43700    213.87881    374.29759    129463.42   -41042.086    2661.0591   -43703.146    47.860653   0.96470103 
   43800    211.69223    307.95201    129538.89   -41037.034    2633.8538   -43670.888    48.072831   0.96413893 
   43900    210.86476    319.91428    129553.78   -41066.605    2623.5585   -43690.164    48.123163   0.96402815 
   44000    210.36223    272.77323    129570.16   -41087.995    2617.3061   -43705.301     48.04052   0.96390628 
   44100    213.02737     235.1003    129462.58   -41103.167    2650.4655   -43753.633    48.238306   0.96470728 
   44200    204.63991    225.31757    129299.95   -41130.645    2546.1095   -43676.754    48.368598   0.96592062 
   44300    212.12815    381.65019    129409.81   -41132.372    2639.2775    -43771.65    48.390682   0.96510061 
   44400    211.64505    337.09942    129359.57   -41095.829    2633.2668   -43729.096    48.274165    0.9654755 
   44500    208.81328    323.24724     129523.2   -41127.238    2598.0342   -43725.272    48.636699   0.96425578 
   44600    208.56029    426.49755    129631.34   -41189.895    2594.8865   -43784.781    48.752022   0.96345136 
   44700    208.14872    448.27656    129612.38    -41177.52    2589.7657   -43767.285    48.609073   0.96359232 
   44800    212.21442    349.31009    129534.35   -41146.803    2640.3508   -43787.154    48.764643   0.96417279 
   44900    211.22814    379.50889    129641.09   -41113.747    2628.0796   -43741.827    48.846889   0.96337894 
   45000    211.37423    343.26236    129718.34   -41124.346    2629.8973   -43754.243    48.720254    0.9628052 
   45100     212.4017    369.56295       129568   -41070.011    2642.6809   -43712.692    48.708047   0.96392234 
   45200    214.58706    122.31345    129769.77   -41134.835     2669.871   -43804.706    48.924758   0.96242364 
   45300     209.5573    319.13741    129813.67   -41160.099    2607.2912    -43767.39    49.028465   0.96209813 
   45400    211.71759    507.85538    129753.99   -41135.106    2634.1693   -43769.275    48.991442   0.96254064 
   45500    209.42385    384.07686    129982.12   -41151.622    2605.6308   -43757.253    48.934209   0.96085133 
   45600    210.56106    320.88245    129967.53   -41150.174    2619.7799   -43769.953    49.120521   0.96095921 
   45700    208.55159    212.86215    130055.43   -41167.054    2594.7782   -43761.833    49.217705    0.9603097 
   45800    214.15636    281.17815    130122.97   -41119.511    2664.5122   -43784.023    49.342937   0.95981129 
   45900    216.08301    206.48035       130082   -41067.337    2688.4834    -43755.82     49.57613   0.96011358 
   46000    217.84253    341.41454    130371.96   -41060.668    2710.3752   -43771.043    49.706072    0.9579782 
   46100    214.09645    155.63381    130233.95   -41024.377    2663.7669   -43688.144    49.526362   0.95899335 
   46200    214.90847    370.69368    130186.33   -41024.392    2673.8699   -43698.262    49.435919   0.95934414 
   46300    214.16399    407.03782    130111.97   -41049.469    2664.6072   -43714.076    49.493954   0.95989242 
   46400    212.40262    294.55934    130308.66   -41078.426    2642.6924   -43721.118    49.768032   0.95844355 
   46500    216.97889    375.06662    130328.72   -41086.717    2699.6299   -43786.347    50.111368   0.95829603 
   46600    212.89212    296.91649     130240.8   -41078.991    2648.7827   -43727.773    50.129821   0.95894292 
   46700    207.79013    113.78246    130128.35   -41158.178    2585.3042   -43743.482    50.123199   0.95977157 
   46800    204.94736    140.08234    129928.62   -41197.522    2549.9348   -43747.457    50.067014   0.96124693 
   46900    213.11008     300.7964    130041.44   -41114.713    2651.4945   -43766.208    50.158124   0.96041301 
   47000    211.33992    218.10201    129947.01   -41108.194    2629.4704   -43737.665    50.156873   0.96111092 
   47100    210.50641     278.1604    129915.74   -41094.966       2619.1   -43714.066    50.144526   0.96134228 
   47200    212.87556    525.34868    129943.71   -41159.472    2648.5766   -43808.049    50.296733   0.96113533 
   47300    215.48017    350.75235    130031.18   -41188.977     2680.983    -43869.96    50.379391   0.96048883 
   47400    210.47274    397.26038    130098.74     -41158.3     2618.681   -43776.981    50.421637   0.95998999 
   47500    213.61577    310.57283    130042.52   -41101.295    2657.7863   -43759.082    50.725064   0.96040502 
   47600     214.6957    233.66433     130140.8   -41057.516    2671.2227   -43728.738    50.937469   0.95967974 
   47700    215.73926     231.5865    129971.06   -41093.241    2684.2065   -43777.448    51.103005   0.96093305 
   47800    214.84216     254.9204    129823.24   -41094.041    2673.0449   -43767.086    51.027752   0.96202725 
   47900    208.33636    149.41103     129816.9   -41188.827    2592.1004   -43780.927     51.05232   0.96207417 
   48000    207.23736    461.44834    129799.95   -41206.562    2578.4267   -43784.988    50.939436   0.96219983 
   48100    209.11437    272.91283    130161.07   -41176.892    2601.7803   -43778.673    51.210608   0.95953032 
   48200    210.14981    359.79864    130334.21    -41204.05    2614.6631   -43818.713    51.286696    0.9582556 
   48300     209.9833    292.39165    130276.28    -41184.29    2612.5914   -43796.881    51.196622   0.95868171 
   48400    209.93564    354.37204    130114.99   -41098.543    2611.9984   -43710.541    51.088498   0.95987012 
   48500    213.11322    294.05368    130214.92   -41147.079    2651.5336   -43798.612    51.270116    0.9591335 
   48600    209.86763    282.48938    130206.32   -41148.126    2611.1523   -43759.278    51.430846   0.95919688 
   48700    211.11539     312.2982    130001.93   -41101.922    2626.6768   -43728.599     51.25463   0.96070492 
   48800     207.9966    361.94853    129967.76    -41133.59    2587.8731   -43721.464    51.459673   0.96095748 
   48900    211.84096    388.85188     130150.7   -41124.846    2635.7043    -43760.55    51.767117   0.95960674 
   49000    210.66655    316.13176    130303.86   -41167.482    2621.0924   -43788.575    51.843214   0.95847883 
   49100     209.2751    274.48903    130122.46   -41177.963    2603.7801   -43781.743    51.786873   0.95981505 
   49200      207.767     383.8268     130105.3   -41204.195    2585.0165   -43789.211    51.745094   0.95994163 
   49300    207.37186    159.94499    130052.83   -41155.166    2580.1001   -43735.266    51.983267   0.96032886 
   49400    209.94172    267.34894    130279.95   -41124.075    2612.0741   -43736.149     51.91283   0.95865476 
   49500    209.56718    419.69666    130274.48   -41149.669    2607.4141   -43757.083    52.031622   0.95869497 
   49600    212.42772    192.21989    130319.34   -41145.336    2643.0047   -43788.341    52.444406   0.95836498 
   49700     209.7716     371.4492    130236.26   -41154.572    2609.9575    -43764.53    52.607118   0.95897633 
   49800     207.0477    349.11267    130357.14   -41199.899     2576.067   -43775.966    52.841456   0.95808707 
   49900    212.29338    255.11504    130225.08   -41090.213    2641.3333   -43731.546    52.670041   0.95905863 
   50000    214.77845    316.80387    130149.67   -41130.379    2672.2522   -43802.631    52.394927   0.95961433 
   50100    214.29142    304.63065     130160.5   -41152.676    2666.1927   -43818.868    52.679629   0.95953452 
   50200    210.63513    161.31827    130228.86   -41193.214    2620.7014   -43813.916     52.94437   0.95903086 
   50300    208.28541    230.72583    130320.34   -41158.605    2591.4665   -43750.072    53.065934   0.95835761 
   50400    210.41716    259.96007    130355.77    -41182.27    2617.9894    -43800.26    53.093421   0.95809714 
   50500    208.64295    277.92199    130479.75   -41211.924     2595.915   -43807.839    53.176177   0.95718679 
   50600    209.26956    416.77177    130492.54   -41232.491    2603.7112   -43836.202    53.203884   0.95709296 
   50700    210.85769     376.6157    130280.31   -41246.074    2623.4705   -43869.545    53.257582   0.95865208 
   50800    206.36354    258.03888    130277.17   -41243.318    2567.5548   -43810.873    53.322648   0.95867517 
   50900    212.12151    351.36515    130355.74   -41177.947    2639.1949   -43817.142    53.396816   0.95809738 
   51000    211.43183    398.45608    130492.26   -41208.231     2630.614   -43838.845    53.276904   0.95709498 
   51100    212.90148    296.16894    130462.93   -41252.901    2648.8992     -43901.8    53.175722   0.95731017 
   51200    210.81461    288.06857    130384.96    -41258.15    2622.9346   -43881.085     53.44782   0.95788263 
   51300    205.37489    313.08225    130325.56   -41313.149     2555.254   -43868.403    53.455212   0.95831925 
   51400    208.88056    418.56889       130513   -41329.784    2598.8713   -43928.655    53.484576   0.95694291 
   51500    206.74307    359.18897    130422.69   -41327.733    2572.2769   -43900.009    53.678851   0.95760553 
   51600    209.56694    207.42477    130215.67   -41277.336    2607.4111   -43884.747    53.912686     0.959128 
   51700    208.62015    282.57844    130211.79   -41275.589    2595.6312    -43871.22     53.67847   0.95915657 
   51800    207.02328    357.68393    130156.97   -41299.729    2575.7632   -43875.493    53.877862   0.95956053 
   51900    207.49842    449.38341    130146.92    -41333.96    2581.6749   -43915.635     54.07414   0.95963462 
   52000    206.30905    252.76624    129994.98   -41346.568    2566.8768   -43913.445    54.082696   0.96075629 
   52100    207.66093    371.63105     130002.4   -41287.986    2583.6967   -43871.683    53.963452   0.96070146 
   52200    207.51351    181.35901    130131.32   -41306.641    2581.8626   -43888.504    53.883073    0.9597497 
   52300    209.38893     328.7337    130075.46   -41284.491    2605.1963   -43889.688     53.98077    0.9601618 
   52400    212.52805    131.74263    130259.31   -41232.403     2644.253   -43876.656     54.32175   0.95880667 
   52500    212.72525    466.12752    130278.48   -41232.981    2646.7066   -43879.688    54.503542   0.95866552 
   52600    210.78539    435.00499    130419.23   -41256.742     2622.571   -43879.313      54.6068   0.95763095 
   52700    209.23686    257.39705    130217.42   -41277.515    2603.3043    -43880.82    54.595202   0.95911511 
   52800    210.87343    337.14141    130219.49   -41223.907    2623.6664   -43847.573    54.649524   0.95909982 
   52900     208.8261     195.5704    130265.74   -41210.826    2598.1938    -43809.02    54.718315   0.95875929 
   53000    209.40096     325.0965    130430.48   -41199.424     2605.346    -43804.77    54.880945   0.95754839 
   53100    207.84182     400.4457    130372.85   -41249.686    2585.9474   -43835.634     55.07555   0.95797161 
   53200    208.29531    306.60339    130391.62   -41246.146    2591.5896   -43837.736    55.061117    0.9578337 
   53300    213.09425    386.52383    130426.15   -41238.627    2651.2976   -43889.924    55.215116   0.95758017 
   53400    208.46576    161.60241    130444.59    -41323.08    2593.7104    -43916.79    55.259225   0.95744481 
   53500    206.77076    386.33785    130280.54   -41339.999    2572.6214   -43912.621    55.381059   0.95865036 
   53600    208.74677    464.83856    130314.94   -41347.322    2597.2067   -43944.529    55.331401    0.9583973 
   53700    205.90549    314.58898    130435.96   -41391.369    2561.8558   -43953.225    55.406504   0.95750816 
   53800    210.75365    75.595243    130334.01   -41282.985    2622.1761   -43905.161    55.375788    0.9582571 
   53900    211.60673    312.04263    130442.55   -41340.218      2632.79   -43973.008    55.504475   0.95745971 
   54000    205.42808    123.33682    130352.54   -41307.011    2555.9159   -43862.927    55.376748    0.9581209 
   54100    210.00209    282.16289    130383.87   -41320.893    2612.8252   -43933.718    55.604317   0.95789066 
   54200    211.74184    310.20473    130464.22   -41301.385    2634.4711   -43935.856    55.712621   0.95730073 
   54300    211.67843    283.23233    130590.68   -41283.016    2633.6821   -43916.698    55.849139   0.95637368 
   54400    212.23814    193.78265    130542.91   -41315.604     2640.646    -43956.25    55.841599    0.9567237 
   54500    208.87212    258.70966    130304.96   -41303.678    2598.7662   -43902.444    56.113306   0.95847074 
   54600    214.28586    342.37944    130477.38   -41214.994    2666.1234   -43881.117    55.870555   0.95720413 
   54700    216.77564    256.72843    130534.94   -41233.882     2697.101   -43930.983     55.89235   0.95678209 
   54800      212.064    441.10096    130380.19   -41293.771    2638.4793   -43932.251    55.935739   0.95791771 
   54900    206.84362    225.74356    130495.65   -41339.904    2573.5278   -43913.432    56.333442   0.95707016 
   55000    203.86908    403.45035    130444.23   -41392.029    2536.5189   -43928.548    56.406376   0.95744745 
   55100     213.0123    269.28254    130522.65   -41372.616    2650.2779   -44022.894    56.570869   0.95687215 
   55200    207.90231    338.38894    130444.06   -41366.295       2586.7   -43952.995    56.565152   0.95744866 
   55300    209.50549    285.21445    130358.76   -41333.058    2606.6466   -43939.705    56.573428   0.95807517 
   55400     213.1598    455.10936    130556.61   -41327.967    2652.1132    -43980.08    56.991528    0.9566233 
   55500    211.80549    135.49564    130536.83   -41267.148     2635.263   -43902.411    56.740249   0.95676821 
   55600    214.18623    313.51286    130521.03   -41302.975    2664.8839   -43967.858    56.601746   0.95688406 
   55700    209.72851    334.76212     130553.6   -41285.333    2609.4214   -43894.755    56.788263   0.95664532 
   55800    209.26427    254.53685    130361.33   -41282.548    2603.6453   -43886.194    57.160377   0.95805625 
   55900    211.57369    396.14228    130228.87   -41250.799    2632.3789   -43883.178    57.400196   0.95903074 
   56000    212.47431    458.52026    130471.24   -41242.349    2643.5843   -43885.933    57.627201   0.95724921 
   56100    212.04423    346.67585    130382.99   -41208.113    2638.2334   -43846.346    57.684814   0.95789712 
   56200    212.77138    394.05833    130448.46   -41214.638    2647.2805   -43861.918    57.425635   0.95741636 
   56300    208.86717    534.32914     130567.9   -41255.305    2598.7046    -43854.01    57.433273   0.95654057 
   56400    211.26664    335.26349    130638.01   -41247.023    2628.5586   -43875.582    57.410748   0.95602722 
   56500    210.25037    233.84315    130748.81   -41343.775    2615.9144   -43959.689    57.375938   0.95521704 
   56600    210.17591    244.94024    130646.61   -41359.059    2614.9879   -43974.047    57.562002   0.95596429 
   56700    208.47387    296.37577     130488.4   -41394.397    2593.8113   -43988.208     57.46858   0.95712329 
   56800    210.46879    245.36656    130406.48   -41335.572    2618.6319   -43954.204    57.850973   0.95772456 
   56900    208.62962    320.07486     130413.7   -41321.826    2595.7491   -43917.575    57.811728   0.95767156 
   57000    210.54209    357.62447    130598.48    -41256.92    2619.5438   -43876.464    57.672935   0.95631656 
   57100    211.66845    264.87593    130763.33   -41315.555    2633.5579   -43949.112    58.005813   0.95511094 
   57200    209.00507    252.51613    130545.77    -41359.64    2600.4204   -43960.061    57.749152   0.95670269 
   57300     209.8015     315.9565    130653.19   -41408.404    2610.3296   -44018.733    57.864123   0.95591614 
   57400    203.29573    339.58818     130603.9   -41426.047    2529.3853   -43955.432    57.982954    0.9562769 
   57500     206.9109    280.50843    130692.56   -41469.472    2574.3649   -44043.836    58.348755   0.95562813 
   57600    209.00308    190.11062    130583.45   -41428.103    2600.3957   -44028.499      58.3579   0.95642663 
   57700    203.63254     237.1982    130589.06   -41465.913     2533.576   -43999.489    58.478527   0.95638552 
   57800    202.91778    294.42911    130680.32   -41488.952     2524.683   -44013.635    58.392194   0.95571764 
   57900    206.33684    241.39292    130549.97   -41455.161    2567.2226   -44022.384    58.191729   0.95667191 
   58000    210.18612    377.29271    130441.07   -41464.964     2615.115   -44080.079    58.294668   0.95747062 
   58100    208.34051    166.01431    130407.14   -41389.232    2592.1521   -43981.384    58.260879   0.95771972 
   58200    211.85005    327.96757    130402.75   -41335.764    2635.8174   -43971.582    58.177983   0.95775195 
   58300    213.44788    148.70608    130289.29   -41271.009    2655.6974   -43926.706    58.256108   0.95858603 
   58400    213.55444    534.09706    130454.52   -41279.382    2657.0233   -43936.406    58.778779   0.95737191 
   58500    212.92084    316.33209    130601.82   -41293.213    2649.1401   -43942.353    58.759748   0.95629212 
   58600    215.22153    284.42593    130592.92   -41264.918     2677.765   -43942.683    58.685784   0.95635729 
   58700    219.32128    282.88749    130520.66   -41273.559    2728.7737   -44002.333    58.504981   0.95688676 
   58800    210.87184    319.60918    130782.98   -41324.984    2623.6466   -43948.631    58.687619   0.95496745 
   58900    210.33719    257.20522    130795.11   -41370.544    2616.9945   -43987.539    58.700299   0.95487892 
   59000    207.04928    367.18908    130808.25   -41362.824    2576.0867    -43938.91    58.918284   0.95478298 
   59100    208.01599     251.2348    130765.88   -41354.272    2588.1144   -43942.386    58.737985   0.95509233 
   59200    208.77137    201.33559    130896.31   -41366.113    2597.5127   -43963.626    58.888956   0.95414066 
   59300     209.2348    217.84008    130701.97   -41354.869    2603.2787   -43958.148    58.956628   0.95555935 
   59400    211.14271    336.87699    130691.43   -41405.276    2627.0167   -44032.293    58.888995   0.95563641 
   59500    206.24745     346.6212    130688.12   -41379.348    2566.1104   -43945.459    59.023583   0.95566066 
   59600    210.13949    385.21545    130701.08   -41351.406    2614.5347   -43965.941    59.040639   0.95556584 
   59700     208.3591    114.32485       130652   -41381.308    2592.3834   -43973.691    58.879616    0.9559248 
   59800    210.63663    304.36078    130772.27   -41387.377    2620.7201   -44008.097    59.018004   0.95504565 
   59900    207.64262    282.78549    130753.98   -41369.611    2583.4689    -43953.08    59.246195   0.95517927 
   60000    209.68019    320.14882     130829.2   -41414.179    2608.8202   -44022.999    59.346972   0.95463008 
   60100    207.19708    172.39901    130657.69   -41382.216    2577.9256   -43960.141    59.386857   0.95588324 
   60200    211.75786    363.41549    130786.06   -41370.361    2634.6703   -44005.031     59.37021   0.95494496 
   60300    210.42033    274.72525    130839.83   -41329.019     2618.029   -43947.048    59.367024   0.95455256 
   60400    207.41082    322.02055    130892.77   -41283.729    2580.5849   -43864.314    59.310325   0.95416647 
   60500    212.12324    318.45405    131023.66   -41304.783    2639.2164   -43943.999    59.372949    0.9532133 
   60600     213.3945    335.06729    131102.34   -41352.996    2655.0333   -44008.029    59.380587    0.9526412 
   60700    206.18063    174.27594    131171.43   -41373.041    2565.2791    -43938.32    59.635856   0.95213941 
   60800    210.72094     263.3015    131103.94    -41337.86    2621.7692   -43959.629    59.655257   0.95262959 
   60900     212.9859    351.34856    131021.07   -41346.065    2649.9495   -43996.015    59.831634   0.95323212 
   61000     208.4919     324.7889    131207.57   -41389.103    2594.0356   -43983.139    59.912158   0.95187718 
   61100     212.5243    113.01442    131217.25   -41431.034    2644.2063    -44075.24    59.825911   0.95180699 
   61200    208.29925    477.52266     131171.2   -41431.692    2591.6386   -44023.331    59.902377   0.95214111 
   61300    208.99349    327.39508    131271.63    -41421.23    2600.2763   -44021.506    59.956058   0.95141267 
   61400    205.71345    258.66592    131200.67   -41460.155    2559.4665   -44019.621    59.917815   0.95192724 
   61500    210.92683    419.13705    131254.54   -41461.121    2624.3307   -44085.451    60.037874   0.95153653 
   61600    207.88691    345.17173    131380.62    -41429.56    2586.5083   -44016.068    60.270346   0.95062343 
   61700     202.6259    251.14916    131304.67   -41498.436    2521.0514   -44019.488    60.328647   0.95117324 
   61800    206.05713    287.97478    131284.75   -41563.631    2563.7424   -44127.373    60.272711   0.95131758 
   61900    206.98223    205.91543    131243.37   -41506.346    2575.2525   -44081.598     60.10553   0.95161755 
   62000    212.93509    277.36137    131281.47   -41463.536    2649.3174   -44112.853     60.03189   0.95134133 
   62100    211.61247    314.94512    131243.72   -41486.777    2632.8614   -44119.638    60.180738   0.95161499 
   62200    212.15421    446.99872    131055.62   -41442.343    2639.6017   -44081.944    60.289153    0.9529808 
   62300    207.80805    253.59619    131031.12   -41482.434    2585.5272   -44067.961    60.491344   0.95315901 
   62400    207.59736    228.76376    130838.81   -41421.719    2582.9059   -44004.625    60.287012   0.95455998 
   62500    211.28245    301.90529    130855.34   -41434.055    2628.7554    -44062.81    60.200546   0.95443938 
   62600    211.25374    205.29546    130904.03   -41437.235    2628.3981   -44065.633    60.339042   0.95408441 
   62700     205.3869    265.96732    130882.13   -41459.517    2555.4035   -44014.921    60.295159   0.95424403 
   62800    208.90355    247.05032    130905.77   -41447.216    2599.1573   -44046.373    60.427492   0.95407167 
   62900    210.56672    347.18694    130950.07   -41392.111    2619.8503   -44011.961     60.43264   0.95374894 
   63000    212.22921    155.65328    130969.58   -41367.762    2640.5349   -44008.297    60.413722   0.95360683 
   63100    216.08533    325.03433    130943.73   -41351.602    2688.5123   -44040.115    60.437686   0.95379514 
   63200    210.85245    240.91753    130891.88   -41382.791    2623.4053   -44006.196    60.732507   0.95417298 
   63300    211.51938    321.94473    130955.99   -41421.027    2631.7032   -44052.731    60.641357   0.95370582 
   63400    211.01965    381.11249    131136.72   -41347.706    2625.4856   -43973.192     60.73239   0.95239145 
   63500    211.66859    381.27892    131229.88   -41441.348    2633.5597   -44074.908     60.82141   0.95171534 
   63600    210.42775    190.75652    131117.73   -41439.611    2618.1213   -44057.733    60.742939   0.95252937 
   63700    211.28978    375.33932    131182.89   -41445.807    2628.8466   -44074.653    60.569607   0.95205628 
   63800    204.98513    458.99736    131212.19   -41538.382    2550.4047   -44088.787    60.558337   0.95184363 
   63900    201.10806    237.19449    131423.56   -41529.494    2502.1666    -44031.66    60.696374    0.9503128 
   64000    208.00295    452.53243    131329.09    -41513.71    2587.9522   -44101.662    60.681133   0.95099637 
   64100    212.09042    388.13099    131267.86   -41433.381     2638.808   -44072.189     61.02144   0.95143999 
   64200    209.87185    207.16466     131242.5   -41434.556    2611.2048    -44045.76    61.024793   0.95162382 
   64300    214.64497    270.66207    131356.14   -41356.666    2670.5915   -44027.257    61.138057   0.95080056 
   64400    212.81896    349.02763    131325.57    -41380.48    2647.8725   -44028.353    60.923155   0.95102188 
   64500    214.69915    368.88983     131312.3   -41381.712    2671.2656   -44052.978    61.110573   0.95111797 
   64600    207.33744    97.405383    131335.26   -41433.191     2579.672   -44012.863     61.52647   0.95095172 
   64700    209.80014    257.55746    131190.31   -41455.293    2610.3126   -44065.606    61.519208   0.95200243 
   64800    210.08818    237.97519    131250.26   -41473.798    2613.8963   -44087.694    61.424432   0.95156756 
   64900    211.35553    278.47286    131078.17   -41452.381    2629.6646   -44082.046    61.199818   0.95281687 
   65000    209.66603    307.78428    130989.77    -41420.62     2608.644   -44029.264     61.58881   0.95345988 
   65100    207.91057    401.99866    130883.79   -41443.003    2586.8028   -44029.806    61.610312   0.95423195 
   65200    207.82128    394.36811    131060.51   -41413.975    2585.6918   -43999.667    61.447576   0.95294522 
   65300    211.02865    213.59922    131128.49   -41408.475    2625.5975   -44034.073    61.625238   0.95245122 
   65400    212.37262    172.82681    131003.57   -41351.059    2642.3192   -43993.378     61.65988   0.95335942 
   65500     211.7361    392.46381    130749.61   -41415.948    2634.3996   -44050.348    61.734463   0.95521117 
   65600    207.67746    474.55545    130994.94   -41459.485    2583.9024   -44043.387    61.823625   0.95342225 
   65700    209.09346    301.21003    131037.56   -41507.376    2601.5202   -44108.897    62.011487   0.95311219 
   65800    205.89574    343.97251    130998.07    -41509.59    2561.7345   -44071.325     61.95939   0.95339948 
   65900    208.99086    240.41935    131131.55   -41483.109    2600.2436   -44083.353    62.009066   0.95242901 
   66000    212.61688    295.47891    131276.81   -41404.519    2645.3583   -44049.877     61.97185   0.95137516 
   66100     210.9577    226.17609    131202.53   -41365.138    2624.7149   -43989.853    61.914814   0.95191376 
   66200    213.34008     217.1119    131311.43   -41348.684    2654.3562   -44003.041    62.030586    0.9511243 
   66300    214.40656    290.11545    131307.24   -41390.061    2667.6252   -44057.686    62.227927   0.95115464 
   66400    210.41043    412.90376    131156.76   -41434.079    2617.9057   -44051.985    62.184983   0.95224593 
   66500    211.18362    217.09594    131200.94   -41447.389    2627.5258   -44074.914    62.241727   0.95192528 
   66600    211.47151    210.58869    130850.32   -41467.696    2631.1076   -44098.804    61.978272   0.95447598 
   66700    207.13688    329.27675     130855.1   -41477.908    2577.1766   -44055.085      62.1782   0.95444114 
   66800    209.90344    390.22587     130868.7   -41415.478    2611.5978   -44027.076    62.222426   0.95434195 
[...]
   84600    207.09469     147.3509    131911.39   -41666.406    2576.6517   -44243.057    68.867195   0.94679838 
   84700    207.87358    322.92091    131889.42   -41678.105    2586.3425   -44264.447    68.847587   0.94695611 
   84800    212.06911    276.62141    131844.73   -41654.721    2638.5429   -44293.263    69.069885   0.94727708 
   84900    211.37067    232.34514    131838.88   -41636.573    2629.8529   -44266.426    69.078272   0.94731908 
   85000      211.885    266.77574    131957.15   -41591.354    2636.2522   -44227.606    69.002501   0.94647004 
   85100     211.6187    465.48244     132185.8   -41589.782    2632.9389   -44222.721     69.23288   0.94483292 
   85200    211.76565    338.06859    132235.04   -41603.197    2634.7673   -44237.965    69.292861   0.94448103 
   85300    207.97226    304.52257    132239.29    -41626.17    2587.5703    -44213.74    69.503357   0.94445071 
   85400    213.31171    324.26581    132053.63   -41618.124    2654.0031   -44272.127    69.282395   0.94577859 
   85500     206.6603    261.92567    132026.12   -41581.272    2571.2471   -44152.519    69.381478   0.94597563 
   85600    212.73129    228.73156    132023.34   -41554.426    2646.7817   -44201.207    69.260469   0.94599554 
   85700    210.75123    312.04292    132014.11   -41583.089     2622.146   -44205.235    69.394567   0.94606166 
   85800    208.67778    405.67487    131938.43   -41573.143    2596.3483   -44169.492    69.331022   0.94660434 
   85900     214.3255     242.9206    132042.34   -41469.862    2666.6167   -44136.479    69.653999   0.94585941 
   86000    210.31793    233.37327     132117.2   -41520.186    2616.7549    -44136.94    69.994753   0.94532345 
   86100    210.85844    255.05873    132097.85   -41515.383    2623.4799   -44138.863    69.768587   0.94546192 
   86200    209.99727    221.08139    131982.79   -41477.454    2612.7653   -44090.219     69.52509   0.94628617 
   86300     210.8844    214.42936    131893.87   -41509.668    2623.8029    -44133.47    69.493905   0.94692416 
   86400    212.48466    184.88163       131794   -41527.602    2643.7132   -44171.315    69.606265   0.94764174 
   86500    208.17265    265.94934    131655.36   -41512.623    2590.0635   -44102.687    69.673825    0.9486396 
   86600    214.40062    275.62651    131850.83   -41450.528    2667.5513   -44118.079    69.705964   0.94723323 
   86700    214.11785    269.21661    131912.81   -41443.007    2664.0332    -44107.04    69.684558   0.94678822 
   86800    207.60373    283.68903    131831.68   -41517.681    2582.9851   -44100.666    69.839117   0.94737088 
   86900    210.39107    278.92877    131778.23   -41481.586    2617.6649   -44099.251    69.659073   0.94775508 
   87000    210.57336    400.22634    131806.81   -41485.265    2619.9329   -44105.198    69.835693   0.94754957 
   87100    210.03723     267.3414    131778.88   -41521.535    2613.2625   -44134.798    70.113375   0.94775041 
   87200    209.54871    255.10625    131767.24   -41515.394    2607.1844   -44122.578    70.113396   0.94783416 
   87300    212.60184    261.02072    131828.59   -41525.011    2645.1711   -44170.182    70.115924   0.94739305 
   87400    212.44397    255.25065    131693.87   -41531.521    2643.2069   -44174.728      69.9807   0.94836221 
   87500    210.34553    296.35759    131662.25   -41541.353    2617.0983   -44158.451    69.937879      0.94859 
   87600    208.27894    298.85111    131665.49   -41555.619     2591.386   -44147.005    69.952136   0.94856667 
   87700    208.11372    278.63707    131692.61   -41563.223    2589.3304   -44152.553     70.09095   0.94837127 
   87800     209.6882    327.40788    131620.19   -41549.163    2608.9198   -44158.082    69.954977   0.94889311 
   87900    204.46187    237.11145    131742.46    -41557.16    2543.8944   -44101.054    69.864795   0.94801242 
   88000    206.74394    296.03962    131670.86   -41575.814    2572.2876   -44148.102    70.051397   0.94852795 
   88100    211.21605    338.33924    131505.93   -41507.598    2627.9292   -44135.527    70.040814   0.94971753 
   88200     209.4501    340.16413    131577.45   -41487.972    2605.9575   -44093.929     70.18901   0.94920133 
   88300    210.91937    511.85122     131742.9   -41524.467     2624.238   -44148.705    70.163101   0.94800927 
   88400    205.10887    330.23008    131796.99   -41636.446    2551.9443    -44188.39    70.220205   0.94762018 
   88500    208.94106    271.01661     131854.6   -41548.795     2599.624   -44148.419    70.343387   0.94720619 
   88600    210.16449     300.2533    131748.42   -41519.289    2614.8458   -44134.135     70.46708   0.94796955 
   88700    211.78511    395.30109    131717.27   -41509.861    2635.0095   -44144.871    70.528592   0.94819374 
   88800    214.88916     213.3608    131861.81   -41451.017    2673.6297   -44124.647     70.73802   0.94715437 
   88900     216.1361    251.46758    131953.01   -41493.524     2689.144   -44182.668    70.853295   0.94649977 
   89000    211.11221     255.3223    131675.64   -41488.862    2626.6372   -44115.499    70.472768   0.94849352 
   89100     207.3801    229.88176    131649.68   -41574.499    2580.2027   -44154.702    70.346882   0.94868057 
   89200    206.28094    212.07319     131562.8   -41600.538     2566.527   -44167.065    70.539473   0.94930703 
   89300    208.44389    297.01077    131666.26   -41618.153    2593.4383   -44211.591    70.733647   0.94856107 
   89400    207.87299    454.33235    131652.29   -41639.634    2586.3352   -44225.969    70.757014   0.94866172 
   89500     202.6817     177.8193    131661.27   -41668.476    2521.7457   -44190.221     70.71654   0.94859704 
   89600    203.78057    277.33759    131701.69   -41698.324    2535.4177   -44233.742    70.698629   0.94830595 
   89700    207.35428    254.66134    131707.22   -41657.578    2579.8815   -44237.459    70.465445   0.94826607 
   89800    210.37679    304.26429    131668.98   -41607.844    2617.4872   -44225.331    70.602509   0.94854147 
   89900    203.29257    321.73848     131636.1    -41655.82    2529.3461   -44185.166    70.687941   0.94877839 
   90000    212.16068    335.84302    131548.78   -41580.607    2639.6823   -44220.289    70.745215   0.94940818 
   90100    212.52637    351.83341    131596.22    -41606.59    2644.2321   -44250.823    70.762319   0.94906596 
   90200    210.07702    350.50502    131599.38   -41647.936    2613.7575   -44261.694    70.573469   0.94904317 
   90300    209.79909    414.03295    131668.31   -41664.148    2610.2995   -44274.448    70.889028   0.94854629 
   90400    210.87918     238.4625    131703.63   -41659.304    2623.7379   -44283.042    71.032444   0.94829195 
   90500    206.44413    308.12596    131758.05   -41633.968    2568.5575   -44202.526    70.905028   0.94790023 
   90600    212.60852    310.20793    131748.83   -41555.023    2645.2542   -44200.277    71.171907   0.94796659 
   90700    207.25723    310.32299     131632.8   -41570.487     2578.674   -44149.161    71.023623   0.94880222 
   90800    210.21475    284.76904    131681.61   -41605.865    2615.4711   -44221.336    70.964131   0.94845049 
   90900     205.0065    343.18475    131724.63   -41694.307    2550.6707   -44244.977      70.9178   0.94814076 
   91000    206.60044    244.30529    131682.64    -41711.52    2570.5023   -44282.022    70.828352   0.94844309 
   91100    205.82072    258.79786    131662.59   -41686.287     2560.801   -44247.088    71.127197   0.94858751 
   91200    208.67826    201.99496     131611.8    -41649.63    2596.3543   -44245.984    71.182289   0.94895356 
   91300    212.71995    349.05566    131606.58    -41545.76    2646.6405     -44192.4    71.243405   0.94899125 
   91400    213.58591    310.10984    131641.65   -41520.473    2657.4148   -44177.888    71.092531   0.94873843 
   91500    216.76967     436.1503    131687.67   -41540.635    2697.0267   -44237.662    71.260561   0.94840689 
   91600    210.57939    357.27606    131849.23   -41579.051     2620.008   -44199.059    71.366772   0.94724476 
   91700    208.34683    350.69775    131853.31   -41648.837    2592.2306   -44241.067    71.242488   0.94721542 
   91800    207.21792    389.63605     131824.6   -41613.055    2578.1848   -44191.239    71.111684   0.94742175 
   91900    209.63739    327.31417    131854.14   -41616.005    2608.2877   -44224.292    71.487806   0.94720944 
   92000    211.49977    317.33659    131890.95    -41618.72    2631.4593   -44250.179    71.671376    0.9469451 
   92100    209.16351    310.21164    131860.23   -41669.267    2602.3917   -44271.658    71.312584   0.94716571 
   92200      209.735    471.80625    131813.11   -41609.559    2609.5021   -44219.061    71.197863   0.94750434 
   92300      209.439    326.15978    131810.37   -41523.904    2605.8194   -44129.724    71.212529   0.94752404 
   92400    213.31867    339.46639    131842.55   -41531.263    2654.0897   -44185.353    71.558224   0.94729274 
   92500    215.06056    398.31558    131869.65   -41581.627    2675.7623   -44257.389    71.617243   0.94709806 
   92600    210.29743    169.36286     131817.8   -41548.836    2616.4998   -44165.336    71.556952   0.94747063 
   92700    211.97131    289.17747    131803.68   -41541.527    2637.3261   -44178.853    71.562023    0.9475721 
   92800    210.28772    454.06266    131596.42   -41574.555    2616.3791   -44190.934    71.420409   0.94906454 
   92900    210.97659    253.55781    131699.25   -41546.316    2624.9499   -44171.266    71.392849   0.94832348 
   93000    208.47763    325.40593    131652.15   -41579.178    2593.8581   -44173.036     71.50869   0.94866277 
   93100    213.29432    266.21967    131767.08   -41517.901    2653.7869   -44171.688    71.662886   0.94783528 
   93200    211.51799    436.59299    131725.63   -41542.302     2631.686   -44173.988    71.757239   0.94813355 
   93300    207.82712    360.75432    131800.51   -41559.233    2585.7645   -44144.998    71.812713   0.94759489 
   93400    207.98634    281.16525    131773.63   -41593.221    2587.7455   -44180.966    71.902027    0.9477882 
   93500    205.95997     277.7231    131865.79   -41635.853    2562.5335   -44198.386    72.200006   0.94712581 
   93600    206.66725     444.7029    131879.91   -41711.521    2571.3335   -44282.854    72.118967   0.94702442 
   93700    210.00193    359.60199    132017.39   -41678.612    2612.8233   -44291.435    71.970021   0.94603819 
   93800    210.95166    254.52857    131920.57   -41652.056    2624.6397   -44276.696    72.047277   0.94673247 
   93900    210.60115    327.05148    131928.28   -41639.424    2620.2786   -44259.703    72.107907   0.94667719 
   94000    212.34073    216.59413    131904.58   -41640.155    2641.9223   -44282.077    72.211589    0.9468473 
   94100    208.40369    271.01465    131786.03   -41647.985    2592.9381   -44240.923    72.209328     0.947699 
   94200    209.08744    303.07381    131606.12   -41636.403    2601.4453   -44237.849    72.064851   0.94899456 
   94300    211.71803     278.3894    131554.09   -41587.547    2634.1748   -44221.722    72.144642   0.94936988 
   94400    210.36566    252.96015    131598.91   -41581.618    2617.3488   -44198.967    72.057552   0.94904655 
   94500    209.82817    348.98806    131537.81   -41511.586    2610.6614   -44122.248     72.06156   0.94948739 
   94600    205.75531    288.30683    131592.83   -41546.928    2559.9872   -44106.915    72.092342   0.94909039 
   94700    208.82408    219.71379    131782.24   -41594.842    2598.1686   -44193.011    72.177456   0.94772628 
   94800    208.84701    358.15933    131706.93    -41578.92    2598.4539   -44177.373    72.450416   0.94826816 
   94900    210.95292    299.80742     131587.3   -41550.251    2624.6553   -44174.906    72.369189   0.94913029 
   95000    212.15169    275.37557    131593.04    -41534.25    2639.5703    -44173.82    72.389489   0.94908887 
   95100     209.5289     360.4981     131665.8   -41532.077    2606.9379   -44139.015    72.412977   0.94856438 
   95200    211.79014     433.1339    131699.54   -41547.562     2635.072   -44182.634    72.405177   0.94832141 
   95300    212.57854    338.98738    131678.16    -41452.09    2644.8812   -44096.971    72.341087   0.94847535 
   95400    211.13262    352.55295     131745.8   -41501.314    2626.8911   -44128.205    72.392096   0.94798842 
   95500    214.76178    273.15689    131781.04   -41524.381    2672.0448   -44196.426    72.536412   0.94773494 
   95600    211.46055    452.17277    131914.02   -41510.063    2630.9713   -44141.034    72.716308   0.94677952 
   95700    211.38593    409.19817    131947.65   -41573.919    2630.0429   -44203.962    72.645696   0.94653817 
   95800    208.54685    288.82999    131941.94    -41637.37    2594.7193   -44232.089    72.700361   0.94657916 
   95900    211.47475    367.91036    131855.74    -41591.21    2631.1479   -44222.358    72.676904   0.94719796 
   96000    208.44029    222.13033    131794.38   -41669.778    2593.3935   -44263.172    72.912046   0.94763897 
   96100    205.26572    398.92391    131853.22   -41619.719    2553.8958   -44173.615    73.026042   0.94721609 
   96200    207.60036    126.79766     131843.7   -41662.279    2582.9431   -44245.222    72.675714   0.94728451 
   96300    212.73828    464.00391     132006.2     -41614.3    2646.8686   -44261.168    72.824444   0.94611838 
   96400    209.96386    379.00962    132163.56   -41607.903    2612.3496   -44220.252    73.166247   0.94499186 
   96500    210.87212    124.03551    132102.14   -41649.676      2623.65   -44273.326    73.055014   0.94543122 
   96600    211.66322     270.4159    132033.15   -41640.138    2633.4929   -44273.631    72.864424   0.94592528 
   96700    208.43312    231.56112    131980.31   -41711.495    2593.3042   -44304.799    72.875711   0.94630394 
   96800    203.81266    380.61642    131968.68     -41745.6    2535.8169   -44281.417    72.919787   0.94638735 
   96900    209.71618    386.79129    131859.33   -41679.888    2609.2679   -44289.156    72.870487   0.94717217 
   97000    208.29993    438.05867    131859.78   -41668.569    2591.6472   -44260.216    73.166677   0.94716896 
   97100    207.61769     306.6881    131779.84   -41652.309    2583.1588   -44235.468    73.052598   0.94774352 
   97200    203.94484    230.62038    131853.96   -41646.813    2537.4615   -44184.275    72.958998   0.94721074 
   97300    207.79957    215.60888     131652.1    -41642.15    2585.4217   -44227.571    72.715479    0.9486631 
   97400    210.55384    318.74599    131622.11   -41641.414    2619.6901   -44261.104    72.762426   0.94887928 
   97500    209.62041    260.07839    131625.33    -41550.49    2608.0764   -44158.567    72.857678   0.94885606 
   97600    209.84775    368.05079    131578.63   -41612.039    2610.9049   -44222.944    72.790197    0.9491928 
   97700    209.93263    161.37712    131415.97    -41536.51    2611.9611   -44148.471    73.073286   0.95036767 
   97800    214.85176    290.34642    131527.46    -41519.49    2673.1644   -44192.654    73.221514   0.94956211 
   97900    215.56605    308.33113    131489.92    -41469.43    2682.0515   -44151.481    73.183098    0.9498332 
   98000    217.91381    357.40237    131642.62   -41497.193    2711.2621   -44208.456    73.377782   0.94873145 
   98100     208.8512    278.65627     131673.7   -41578.185    2598.5059   -44176.691    73.445483   0.94850751 
   98200    207.15837    254.84003    131728.12    -41551.94     2577.444   -44129.384    73.603478   0.94811562 
   98300    207.60091    322.10641     131602.7   -41570.941      2582.95   -44153.891    73.433044   0.94901918 
   98400    208.32007    304.72155    131649.67   -41588.621    2591.8978   -44180.519    73.455023   0.94868061 
   98500    210.22988    314.09495    131569.35   -41582.848    2615.6594   -44198.508    73.530822   0.94925978 
   98600    207.03335    336.03926    131610.77    -41608.17    2575.8885   -44184.059    73.823533   0.94896104 
   98700     204.3049      329.415    131658.64   -41672.371    2541.9414   -44214.312    73.844977   0.94861602 
   98800    203.32216    264.14913    131619.52   -41647.718    2529.7142   -44177.433    73.778587   0.94889793 
   98900    204.57736    306.52532    131641.02   -41655.117    2545.3313   -44200.448    73.743634   0.94874296 
   99000    207.81117    235.54458    131631.53   -41695.889    2585.5661   -44281.455    73.809945   0.94881133 
   99100    207.66128    92.662241     131588.9    -41621.73    2583.7011   -44205.431    74.002717   0.94911877 
   99200    206.01249    245.96943    131461.49   -41611.772    2563.1871   -44174.959    73.919798   0.95003858 
   99300    211.40611    224.03519    131406.36   -41569.611    2630.2939   -44199.905      73.9122   0.95043722 
   99400    209.07672    439.85573    131556.35   -41532.568    2601.3119    -44133.88    74.128865   0.94935357 
   99500    217.34297    253.83688    131537.34   -41428.535    2704.1597   -44132.695    73.966832   0.94949077 
   99600    214.37818    353.74036    131673.81   -41452.605    2667.2722   -44119.877    74.077435    0.9485067 
   99700    216.57235    388.19091    131613.37   -41465.499    2694.5717    -44160.07    73.890536   0.94894231 
   99800    215.18036    295.63281    131554.24   -41488.805    2677.2528   -44166.058    73.998899   0.94936881 
   99900    208.77216    324.22462    131409.22   -41543.852    2597.5226   -44141.375    73.998545   0.95041647 
  100000    210.98778     441.3265    131556.57   -41561.832    2625.0891   -44186.921    74.142029   0.94935198 
  100100    211.98867    338.77572    131533.12   -41499.922    2637.5421   -44137.464    74.044114   0.94952127 
  100200    212.61297    298.36932    131633.27   -41499.121    2645.3095    -44144.43    74.199784    0.9487988 
  100300    212.71896    257.54217    131567.63   -41489.102    2646.6283    -44135.73    74.095863   0.94927221 
  100400    209.77423    269.98751    131554.56   -41531.698    2609.9903   -44141.688       74.047   0.94936649 
  100500    215.27771    440.24892    131572.37   -41464.048     2678.464   -44142.512    74.137005   0.94923797 
  100600    208.54403    263.37974    131651.56   -41543.721    2594.6842   -44138.405    74.421121   0.94866698 
  100630     209.5918    375.16351    131680.63   -41521.685    2607.7204   -44129.405     74.48138   0.94845759 
Loop time of 81.7706 on 6 procs for 100000 steps with 4175 atoms

Performance: 528.307 ns/day, 0.045 hours/ns, 1222.934 timesteps/s
98.5% CPU use with 6 MPI tasks x no OpenMP threads

MPI task timing breakdown:
Section |  min time  |  avg time  |  max time  |%varavg| %total
---------------------------------------------------------------
Pair    | 64.963     | 66.118     | 68.393     |  13.6 | 80.86
Neigh   | 4.888      | 4.9107     | 4.9516     |   1.0 |  6.01
Comm    | 5.8435     | 8.1663     | 9.3712     |  39.3 |  9.99
Output  | 0.15992    | 0.16069    | 0.16416    |   0.4 |  0.20
Modify  | 1.742      | 1.774      | 1.7931     |   1.4 |  2.17
Other   |            | 0.6412     |            |       |  0.78

Nlocal:        695.833 ave         703 max         690 min
Histogram: 3 0 0 0 0 0 1 0 1 1
Nghost:        1469.83 ave        1484 max        1433 min
Histogram: 1 0 0 0 0 1 0 0 1 3
Neighs:        0.00000 ave           0 max           0 min
Histogram: 6 0 0 0 0 0 0 0 0 0
FullNghs:      19267.0 ave       19615 max       19037 min
Histogram: 2 1 0 0 1 0 0 1 0 1

Total # of neighbors = 115602
Ave neighs/atom = 27.689102
Neighbor list builds = 5251
Dangerous builds = 0

undump              1
unfix               2
unfix               3
unfix               4


################################################
#######         Run Simulation         #########
################################################

reset_timestep      0
log                 log.run_${NAME}
log                 log.run_liquid_density_MLmW
