
# Set production fixes - Nose/Hoover
#
fix                 2 all nph iso ${PRES} ${PRES} ${PCOUPL}
fix                 2 all nph iso 1 ${PRES} ${PCOUPL}
fix                 2 all nph iso 1 1 ${PCOUPL}
fix                 2 all nph iso 1 1 10000.0
fix                 3 all temp/csvr ${TEMP} ${TEMP} ${TCOUPL} 837492
fix                 3 all temp/csvr 230 ${TEMP} ${TCOUPL} 837492
fix                 3 all temp/csvr 230 230 ${TCOUPL} 837492
fix                 3 all temp/csvr 230 230 5000.0 837492

# Define Order parameter
#
compute             2 all orientorder/atom nnn NULL cutoff 3.5
thermo              1000
thermo_style        custom step temp press vol etotal ke pe c_1[4]

# Run 0.5ns simulation
dump		    1 all custom 1000 prod.${NAME}.dump id type x y z vx vy vz c_2[*]
dump		    1 all custom 1000 prod.ice_230K_1atm_ML_npt.dump id type x y z vx vy vz c_2[*]
run                 100000
Neighbor list info ...
  update every 1 steps, delay 0 steps, check yes
  max neighbors/atom: 2000, page size: 100000
  master list distance cutoff = 6.00329
  ghost atom cutoff = 6.00329
  binsize = 3.00165, bins = 17 17 17
  2 neighbor lists, perpetual/occasional/extra = 1 1 0
  (1) pair sw, perpetual
      attributes: full, newton on
      pair build: full/bin/atomonly
      stencil: full/bin/3d
      bin: standard
  (2) compute orientorder/atom, occasional, copy from (1)
      attributes: full, newton on
      pair build: copy
      stencil: none
      bin: none
Per MPI rank memory allocation (min/avg/max) = 5.766 | 5.767 | 5.767 Mbytes
Step Temp Press Volume TotEng KinEng PotEng c_1[4] 
       0    233.88025    124.30223    113774.83   -36609.092    2854.8398   -39463.932    168.16803 
    1000    225.85997   -461.70075    114090.57   -36641.818     2756.941   -39398.759    177.81527 
    2000    231.57181    696.36235    113495.19   -36627.249    2826.6621   -39453.911     184.4652 
    3000    227.70776    105.91729    113692.34   -36677.605    2779.4959     -39457.1    189.06472 
    4000    226.33787    134.96657     113947.9   -36647.696    2762.7744   -39410.471    198.95949 
    5000    228.16139    90.455837    113879.27   -36620.151    2785.0331   -39405.184    205.73892 
    6000    234.93491   -538.79628    113652.85   -36566.658    2867.7135   -39434.372    212.89707 
    7000    231.79664   -511.41714    114236.06   -36595.015    2829.4065   -39424.422    220.78443 
    8000    229.59077    375.39785    114176.53   -36550.946    2802.4807   -39353.427    227.07937 
    9000    232.33716   -14.877565    114297.17   -36503.937    2836.0043   -39339.941    237.52526 
   10000    233.34395    440.05262    114082.37   -36523.043    2848.2936   -39371.337     243.1565 
   11000    232.08827    272.05109    114414.15   -36539.977    2832.9662   -39372.943    249.41704 
   12000    229.96781    177.60464    113668.98   -36603.101     2807.083   -39410.184    255.96651 
   13000     231.0554    453.51414    113745.07   -36571.086    2820.3586   -39391.445    265.47285 
   14000    228.53654   -18.580153    114508.03   -36569.084    2789.6124   -39358.696    274.79926 
   15000    227.53043   -205.58645    114263.43   -36627.718    2777.3314   -39405.049    283.11327 
   16000    229.33204    301.20046    113679.06   -36659.912    2799.3226   -39459.234    291.14101 
   17000    231.44084   -376.84039    114197.35   -36620.452    2825.0634   -39445.515    299.17092 
   18000    228.99777   -539.38089    114257.37    -36711.05    2795.2423   -39506.292    304.47098 
   19000    223.23376    182.87469    114333.21   -36684.442    2724.8843   -39409.326    313.14538 
   20000    230.16495   -102.71523    114145.89   -36674.004    2809.4894   -39483.494    319.95103 
   21000    227.24543    254.42274    113730.42   -36678.652    2773.8525   -39452.505     326.9949 
   22000    227.24085   -371.08287    114269.36   -36614.395    2773.7966   -39388.192    336.92468 
   23000    231.78994    263.14653    114084.88    -36603.73    2829.3247   -39433.055    345.78104 
   24000    229.48674   -325.85148    114567.38   -36586.026    2801.2109   -39387.237     353.7022 
   25000    232.48096    265.52245    114195.71   -36527.835    2837.7596   -39365.595    361.87538 
   26000    230.08158   -629.05226     113795.5   -36585.789    2808.4718    -39394.26    373.95215 
   27000    225.48867    53.918873    114269.71   -36629.033    2752.4088   -39381.442    381.53389 
   28000    232.78348     126.6169    114121.21   -36585.517    2841.4523    -39426.97    387.18278 
   29000    223.03026   -231.38719    114298.45   -36647.757    2722.4004   -39370.157    394.83777 
   30000    232.74304   -120.75035    113906.01   -36589.217    2840.9587   -39430.176    400.80868 
   31000    230.98048    118.68973    114031.02   -36565.157    2819.4441   -39384.601    409.78526 
   32000    231.57677    70.115866    113621.35    -36560.18    2826.7227   -39386.903    415.33376 
   33000     228.0096   -415.02382     114522.1    -36559.43    2783.1803    -39342.61    424.86322 
   34000    229.53457    42.236083    113972.54   -36524.063    2801.7947   -39325.858    431.67857 
   35000    225.57984    25.185817    114219.62   -36618.319    2753.5217    -39371.84    442.80526 
   36000    231.06323    148.36379     114161.8    -36586.72    2820.4541   -39407.174    448.61877 
   37000    230.30941    80.956785    113683.95   -36622.981    2811.2528   -39434.234    456.95424 
   38000    230.92365    496.41513    113637.44   -36631.238    2818.7504   -39449.988    462.86388 
   39000    228.79978   -79.219562    114114.72   -36654.112    2792.8255   -39446.938    471.84052 
   40000    227.82388   -512.36334    113696.32   -36713.561    2780.9133   -39494.475    480.29899 
   41000    227.43898   -44.035094     113667.6   -36706.226    2776.2151   -39482.441    486.98011 
   42000    230.41801   -286.09005    113634.71   -36682.288    2812.5784   -39494.866    495.23829 
   43000    226.72109    420.15214    113480.31   -36735.592    2767.4522   -39503.044    502.70969 
   44000    227.09345    305.90331    113604.54    -36717.65    2771.9974   -39489.647    509.95744 
   45000    225.42648    266.96196    113819.56    -36683.99    2751.6497   -39435.639    519.51273 
   46000    229.51806   -189.49329    113911.81    -36703.59    2801.5932   -39505.183     527.4844 
   47000    229.42179    37.097022    114195.86   -36669.389    2800.4181   -39469.808    537.53865 
   48000     229.7213   -15.877686     114449.8   -36544.685     2804.074   -39348.759    548.09653 
   49000    233.42897   -55.741229    114063.76   -36486.037    2849.3314   -39335.368     554.8673 
   50000    229.24608    62.728054    114205.13   -36523.891    2798.2733   -39322.164    564.55128 
   51000     233.3638    288.83605    114463.78   -36529.935    2848.5358   -39378.471    570.08121 
   52000    232.94156    56.851546    114606.23   -36484.196    2843.3819   -39327.577    575.65738 
   53000    234.13662    158.00765    114372.42   -36487.074    2857.9692   -39345.043    582.80569 
   54000    231.01653   -77.718646    114345.31   -36524.071    2819.8841   -39343.955    591.87678 
   55000    232.40317    339.45515    113935.85   -36511.563    2836.8101   -39348.373    595.80759 
   56000    232.15557      21.7238    113892.59   -36550.681    2833.7877   -39384.468    603.32991 
   57000    226.14036   -515.05127    114566.22   -36547.671    2760.3636   -39308.034    614.30643 
   58000    233.23667   -367.73685     114000.1   -36588.382    2846.9841   -39435.366    620.93019 
   59000    227.21985    266.45819    113815.07     -36647.9    2773.5403    -39421.44    626.41567 
   60000      231.283    -158.4147    113887.53   -36592.503    2823.1368    -39415.64    634.56101 
   61000    233.90317   -666.82452    114451.14   -36562.483    2855.1197   -39417.603    644.65273 
   62000    233.42332   -456.37668    114052.09   -36561.925    2849.2624   -39411.188    651.94344 
   63000    234.03564   -112.69824    114310.69   -36517.695    2856.7366   -39374.432    659.47699 
   64000    233.35639    340.89666    114036.76    -36484.75    2848.4455   -39333.195    661.11591 
   65000    237.51091   -241.88053       113890   -36532.974    2899.1572   -39432.132    669.35629 
   66000    234.62887    99.362829    114239.55   -36559.756    2863.9779   -39423.734    679.59874 
   67000    230.48872   -147.93515    113872.72   -36595.767    2813.4415   -39409.208    686.23848 
   68000    230.36428   -587.71159    114173.21   -36569.017    2811.9225   -39380.939    696.43171 
   69000    231.96386    -416.8906    114144.85   -36577.811    2831.4476   -39409.259    702.64067 
   70000    233.98808   -351.86361     114237.3   -36563.507    2856.1561   -39419.663    710.26659 
   71000    227.70339    792.91929    113750.92   -36593.252    2779.4425   -39372.695    717.43216 
   72000     228.1122     405.3765    113796.81   -36605.377    2784.4326    -39389.81    727.39782 
   73000    227.22361   -46.244062    114324.57   -36636.587    2773.5862   -39410.173     732.7129 
   74000    227.31085   -743.25226    114002.57   -36660.393    2774.6511   -39435.044    740.10445 
   75000    225.05885    155.27538    114144.89   -36639.383    2747.1623   -39386.545     748.8147 
   76000    233.25241    510.93225    114034.95   -36568.526    2847.1763   -39415.702    761.12933 
   77000    233.90251   -72.976314    114179.02   -36551.215    2855.1116   -39406.327    769.82608 
   78000    227.66846   -321.57411    114574.42   -36586.681    2779.0163   -39365.697    777.13471 
   79000    229.82352   -419.86076    114109.42   -36588.359    2805.3218   -39393.681    782.97866 
   80000    229.10386   -136.34774    114298.58   -36556.737    2796.5373   -39353.274    792.53016 
   81000    232.16313   -105.11188    113798.25   -36535.971      2833.88   -39369.851    795.56346 
   82000    229.08213   -448.52023    114568.58    -36493.23    2796.2721   -39289.502    810.09146 
   83000    230.49102   -91.265619       113856   -36576.649    2813.4695   -39390.119    813.68167 
   84000    229.74142   -77.404488    114554.62   -36587.093    2804.3197   -39391.413    825.43039 
   85000    232.69963    -84.06492    114182.75   -36552.947    2840.4288   -39393.376    830.13112 
   86000     232.7846   -247.96126    114310.45   -36493.114     2841.466    -39334.58    835.60496 
   87000     232.3296    8.1014575    114546.77   -36529.297     2835.912   -39365.209    847.35335 
   88000    231.66128   -26.231873    114060.49    -36507.04    2827.7542   -39334.794    851.75836 
   89000    232.71362   -442.82022     114111.6    -36539.94    2840.5996    -39380.54    860.49981 
   90000    228.26011    332.70958    114299.73   -36557.359    2786.2381   -39343.597    864.59742 
   91000    229.14542    214.98147    114337.53   -36617.823    2797.0446   -39414.868    872.68718 
   92000    231.80965   -408.63423    114106.44   -36629.476    2829.5652   -39459.041    879.50451 
   93000    231.67612    46.814189    113771.91   -36585.837    2827.9354   -39413.773    887.09665 
   94000    233.10952    654.59542    113707.54   -36584.626    2845.4321   -39430.058    892.47073 
   95000    227.50709    139.13638    113625.07   -36673.164    2777.0465   -39450.211    897.80685 
   96000    229.13961      179.415    114099.45    -36626.45    2796.9736   -39423.424    907.93774 
   97000    228.00548   -196.86902    113755.93   -36686.909      2783.13   -39470.039    913.66028 
   98000    228.75435   -653.10472    114220.44   -36590.095     2792.271   -39382.366    925.45758 
   99000    227.16332   -613.64989    114509.18    -36551.03    2772.8502    -39323.88    932.67888 
  100000    231.14257    359.02396    113694.04   -36670.987    2821.4226   -39492.409     935.5644 
Loop time of 160.541 on 12 procs for 100000 steps with 4096 atoms

Performance: 269.090 ns/day, 0.089 hours/ns, 622.893 timesteps/s
99.8% CPU use with 12 MPI tasks x no OpenMP threads

MPI task timing breakdown:
Section |  min time  |  avg time  |  max time  |%varavg| %total
---------------------------------------------------------------
Pair    | 139.82     | 141.75     | 142.81     |   8.0 | 88.29
Neigh   | 3.3562     | 3.3843     | 3.4292     |   1.2 |  2.11
Comm    | 9.7326     | 10.882     | 12.754     |  28.1 |  6.78
Output  | 0.71962    | 0.72054    | 0.73055    |   0.4 |  0.45
Modify  | 3.0348     | 3.2703     | 3.3573     |   5.8 |  2.04
Other   |            | 0.5349     |            |       |  0.33

Nlocal:    341.333 ave 349 max 335 min
Histogram: 2 1 1 2 1 2 0 0 1 2
Nghost:    987.833 ave 1000 max 975 min
Histogram: 1 0 1 2 1 3 1 1 1 1
Neighs:    0 ave 0 max 0 min
Histogram: 12 0 0 0 0 0 0 0 0 0
FullNghs:  10785 ave 11139 max 10574 min
Histogram: 5 1 0 1 1 1 0 0 1 2

Total # of neighbors = 129420
Ave neighs/atom = 31.5967
Neighbor list builds = 6163
Dangerous builds = 0
Total wall time: 0:03:11
