
# Define the lattice
#
variable	    lattice_constant equal 6.36339
lattice		    diamond ${lattice_constant}
lattice		    diamond 6.36339
Lattice spacing in x,y,z = 6.36339 6.36339 6.36339

# Define region
# multiples of lattice spacing
#
region 		    simbox block 0 8 0 8 0 8

# Create Atoms
#
create_box          1 simbox
Created orthogonal box = (0 0 0) to (50.9071 50.9071 50.9071)
  2 by 2 by 3 MPI processor grid
create_atoms        1 box
Created 4096 atoms
  create_atoms CPU = 0.000338078 secs
mass                1 18.015

# Define potential
#
pair_style          sw
pair_coeff          * * MLmW_metal.sw mW
Reading potential file MLmW_metal.sw with DATE: 2019-02-27

# Add velocity/set timestep
#
velocity            all create ${TEMP} 120598 rot yes dist gaussian
velocity            all create 230 120598 rot yes dist gaussian
timestep            0.005

# Define output
#
compute	            1 all msd
thermo              50
thermo_style        custom step temp press vol etotal ke pe c_1[4]

# Neighbor lists
#
neigh_modify        delay 0 every 1 check yes

# Set fixes
#
fix                 1 all momentum 10 linear 1 1 1 rescale
fix                 2 all npt temp ${TEMP} ${TEMP} ${TDAMP} iso ${PRES} ${PRES} ${PDAMP}
fix                 2 all npt temp 230 ${TEMP} ${TDAMP} iso ${PRES} ${PRES} ${PDAMP}
fix                 2 all npt temp 230 230 ${TDAMP} iso ${PRES} ${PRES} ${PDAMP}
fix                 2 all npt temp 230 230 1000.0 iso ${PRES} ${PRES} ${PDAMP}
fix                 2 all npt temp 230 230 1000.0 iso 1 ${PRES} ${PDAMP}
fix                 2 all npt temp 230 230 1000.0 iso 1 1 ${PDAMP}
fix                 2 all npt temp 230 230 1000.0 iso 1 1 2500.0

# Run 1 ns equilibration
#
dump		    1 all custom 1000 eq.${NAME}.dump id type x y z vx vy vz
dump		    1 all custom 1000 eq.ice_230K_1atm_ML_metal.dump id type x y z vx vy vz
run                 200000
Neighbor list info ...
  update every 1 steps, delay 0 steps, check yes
  max neighbors/atom: 2000, page size: 100000
  master list distance cutoff = 6.00329
  ghost atom cutoff = 6.00329
  binsize = 3.00165, bins = 17 17 17
  1 neighbor lists, perpetual/occasional/extra = 1 0 0
  (1) pair sw, perpetual
      attributes: full, newton on
      pair build: full/bin/atomonly
      stencil: full/bin/3d
      bin: standard
Per MPI rank memory allocation (min/avg/max) = 4.742 | 4.742 | 4.742 Mbytes
Step Temp Press Volume TotEng KinEng PotEng c_1[4] 
       0          230    15673.818    131927.58   -1524.5025    121.74367   -1646.2461            0 
      50    124.73452    7285.2439     131927.6   -1523.9624    66.024515   -1589.9869   0.45466358 
     100    180.53312   -1933.6041    131927.66   -1523.9938    95.559843   -1619.5537    1.2073039 
     150    192.39012   -4188.5597    131927.71   -1523.9991    101.83599   -1625.8351    1.7465539 
     200    195.29663   -4380.8853    131927.75   -1524.0018    103.37447   -1627.3763    2.2793753 
     250    197.92716   -4093.0174    131927.77   -1524.0123    104.76686   -1628.7792     2.802544 
     300    201.92841   -3556.9837    131927.77    -1524.006    106.88481   -1630.8908    3.3733472 
     350    208.22458   -3520.5932    131927.76   -1524.0154    110.21749   -1634.2329    3.9470613 
     400    209.00327   -2597.8254    131927.74   -1524.0143    110.62967    -1634.644    4.6131038 
     450    217.55604   -2452.0581     131927.7   -1524.0261    115.15683    -1639.183    5.2895059 
     500    229.07117   -2425.2117    131927.65   -1524.0377    121.25202   -1645.2897    6.0468802 
     550     231.4126   -2153.2715     131927.6   -1524.0291    122.49138   -1646.5205    6.8593146 
     600    235.86398   -1627.0396    131927.54   -1524.0408    124.84759   -1648.8884    7.6640959 
     650    236.68484   -1557.6044    131927.47   -1524.0372    125.28209   -1649.3192    8.4380844 
     700     243.5426   -1273.4297    131927.39   -1524.0541    128.91204   -1652.9661    9.1720902 
     750     240.3247   -1090.4105    131927.31   -1524.0401    127.20874   -1651.2488    9.8576487 
     800    245.02139   -1357.1498    131927.22   -1524.0395     129.6948   -1653.7343    10.633374 
     850    246.44774   -680.34895    131927.13     -1524.04    130.44979   -1654.4898    11.381148 
     900    247.27965   -655.27684    131927.04   -1524.0446    130.89014   -1654.9347    12.079416 
     950    242.94185   -1270.7005    131926.95   -1524.0375    128.59405   -1652.6315    12.736949 
    1000    248.38874   -1082.2528    131926.85   -1524.0477     131.4772   -1655.5249    13.472589 
    1050    248.19137   -572.82171    131926.75   -1524.0415    131.37273   -1655.4142     14.22585 
    1100    248.91703   -1063.3731    131926.64   -1524.0457    131.75683   -1655.8025    14.973423 
    1150     249.3974   -783.66277    131926.53   -1524.0501    132.01111   -1656.0612    15.566733 
    1200    246.91958   -997.14473    131926.42   -1524.0406    130.69954   -1654.7401    16.260054 
    1250    249.83158   -1205.2617    131926.31   -1524.0472    132.24093   -1656.2882    16.996262 
    1300    247.38903   -598.12069    131926.19   -1524.0385    130.94803   -1654.9865    17.722008 
    1350    250.72695   -816.72447    131926.07   -1524.0568    132.71486   -1656.7716    18.352871 
    1400    250.18291   -906.13868    131925.94   -1524.0501    132.42689   -1656.4769    18.895983 
    1450    253.23875   -727.16958    131925.81    -1524.063    134.04441   -1658.1074    19.614008 
    1500    248.78156   -415.96744    131925.68   -1524.0449    131.68513     -1655.73    20.264296 
    1550    249.79944   -803.38183    131925.55   -1524.0504    132.22391   -1656.2743    21.028842 
    1600    250.72602    233.57654    131925.41   -1524.0415    132.71437   -1656.7558    21.799395 
    1650    253.68453   -735.15516    131925.27   -1524.0398    134.28037   -1658.3201     22.45528 
    1700    252.41866   -579.72898    131925.13   -1524.0497    133.61032     -1657.66    23.143242 
    1750    248.79753   -642.76117    131924.98   -1524.0441    131.69358   -1655.7377    23.773759 
    1800     251.9386   -739.78655    131924.84   -1524.0464    133.35621   -1657.4026     24.56294 
    1850    248.10137   -1219.3685    131924.68   -1524.0524    131.32509   -1655.3775    25.461323 
    1900    253.16942   -929.42561    131924.53   -1524.0593    134.00771    -1658.067    26.228922 
    1950    251.37891   -1089.6632    131924.37    -1524.054    133.05996    -1657.114    26.963026 
    2000    248.97172    -399.7941    131924.21   -1524.0575    131.78578   -1655.8433    27.548197 
    2050    251.03652   -739.88467    131924.04   -1524.0487    132.87873   -1656.9275    28.242753 
    2100    247.63899   -590.97525    131923.88   -1524.0402    131.08034   -1655.1205    28.917473 
    2150    251.75391   -512.98818    131923.71   -1524.0505    133.25845    -1657.309    29.644349 
    2200    246.01388   -383.11248    131923.54   -1524.0413    130.22014   -1654.2614    30.560601 
    2250     250.2299   -658.74837    131923.36   -1524.0491    132.45177   -1656.5009    31.436474 
    2300    249.30708   -952.37448    131923.19   -1524.0407     131.9633    -1656.004    32.303918 
    2350    252.70747    -458.8358    131923.01   -1524.0574    133.76319   -1657.8206    33.054928 
    2400    252.61829   -184.64142    131922.83    -1524.048    133.71599   -1657.7639    33.795098 
    2450    252.81253   -786.39614    131922.64   -1524.0579     133.8188   -1657.8767    34.601194 
    2500    246.19083   -503.33863    131922.46   -1524.0302     130.3138    -1654.344    35.399971 
    2550    252.11736   -520.02963    131922.27    -1524.052    133.45084   -1657.5028    36.218594 
    2600    252.61854   -489.05997    131922.08   -1524.0568    133.71612   -1657.7729    36.893909 
    2650    251.30442   -313.14864    131921.88   -1524.0415    133.02053    -1657.062    37.597557 
    2700    253.23915   -919.92357    131921.69   -1524.0489    134.04462   -1658.0936     38.39017 
    2750    256.40316   -401.83846    131921.49   -1524.0674     135.7194   -1659.7868    39.037045 
    2800    253.83744   -459.52247    131921.29   -1524.0627    134.36131    -1658.424     39.53256 
    2850    255.27521   -830.63064    131921.09   -1524.0609    135.12235   -1659.1832    40.028013 
    2900    257.04243   -422.69573    131920.88   -1524.0629    136.05778   -1660.1207    40.539501 
    2950    254.21915   -197.98577    131920.67   -1524.0551    134.56336   -1658.6184    41.101616 
    3000    257.43549   -785.32046    131920.46   -1524.0617    136.26583   -1660.3276    41.934675 
    3050     255.6483   -946.13829    131920.25   -1524.0492    135.31983    -1659.369    42.561998 
    3100    254.94452   -733.34961    131920.04   -1524.0543    134.94731   -1659.0017    43.269638 
    3150    257.55473   -480.43003    131919.83   -1524.0534    136.32894   -1660.3824    43.822276 
    3200    258.15866   -185.30283    131919.61   -1524.0494    136.64862   -1660.6981    44.404498 
    3250    256.56263   -453.95795    131919.39   -1524.0569    135.80381   -1659.8607    45.393847 
    3300    254.88031   -135.74505    131919.17   -1524.0566    134.91332   -1658.9699    46.135688 
    3350     252.3476   -448.42724    131918.95   -1524.0463    133.57271    -1657.619    46.935023 
    3400    251.33875   -911.76071    131918.72   -1524.0511     133.0387   -1657.0898    47.815538 
    3450    255.34341   -589.61807     131918.5   -1524.0545    135.15845   -1659.2129    48.518855 
    3500    253.22804   -500.70255    131918.27   -1524.0515    134.03874   -1658.0902    49.256887 
    3550    255.22291    158.78544    131918.04   -1524.0627    135.09466   -1659.1574     50.07391 
    3600    258.35913   -140.67648    131917.81    -1524.062    136.75473   -1660.8167    50.815969 
    3650    256.44864   -530.43818    131917.57   -1524.0628    135.74347   -1659.8063    51.531243 
    3700    256.35876   -950.56994    131917.34   -1524.0594     135.6959   -1659.7552    52.179544 
    3750    255.14158    -1025.388     131917.1   -1524.0629    135.05162   -1659.1145    52.871203 
    3800     254.6138   -592.72218    131916.86    -1524.057    134.77225   -1658.8292    53.741274 
    3850    252.77179    -490.8754    131916.62   -1524.0627    133.79724   -1657.8599    54.695618 
    3900    255.55681   -724.84064    131916.37   -1524.0564    135.27141   -1659.3278    55.487861 
    3950    252.79552   -497.92084    131916.13   -1524.0573     133.8098   -1657.8671    56.267899 
    4000    255.69074   -463.30431    131915.88   -1524.0549     135.3423   -1659.3972    57.243769 
    4050    255.41807   -419.68955    131915.63   -1524.0655    135.19797   -1659.2634    58.033617 
    4100    256.51571   -896.57302    131915.37   -1524.0585    135.77897   -1659.8374     58.84237 
    4150    255.33497   -811.01503    131915.12   -1524.0575    135.15398   -1659.2115    59.617425 
    4200    253.89578    -485.1343    131914.86    -1524.053    134.39219   -1658.4452    60.344307 
    4250    254.63747   -19.597733     131914.6   -1524.0514    134.78478   -1658.8362    61.021451 
    4300    259.00079   -532.93879    131914.34   -1524.0698    137.09437   -1661.1642    61.734677 
    4350     254.4557    -335.8176    131914.08   -1524.0511    134.68856   -1658.7397    62.712589 
    4400    256.73778   -608.32039    131913.81   -1524.0613    135.89652   -1659.9579    63.661094 
    4450    254.73244   -496.67913    131913.55   -1524.0635    134.83505   -1658.8986    64.271751 
    4500    255.96016   -319.24266    131913.28   -1524.0629     135.4849   -1659.5478    64.884704 
    4550    258.35878   -822.38178    131913.01   -1524.0702    136.75455   -1660.8247    65.680183 
    4600    258.66253   -483.31755    131912.73   -1524.0688    136.91533   -1660.9841    66.441948 
    4650    254.70893   -455.20176    131912.46   -1524.0614    134.82261   -1658.8841    67.217328 
    4700    259.14592    -889.4064    131912.18    -1524.059    137.17119   -1661.2302    67.790578 
    4750    252.91482   -535.71406     131911.9   -1524.0475    133.87295   -1657.9205    68.219844 
    4800    257.00427   -931.78316    131911.62   -1524.0621    136.03757   -1660.0997    68.784145 
    4850    252.32274   -821.06996    131911.33   -1524.0585    133.55955   -1657.6181    69.595206 
    4900    256.07176   -209.23604    131911.04    -1524.057    135.54398    -1659.601    70.366736 
    4950    258.45672   -856.27323    131910.75   -1524.0642    136.80639   -1660.8706     71.03814 
    5000    254.64904   -676.10894    131910.46   -1524.0723    134.79091   -1658.8632    71.911814 
    5050    256.69201   -481.70485    131910.17   -1524.0618    135.87229   -1659.9341    72.819708 
    5100     260.4163   -341.00999    131909.87   -1524.0725    137.84363   -1661.9162    73.716085 
    5150    261.97745   -624.50572    131909.57   -1524.0736    138.66998   -1662.7436    74.527485 
    5200    259.58445    -495.2716    131909.27   -1524.0611    137.40332   -1661.4644     75.17719 
    5250     257.7016   -20.780446    131908.97   -1524.0646    136.40669   -1660.4713    75.839558 
    5300    257.78636    83.663779    131908.67   -1524.0548    136.45155   -1660.5064     76.50608 
    5350    264.33925   -889.72139    131908.37   -1524.0636    139.92013   -1663.9837    77.100533 
    5400     257.7737    41.661346    131908.06   -1524.0637    136.44485   -1660.5085    77.572042 
    5450    260.03895   -850.89787    131907.76   -1524.0591    137.64389    -1661.703    78.367708 
    5500    255.55105    143.49577    131907.45   -1524.0611    135.26836   -1659.3295    79.086421 
    5550    259.97613    250.66141    131907.15   -1524.0557    137.61064   -1661.6664    80.306729 
    5600    261.66087   -442.90922    131906.84   -1524.0645    138.50241   -1662.5669    81.021333 
    5650    259.35753   -431.19935    131906.53   -1524.0596     137.2832   -1661.3428    81.729265 
    5700     256.8939   -156.08292    131906.22   -1524.0668    135.97915    -1660.046    82.386814 
    5750    260.64709   -281.92832    131905.91   -1524.0801     137.9658   -1662.0459    83.243298 
    5800    260.08022   -464.54701     131905.6   -1524.0631    137.66574   -1661.7288    84.141113 
    5850    264.34876   -547.47283    131905.28   -1524.0662    139.92516   -1663.9913    85.072439 
    5900    260.78021   -260.15325    131904.97   -1524.0605    138.03626   -1662.0968    85.907301 
    5950    260.99714     45.21887    131904.65   -1524.0677    138.15108   -1662.2187    86.571038 
    6000    260.95899    -626.2032    131904.33   -1524.0595    138.13089   -1662.1904    86.962511 
    6050    263.27177   -778.51786    131904.02   -1524.0801    139.35509   -1663.4352    87.536481 
    6100    259.26349   -246.42796     131903.7   -1524.0626    137.23342    -1661.296    88.263753 
    6150    267.18426    -315.7296    131903.38   -1524.0795    141.42605   -1665.5056    88.891216 
    6200    266.79404   -559.34422    131903.05   -1524.0752     141.2195   -1665.2947    89.668871 
    6250    262.86112   -193.53027    131902.73   -1524.0703    139.13772    -1663.208    90.255519 
    6300    262.92726    303.26752    131902.41   -1524.0733    139.17274    -1663.246     90.66286 
    6350    260.82204    -210.0411    131902.08   -1524.0697     138.0584   -1662.1281    91.302649 
    6400    264.14813    304.96943    131901.76   -1524.0746    139.81896   -1663.8936     92.11402 
    6450    259.29351    211.86627    131901.43   -1524.0682    137.24932   -1661.3175    92.704284 
    6500    263.37578   -921.89725     131901.1   -1524.0744    139.41014   -1663.4846    93.240595 
    6550    264.91248   -351.22976    131900.77   -1524.0744    140.22355    -1664.298    93.780736 
    6600    264.33164    18.704504    131900.44   -1524.0838     139.9161   -1663.9999    94.428557 
    6650     259.3944   -1010.6597    131900.12   -1524.0689    137.30272   -1661.3716    95.024593 
    6700    258.94334   -112.43249    131899.79   -1524.0659    137.06396   -1661.1299    95.430534 
    6750    261.02946   -118.30154    131899.45   -1524.0805    138.16819   -1662.2487    95.806311 
    6800    255.86795   -69.581001    131899.12   -1524.0614     135.4361   -1659.4975    96.213769 
    6850    263.00875   -292.06992    131898.79   -1524.0753    139.21587   -1663.2911    96.939581 
    6900     257.2999   -169.69552    131898.46   -1524.0643    136.19406   -1660.2584    97.641919 
    6950    264.55016   -291.46077    131898.12   -1524.0791    140.03177   -1664.1109     98.11708 
    7000    260.43425   -685.18011    131897.78   -1524.0727    137.85314   -1661.9259    98.961387 
    7050    260.92503   -763.81221    131897.45   -1524.0732    138.11291   -1662.1861    99.957206 
    7100    261.69403    15.282792    131897.11   -1524.0736    138.51996   -1662.5935    100.51348 
    7150    260.88274   -171.27174    131896.76   -1524.0743    138.09053   -1662.1648    101.37135 
    7200    254.52449   -254.91511    131896.42   -1524.0615    134.72498   -1658.7865    102.15456 
    7250    258.40158    -897.6684    131896.08   -1524.0663     136.7772   -1660.8435    102.91225 
    7300    256.48513    -643.3694    131895.73   -1524.0659    135.76279   -1659.8287    103.94889 
    7350    255.43263     -44.1364    131895.38   -1524.0593    135.20567    -1659.265    104.80982 
    7400    258.16537   -580.21327    131895.03   -1524.0752    136.65217   -1660.7274    105.64644 
    7450    258.64197    -245.8401    131894.68   -1524.0767    136.90444   -1660.9811    106.39416 
    7500    255.09176    76.051724    131894.32   -1524.0634    135.02524   -1659.0887    107.11412 
    7550    255.93001   -565.71425    131893.97   -1524.0683    135.46895   -1659.5373    107.79009 
    7600    260.88479   -701.74022    131893.61   -1524.0756    138.09161   -1662.1673    108.35874 
    7650    256.38923   -315.34745    131893.26   -1524.0612    135.71202   -1659.7733    109.03289 
    7700    261.69016   -623.15609     131892.9   -1524.0726    138.51791   -1662.5905    109.70425 
    7750    262.37033   -731.75668    131892.54   -1524.0791    138.87794   -1662.9571    110.07942 
    7800    261.26795   -217.59506    131892.18   -1524.0804    138.29443   -1662.3748    110.64967 
    7850    260.64824   -172.96637    131891.81   -1524.0715     137.9664   -1662.0379    111.29348 
    7900    259.70793   -186.45593    131891.45   -1524.0807    137.46868   -1661.5493    111.79981 
    7950    262.74123    61.579076    131891.09   -1524.0714    139.07426   -1663.1457    112.12344 
    8000     262.6818   -99.728656    131890.72   -1524.0792    139.04281    -1663.122    112.75353 
    8050    253.59028   -483.30939    131890.36   -1524.0534    134.23048   -1658.2839    113.24258 
    8100     257.3051   -594.82234    131889.99   -1524.0795    136.19681   -1660.2763    114.00321 
    8150    259.99143   -380.10085    131889.62   -1524.0779    137.61874   -1661.6966    114.93686 
    8200    260.56467     3.079312    131889.25    -1524.086    137.92217   -1662.0082    115.70512 
    8250    258.14741   -400.83822    131888.87   -1524.0806    136.64266   -1660.7232     116.3744 
    8300     257.4819    -599.6414     131888.5   -1524.0736     136.2904    -1660.364    116.91052 
    8350    260.33665   -408.08619    131888.12   -1524.0841    137.80147   -1661.8855    117.61925 
    8400    260.06779   -141.69754    131887.75   -1524.0826    137.65916   -1661.7418    118.29025 
    8450    256.40904   -283.79945    131887.37   -1524.0726    135.72251   -1659.7951    119.08712 
    8500    258.80497   -822.61268    131886.99   -1524.0817    136.99073   -1661.0724    119.58893 
    8550     260.1864   -1118.5181     131886.6   -1524.0722    137.72194   -1661.7942    120.14951 
    8600    262.36256   -305.86223    131886.22   -1524.0863    138.87383   -1662.9601    120.84784 
    8650    261.39494   -438.20145    131885.83   -1524.0915    138.36164   -1662.4532    121.28034 
    8700    261.67797   -374.04185    131885.44   -1524.0854    138.51146   -1662.5969    121.89332 
    8750    261.55386   -146.99837    131885.05   -1524.0882    138.44577   -1662.5339    122.80595 
    8800    264.17872   -248.73791    131884.66   -1524.0963    139.83516   -1663.9315    123.30501 
    8850    260.63925    38.652893    131884.27    -1524.081    137.96164   -1662.0427    123.85436 
    8900    258.58814   -371.31119    131883.87   -1524.0907    136.87595   -1660.9666     124.4263 
    8950    258.19578    15.571379    131883.48   -1524.0707    136.66827    -1660.739    125.06067 
    9000    256.63981    425.29527    131883.08   -1524.0945    135.84466   -1659.9392     125.8773 
    9050    257.82746   -618.15541    131882.69   -1524.0777    136.47331   -1660.5511    126.73058 
    9100    257.05146   -443.55007    131882.29   -1524.0731    136.06256   -1660.1356    127.81933 
    9150    259.20785   -123.57733    131881.89   -1524.0794    137.20397   -1661.2833    128.75103 
    9200     260.6825   -106.37744    131881.49   -1524.0756    137.98454   -1662.0602    129.78682 
    9250    261.61193   -106.65316    131881.09   -1524.0868     138.4765   -1662.5633    130.75206 
    9300    258.52329   -299.99327    131880.69   -1524.0854    136.84162    -1660.927    131.55497 
    9350    259.76545   -282.96751    131880.29    -1524.084    137.49912   -1661.5831     132.1419 
    9400    255.30302   -12.046048    131879.88   -1524.0857    135.13707   -1659.2227    132.99802 
    9450    258.73023   -358.09097    131879.48   -1524.0862    136.95116   -1661.0373    133.55298 
    9500    261.39447   -380.60667    131879.07    -1524.087     138.3614   -1662.4484    134.22002 
    9550    260.66784   -116.96035    131878.66   -1524.0966    137.97678   -1662.0734    134.48669 
    9600    261.93046    -451.8753    131878.25   -1524.0922    138.64511   -1662.7373      135.093 
    9650    262.36699    4.0229801    131877.84   -1524.0989    138.87617   -1662.9751    135.75465 
    9700    265.24929   -298.84731    131877.43    -1524.109    140.40183   -1664.5109     136.2964 
    9750    260.61864   -779.66438    131877.02   -1524.0987    137.95074   -1662.0494    136.81638 
    9800    261.38642   -275.83134     131876.6   -1524.0871    138.35713   -1662.4442    137.68284 
    9850    259.18967    21.836674    131876.19   -1524.0887    137.19435    -1661.283    138.41353 
    9900    263.92796   -517.61229    131875.77   -1524.1008    139.70243   -1663.8033    139.31752 
    9950    260.72176   -376.08852    131875.35   -1524.0928    138.00532   -1662.0981     140.1907 
   10000     258.0191   -100.41974    131874.94   -1524.0862    136.57474   -1660.6609     141.1283 
   10050     260.6891   -228.94353    131874.52   -1524.0942    137.98803   -1662.0823    142.07786 
   10100    260.53979   -959.26811     131874.1    -1524.088      137.909    -1661.997    142.42637 
   10150    261.36957    32.589989    131873.67   -1524.1021    138.34822   -1662.4503    143.02508 
   10200    258.38007   -513.51755    131873.25    -1524.096    136.76582   -1660.8618    143.29306 
   10250    260.86988   -583.52846    131872.83   -1524.0991    138.08372   -1662.1828     143.8057 
   10300    260.94948   -322.28926     131872.4   -1524.0961    138.12585    -1662.222    144.24609 
   10350    261.46018    -211.9077    131871.97   -1524.0924    138.39618   -1662.4886    144.44515 
   10400     257.5544   -291.63223    131871.54   -1524.0916    136.32877   -1660.4203    145.04564 
   10450     259.4823    98.224517    131871.11   -1524.0977    137.34925    -1661.447    145.54725 
   10500    257.33578   -729.14674    131870.68   -1524.0868    136.21305   -1660.2999    146.37097 
   10550    265.29817   -119.27751    131870.24   -1524.1098    140.42771   -1664.5375    147.21457 
   10600    260.82723   -592.26072    131869.81   -1524.0945    138.06114   -1662.1557    147.89467 
   10650     254.6693   -332.45152    131869.37   -1524.0815    134.80163   -1658.8831    148.42286 
   10700    258.67543   -454.22806    131868.93   -1524.1052    136.92215   -1661.0274    148.89893 
   10750    259.18882   -27.310057    131868.49   -1524.1135     137.1939   -1661.3074    149.59178 
   10800    262.53669     -491.823    131868.05   -1524.0961      138.966   -1663.0621    150.35639 
   10850    265.19513   -611.89848     131867.6   -1524.1109    140.37316    -1664.484    151.20516 
   10900    258.44947   -283.19338    131867.16   -1524.0938    136.80255   -1660.8964    152.20532 
   10950    263.31089   -458.44594    131866.71   -1524.1033     139.3758   -1663.4791    152.79185 
   11000    262.28103   -113.39966    131866.27   -1524.1047    138.83067   -1662.9354    153.56199 
   11050    264.18409   -145.59896    131865.82   -1524.1003      139.838   -1663.9383    154.00832 
   11100    260.15444    27.040751    131865.37   -1524.0989    137.70503   -1661.8039    154.64706 
   11150    258.97357   -363.26626    131864.92   -1524.1043    137.07997   -1661.1842    155.52248 
   11200    260.63865   -725.86529    131864.47   -1524.1034    137.96132   -1662.0647    156.15351 
   11250    261.40673    -169.8728    131864.02    -1524.117    138.36788   -1662.4849    156.86464 
   11300     259.5781    -268.8789    131863.56   -1524.1035    137.39996   -1661.5035    157.76868 
   11350    261.59684   -448.87462     131863.1   -1524.1145    138.46852    -1662.583    158.54961 
   11400    262.62703   -55.213074    131862.65   -1524.1066    139.01382   -1663.1205    159.17547 
   11450    258.41326   -351.24269    131862.19   -1524.0961    136.78338   -1660.8794    159.94115 
   11500    258.41298   -648.45411    131861.73   -1524.0959    136.78324   -1660.8791    160.44096 
   11550    257.32368    -551.1297    131861.27   -1524.1001    136.20665   -1660.3067    161.34118 
   11600    264.32698    -501.4889     131860.8   -1524.1101    139.91363   -1664.0238    162.10779 
   11650    259.78693   -281.13839    131860.34   -1524.1032     137.5105   -1661.6137     162.6171 
   11700    258.77503    53.995884    131859.87   -1524.1077    136.97488   -1661.0826    163.06228 
   11750    255.09977    204.00574    131859.41    -1524.101    135.02948   -1659.1305    163.75364 
   11800    261.96588   -502.74271    131858.94   -1524.1112    138.66385   -1662.7751    164.73044 
   11850     261.0801   -314.02388    131858.47   -1524.1064    138.19499   -1662.3014     165.4083 
   11900    256.32378   -629.66499       131858   -1524.1066    135.67738    -1659.784    166.17823 
   11950    262.05161   -533.88183    131857.53    -1524.105    138.70924   -1662.8142    166.81005 
   12000    257.26014   -123.19207    131857.06   -1524.0994    136.17301   -1660.2725    167.47605 
   12050    265.80246   -612.99646    131856.58   -1524.1164    140.69464    -1664.811     168.0021 
   12100    266.75594   -190.53835    131856.11   -1524.1236    141.19933   -1665.3229    168.65275 
   12150    261.11214   -342.99746    131855.63   -1524.1169    138.21196   -1662.3288    169.20643 
   12200    260.59976   -54.234991    131855.16   -1524.1133    137.94074    -1662.054    169.79917 
   12250     258.3812   -193.69755    131854.68   -1524.1073    136.76641   -1660.8737    170.61016 
   12300    260.45728   -135.93839    131854.21   -1524.1198    137.86533   -1661.9851    171.39018 
   12350    263.32766   -249.69534    131853.73    -1524.121    139.38468   -1663.5057    172.00151 
   12400    266.12841   -144.62635    131853.25   -1524.1227    140.86717   -1664.9899    172.56397 
   12450     257.9908   -303.07334    131852.77   -1524.1124    136.55976   -1660.6722    173.33271 
   12500     259.4623   -603.20456    131852.29   -1524.1205    137.33866   -1661.4592      174.458 
   12550     260.2228    -462.6253    131851.81   -1524.1216    137.74121   -1661.8628    174.95372 
   12600     266.8421    273.27255    131851.32     -1524.13    141.24494    -1665.375      175.767 
   12650     261.3907   -337.88386    131850.84   -1524.1305     138.3594   -1662.4899    176.56663 
   12700    259.09104    62.792043    131850.35   -1524.1178    137.14215     -1661.26    177.57712 
   12750    256.04992    244.59753    131849.87   -1524.1125    135.53242   -1659.6449     178.3672 
   12800    258.18071   -382.29305    131849.38   -1524.1198    136.66029   -1660.7801    178.76854 
   12850    256.71644    149.37882    131848.89   -1524.1147    135.88522   -1659.9999    179.23233 
   12900    260.33628   -521.66751     131848.4     -1524.13    137.80127   -1661.9313    179.81859 
   12950    259.71336   -53.201867    131847.91   -1524.1257    137.47155   -1661.5972    180.29413 
   13000    263.56348    -425.8329    131847.42   -1524.1325     139.5095    -1663.642    180.63977 
   13050    258.67643   -139.59099    131846.92   -1524.1243    136.92268    -1661.047    181.42661 
   13100    257.99172    65.391183    131846.43   -1524.1179    136.56025   -1660.6782    181.95989 
   13150    254.93321   -430.24965    131845.93   -1524.1174    134.94132   -1659.0587    182.39409 
   13200    257.88634   -343.21868    131845.43   -1524.1301    136.50448   -1660.6346    183.05723 
   13250     262.9588     -130.872    131844.93   -1524.1258    139.18943   -1663.3153    183.94602 
   13300    259.78481   -107.64096    131844.44   -1524.1197    137.50937    -1661.629    184.87772 
   13350    259.59245      -340.38    131843.94   -1524.1228    137.40755   -1661.5304    185.64873 
   13400    260.32307   -27.943931    131843.43   -1524.1318    137.79428   -1661.9261    186.29912 
   13450    260.26644    -382.9417    131842.93   -1524.1203    137.76431   -1661.8846    187.05713 
   13500    261.80855   -391.05022    131842.43   -1524.1392    138.58058   -1662.7198    187.63201 
   13550    260.18339   -133.35862    131841.92   -1524.1303    137.72035   -1661.8507    188.47431 
   13600    260.22032   -444.28528    131841.42   -1524.1327    137.73989   -1661.8726    188.73603 
   13650    262.50216   -700.50629    131840.91   -1524.1302    138.94772   -1663.0779    189.22878 
   13700       260.32   -348.90046     131840.4   -1524.1337    137.79266   -1661.9264    189.80964 
   13750    257.64075   -645.27903    131839.89   -1524.1246    136.37448   -1660.4991    190.41693 
   13800    259.02067   -346.45605    131839.38   -1524.1356    137.10489   -1661.2404    190.79362 
   13850    258.69306   -808.18604    131838.86   -1524.1302    136.93149   -1661.0617    191.35929 
   13900    263.75265    -474.3277    131838.35   -1524.1513    139.60963   -1663.7609    191.64989 
   13950     257.6781   -646.76062    131837.83   -1524.1311    136.39425   -1660.5253    192.00594 
   14000     258.9598    -332.4506    131837.31   -1524.1261    137.07268   -1661.1988    192.62147 
   14050    259.71725    164.11111    131836.79   -1524.1286    137.47361   -1661.6022    193.30505 
   14100    261.81939   -288.87061    131836.27    -1524.139    138.58632   -1662.7253    193.93849 
   14150    262.76522    -80.59584    131835.75   -1524.1353    139.08697   -1663.2223      194.595 
   14200    261.64663   -112.17505    131835.22   -1524.1353    138.49487   -1662.6302    195.56099 
   14250    259.94205   -693.28894     131834.7    -1524.132     137.5926   -1661.7246    196.86589 
   14300    256.26413    137.86904    131834.18   -1524.1396     135.6458   -1659.7854    197.93783 
   14350    265.40871   -202.05592    131833.65   -1524.1513    140.48622   -1664.6375     199.1483 
   14400    262.01194    -74.71495    131833.12   -1524.1405    138.68824   -1662.8287    200.10105 
   14450    260.39631   -356.12112     131832.6   -1524.1357    137.83305   -1661.9687    200.86405 
   14500    262.15277   -374.64032    131832.07   -1524.1451    138.76278   -1662.9079    201.68309 
   14550    265.47151   -376.88575    131831.54   -1524.1556    140.51946   -1664.6751    202.62155 
   14600    261.79782   -1003.2606    131831.01   -1524.1446     138.5749   -1662.7195    203.93829 
   14650    260.54912   -646.79057    131830.48   -1524.1586    137.91393   -1662.0725    205.00117 
   14700    260.86357   -102.04938    131829.94   -1524.1562    138.08038   -1662.2366    205.25752 
   14750    264.15263   -224.57927     131829.4   -1524.1588    139.82135   -1663.9802    206.04477 
   14800    262.82592   -197.25964    131828.86   -1524.1575    139.11909   -1663.2766    206.82355 
   14850    264.10448   -266.43251    131828.33   -1524.1705    139.79586   -1663.9664     207.7904 
   14900    259.34108   -47.305674    131827.79   -1524.1427     137.2745   -1661.4172    208.66932 
   14950    262.89318   -411.36908    131827.24   -1524.1515     139.1547   -1663.3062    209.54054 
   15000    259.11458   -503.97431     131826.7   -1524.1443    137.15461   -1661.2989     210.4531 
   15050      262.149   -366.82575    131826.16    -1524.156    138.76079   -1662.9168    211.45252 
   15100    260.28937   -330.07506    131825.61   -1524.1457    137.77645   -1661.9222    212.54766 
   15150     261.0527   -121.26422    131825.07   -1524.1498    138.18049   -1662.3303    213.46295 
   15200    264.69696    -433.6349    131824.52   -1524.1651    140.10947   -1664.2746    213.98168 
   15250    264.74627   -116.40733    131823.97   -1524.1563    140.13557   -1664.2919    214.95448 
   15300    257.88592   -505.72967    131823.42    -1524.139    136.50425   -1660.6432    215.46824 
   15350     258.4395   -589.79332    131822.86   -1524.1535    136.79727   -1660.9507    216.25964 
   15400    261.62963   -262.57079    131822.31   -1524.1597    138.48587   -1662.6455    217.43266 
   15450    259.35183   -370.32284    131821.75    -1524.159    137.28019   -1661.4391    217.91493 
   15500    257.43435   -170.29935     131821.2   -1524.1573    136.26523   -1660.4226    218.79888 
   15550    264.31708   -608.20854    131820.64   -1524.1616    139.90839     -1664.07     219.2802 
   15600    256.96998   -449.20363    131820.08   -1524.1432    136.01943   -1660.1626     219.5962 
   15650     264.1157    -264.2737    131819.51    -1524.164     139.8018   -1663.9657    220.14644 
   15700    264.04153   -250.51164    131818.95   -1524.1657    139.76254   -1663.9283    220.63595 
   15750    260.68869    213.73125    131818.39   -1524.1562    137.98782    -1662.144    221.05633 
   15800    259.30451   -232.00634    131817.82   -1524.1626    137.25514   -1661.4177    221.77877 
   15850    260.45171    22.445771    131817.26   -1524.1599    137.86238   -1662.0223    222.37675 
   15900    261.04194   -378.20152    131816.69   -1524.1567     138.1748   -1662.3315    222.75134 
   15950    263.66067   -475.71986    131816.13   -1524.1578    139.56094   -1663.7188    223.28499 
   16000    262.02241   -178.19168    131815.56   -1524.1773    138.69378   -1662.8711    224.00401 
   16050    262.70732   -247.32536    131814.99   -1524.1606    139.05631   -1663.2169    224.66206 
   16100    262.53977    -112.3018    131814.42    -1524.168    138.96763   -1663.1356    225.59484 
   16150    259.84092   -345.87322    131813.85   -1524.1608    137.53907   -1661.6999    226.52472 
   16200    258.70759   -80.651914    131813.28   -1524.1611    136.93918   -1661.1003    226.93776 
   16250    255.36409   -473.97983    131812.71   -1524.1517     135.1694   -1659.3211    227.60474 
   16300    261.89035   -1196.3618    131812.13   -1524.1682    138.62387   -1662.7921    227.84201 
   16350     263.0905    301.63024    131811.55   -1524.1661    139.25914   -1663.4252    228.14504 
   16400    261.03126   -553.63332    131810.97   -1524.1608    138.16914     -1662.33    228.31887 
   16450    262.62819    -13.58819    131810.39   -1524.1804    139.01443   -1663.1949    228.82968 
   16500    262.45983    192.46124    131809.81   -1524.1689    138.92532   -1663.0943    229.51864 
   16550    262.47159   -538.93931    131809.23   -1524.1744    138.93154   -1663.1059    230.12583 
   16600    267.04701   -84.517619    131808.65   -1524.1838     141.3534   -1665.5372    230.78421 
   16650    262.90101   -54.955066    131808.07   -1524.1738    139.15884   -1663.3326    231.27112 
   16700    263.34836   -553.39083    131807.49   -1524.1684    139.39563   -1663.5641    231.73799 
   16750    263.44335   -567.56458     131806.9   -1524.1667    139.44591   -1663.6126    232.69269 
   16800    261.12971    56.630443    131806.32   -1524.1805    138.22126   -1662.4018    233.59079 
   16850    261.78971    89.349646    131805.74    -1524.188    138.57061   -1662.7586    234.28491 
   16900    260.20148   -1081.9148    131805.15   -1524.1728    137.72992   -1661.9027    235.22609 
   16950    258.18438   -1114.7608    131804.57   -1524.1738    136.66223    -1660.836     236.0619 
   17000    257.81859   -776.09296    131803.98     -1524.17    136.46861   -1660.6387    237.01005 
   17050    258.40951   -394.89736    131803.38   -1524.1656     136.7814    -1660.947    237.96395 
   17100    268.78231    -375.3196    131802.79   -1524.1852    142.27193   -1666.4572    238.89352 
   17150    262.12115    19.369135     131802.2   -1524.1836    138.74604   -1662.9296    239.79326 
   17200    263.47103   -521.57841     131801.6   -1524.1867    139.46056   -1663.6473       240.53 
   17250    260.11379   -448.96665    131801.01   -1524.1943    137.68351   -1661.8778    241.44218 
   17300    262.25613    -236.1401    131800.41   -1524.1858    138.81749   -1663.0033    242.34491 
   17350    261.03004     60.06363    131799.81   -1524.1994     138.1685   -1662.3679    242.78456 
   17400     258.6304    -476.1556    131799.21   -1524.1844    136.89832   -1661.0827    243.40508 
   17450    263.75534   -569.58989    131798.61   -1524.1926    139.61105   -1663.8036    244.30039 
   17500    261.29928     -819.354    131798.01   -1524.1928    138.31101   -1662.5038    245.08831 
   17550    257.18121   -179.98947    131797.41   -1524.1804    136.13123   -1660.3116    246.01283 
   17600    259.26012   -498.47623     131796.8    -1524.189    137.23164   -1661.4206    246.66159 
   17650    259.15053   -152.75289     131796.2   -1524.1789    137.17363   -1661.3525    247.69297 
   17700    261.70107   -60.273247    131795.59   -1524.1931    138.52369   -1662.7168    248.25799 
   17750    264.60608    276.71955    131794.98   -1524.2068    140.06137   -1664.2682    248.77695 
   17800    261.94695   -279.68194    131794.37   -1524.1862    138.65384     -1662.84    249.89637 
   17850    260.30945   -100.29875    131793.77   -1524.1966    137.78707   -1661.9837    250.79898 
   17900    259.21436   -173.54173    131793.15   -1524.1853    137.20742   -1661.3927    251.18288 
   17950    264.74211   -1031.0578    131792.54   -1524.2018    140.13337   -1664.3351    251.75933 
   18000    265.84219    2.6178304    131791.93   -1524.1992    140.71566   -1664.9149    252.07606 
   18050    261.86007    377.89962    131791.31   -1524.2014    138.60785   -1662.8092    252.68979 
   18100    261.00363    -327.6131     131790.7   -1524.1969    138.15452   -1662.3514    253.31588 
   18150    265.25147   -379.56798    131790.09   -1524.2105    140.40299   -1664.6135    253.78915 
   18200    261.69428    -571.6288    131789.47   -1524.2001    138.52009   -1662.7202    254.15061 
   18250    262.20788   -417.59694    131788.85   -1524.2115    138.79195   -1663.0035    254.86341 
   18300    261.70711   -74.897729    131788.23   -1524.2001    138.52689   -1662.7269    255.54628 
   18350     258.3885   -426.34085    131787.62   -1524.1966    136.77027   -1660.9669    255.80261 
   18400    263.46812   -160.34569       131787   -1524.2016    139.45902   -1663.6606    256.06373 
   18450    263.46648    -330.0204    131786.38   -1524.2069    139.45815   -1663.6651    256.83349 
   18500    266.84583   -106.87744    131785.76   -1524.2075    141.24691   -1665.4544    257.54137 
   18550    263.78798   -38.677875    131785.13    -1524.205    139.62833   -1663.8333    258.03604 
   18600    262.24778   -8.9309136    131784.51   -1524.2062    138.81307   -1663.0193    258.48695 
   18650    266.65265   -386.34572    131783.89   -1524.2168    141.14466   -1665.3615    259.20461 
   18700    263.05393   -202.57208    131783.27   -1524.2141    139.23979   -1663.4538     259.9584 
   18750    265.76445    115.12556    131782.64    -1524.225    140.67452   -1664.8995    260.38933 
   18800    260.75898   -401.31588    131782.02   -1524.2067    138.02502   -1662.2317    261.32003 
   18850    260.98668   -304.89069    131781.39   -1524.2135    138.14555    -1662.359    261.85289 
   18900    259.27935    68.361909    131780.77   -1524.2168    137.24182   -1661.4586    262.62687 
   18950    260.97195   -193.97787    131780.14   -1524.1999    138.13775   -1662.3377    263.07179 
   19000    265.03482   -163.20336    131779.51   -1524.2162    140.28831   -1664.5045     263.7412 
   19050    260.52367   -65.573749    131778.88   -1524.2082    137.90046   -1662.1087    264.95473 
   19100    259.55392   -519.73605    131778.25   -1524.2086    137.38716   -1661.5957    265.99175 
   19150    261.62845    -319.3227    131777.62    -1524.221    138.48525   -1662.7063    266.36607 
   19200    261.32344   -350.52454    131776.99    -1524.213     138.3238   -1662.5368    266.93993 
   19250    261.17923   -484.54405    131776.36   -1524.2099    138.24747   -1662.4574    267.48279 
   19300    260.71326    -703.8522    131775.73   -1524.2181    138.00082   -1662.2189    268.51313 
   19350    263.33552   -527.59097    131775.09   -1524.2164    139.38883   -1663.6052    269.11804 
   19400    263.47185   -130.57344    131774.45   -1524.2224      139.461   -1663.6834    269.66147 
   19450    261.52402    -334.0684    131773.82   -1524.2074    138.42997   -1662.6374    270.53549 
   19500     265.1903   -226.07046    131773.18   -1524.2314    140.37061    -1664.602    271.56698 
   19550    262.35277   -81.502658    131772.54   -1524.2247    138.86865   -1663.0934    272.10626 
   19600    259.81677   -404.80215     131771.9   -1524.2066    137.52629   -1661.7329    273.18906 
   19650    256.58823   -455.85353    131771.26   -1524.2179    135.81736   -1660.0352     273.6951 
   19700    258.32031   -222.28758    131770.61   -1524.2141    136.73418   -1660.9483    274.43179 
   19750    258.56294   -386.19313    131769.97    -1524.224    136.86261   -1661.0866    275.45072 
   19800    261.35112   -759.97628    131769.32   -1524.2292    138.33845   -1662.5677    276.18284 
   19850    261.61354   -190.62725    131768.68   -1524.2293    138.47735   -1662.7067    276.74207 
   19900    261.84182   -754.21055    131768.03   -1524.2378    138.59819    -1662.836     277.6619 
   19950    259.86082   -724.84399    131767.37   -1524.2252    137.54961   -1661.7748    278.42626 
   20000    261.37029   -401.66415    131766.72   -1524.2397     138.3486   -1662.5883    278.95114 
   20050    255.31341   -401.79064    131766.07   -1524.2234    135.14257    -1659.366    279.80863 
   20100    261.42568   -775.65221    131765.41   -1524.2328    138.37792   -1662.6108    280.65649 
   20150    262.68653    -162.1532    131764.75   -1524.2408    139.04531   -1663.2861    281.35064 
   20200     261.8062   -881.54119    131764.09   -1524.2321    138.57933   -1662.8114    282.05835 
   20250    261.55846   -1085.3797    131763.43   -1524.2308     138.4482    -1662.679    282.62393 
   20300    256.85057   -427.59553    131762.76   -1524.2314    135.95622   -1660.1876    282.89106 
   20350     256.3639   -639.57268     131762.1   -1524.2339    135.69862   -1659.9325    283.84264 
   20400    259.61482   -159.24708    131761.43   -1524.2454     137.4194   -1661.6648    284.44313 
   20450    259.98165   -355.69223    131760.76   -1524.2419    137.61356   -1661.8555    285.31162 
   20500    260.58171    -364.8462    131760.09   -1524.2414    137.93119   -1662.1726    286.35488 
   20550    259.55455   -74.798429    131759.42   -1524.2419    137.38749   -1661.6294    287.06958 
   20600    259.86401   -471.20611    131758.75   -1524.2486    137.55129   -1661.7999    287.62568 
   20650    259.29406    -460.8174    131758.07   -1524.2363    137.24961   -1661.4859    288.12701 
   20700    259.04755   -303.46764    131757.39   -1524.2421    137.11913   -1661.3612    288.71898 
   20750    258.63653    38.550927    131756.71   -1524.2443    136.90156   -1661.1459    289.02166 
   20800    257.21719   -321.78105    131756.03   -1524.2422    136.15028   -1660.3925    289.37489 
   20850     258.2552   -277.70275    131755.35   -1524.2328    136.69972   -1660.9326    289.54457 
   20900    259.07929    474.40263    131754.66   -1524.2513    137.13592   -1661.3872    289.69614 
   20950    261.32635   -270.98902    131753.98   -1524.2566    138.32534   -1662.5819    290.45354 
   21000    262.43507   -196.87868    131753.29   -1524.2567    138.91221   -1663.1689    290.85354 
   21050    259.52356   -411.01734    131752.61   -1524.2618    137.37108   -1661.6329    291.18307 
   21100    263.67736   -310.47052    131751.92   -1524.2619    139.56978   -1663.8316    291.86986 
   21150    261.53147   -5.9373216    131751.23   -1524.2524    138.43391   -1662.6863    292.42303 
   21200    258.04237   -513.13093    131750.53   -1524.2481    136.58707   -1660.8352    292.47873 
   21250    262.59948   -181.68575    131749.84    -1524.266    138.99923   -1663.2652    293.23232 
   21300    264.69508   -331.72269    131749.15    -1524.257    140.10848   -1664.3655    293.67352 
   21350    262.45401     -127.931    131748.45   -1524.2583    138.92223   -1663.1805    294.10765 
   21400    261.55453   -18.019156    131747.75   -1524.2631    138.44612   -1662.7092    294.49734 
   21450    262.06733    192.72472    131747.05    -1524.269    138.71756   -1662.9866    295.45746 
   21500    263.06501    337.07184    131746.36   -1524.2602    139.24565   -1663.5058    295.75894 
   21550    263.48867   -440.65641    131745.66   -1524.2641     139.4699    -1663.734    296.36804 
   21600    255.84016   -356.78749    131744.96   -1524.2573    135.42139   -1659.6787    297.16138 
   21650    261.23097   -74.499599    131744.25   -1524.2624    138.27485   -1662.5373    297.99205 
   21700    257.89479   -97.690281    131743.55   -1524.2503    136.50894   -1660.7592    298.61374 
   21750    261.82079   -727.48585    131742.85   -1524.2626    138.58706   -1662.8496    299.13054 
   21800    258.88945   -443.85496    131742.14    -1524.259    137.03544   -1661.2945    299.83043 
   21850    262.02841   -365.61551    131741.43   -1524.2707    138.69696   -1662.9676    300.51223 
   21900    265.78482    -529.7163    131740.73   -1524.2823     140.6853   -1664.9676    301.02105 
   21950    263.29362    3.5763051    131740.02   -1524.2671    139.36666   -1663.6338    301.65746 
   22000     263.5831    166.17381    131739.31   -1524.2839    139.51988   -1663.8038    302.02363 
   22050    258.73821   -65.505028     131738.6   -1524.2564    136.95539   -1661.2118    302.77238 
   22100    259.11805   -289.55538    131737.89   -1524.2621    137.15644   -1661.4185    303.25233 
   22150    264.66468   -542.60117    131737.18    -1524.279    140.09239   -1664.3714    303.92121 
   22200    262.04497   -323.86199    131736.47    -1524.281    138.70572   -1662.9867    304.50989 
   22250    263.93034   -285.68418    131735.76   -1524.2745    139.70369   -1663.9782    305.05379 
   22300    256.77299    -565.6504    131735.05   -1524.2755    135.91515   -1660.1907    305.28586 
   22350    260.77001   -74.211452    131734.33   -1524.2761    138.03086   -1662.3069    305.79167 
   22400     261.6721    101.72992    131733.61    -1524.277    138.50835   -1662.7853    306.39597 
   22450    264.35515   -722.86029     131732.9   -1524.2874    139.92855   -1664.2159    307.01246 
   22500    262.11318   -173.10971    131732.18   -1524.2716    138.74183   -1663.0134    307.36903 
   22550    261.04235    177.17987    131731.46   -1524.2753    138.17502   -1662.4503    307.73312 
   22600    259.69213   -255.84673    131730.74   -1524.2809    137.46032   -1661.7413    308.10569 
   22650    258.95262   -128.40066    131730.01   -1524.2792    137.06888   -1661.3481    308.66964 
   22700    264.78224    241.26713    131729.29    -1524.297    140.15461   -1664.4516      309.108 
   22750    259.33378     -163.403    131728.57   -1524.2782    137.27063   -1661.5488     310.4664 
   22800      263.574   -473.21534    131727.84   -1524.2901    139.51507   -1663.8052    311.17543 
   22850    261.65589   -232.59049    131727.12   -1524.2984    138.49977   -1662.7981    311.78402 
   22900    265.45855    150.12502    131726.39    -1524.291     140.5126   -1664.8036    312.42406 
   22950    263.96988     105.9208    131725.66   -1524.2987    139.72461   -1664.0233    313.02584 
   23000    262.04463    -30.09054    131724.93   -1524.2931    138.70554   -1662.9986    313.55817 
   23050    260.95564   -592.48732     131724.2   -1524.2853    138.12912   -1662.4144    314.15755 
   23100    265.01137   -126.41584    131723.47   -1524.2969     140.2759   -1664.5728    315.09695 
   23150    261.33526    267.71736    131722.74   -1524.2934    138.33006   -1662.6234    315.81345 
   23200    261.45611    418.21737       131722   -1524.2947    138.39403   -1662.6888    316.30013 
   23250    255.58726   -476.02253    131721.27   -1524.2801    135.28752   -1659.5676    316.84674 
   23300    263.02314   -246.60324    131720.54   -1524.3014    139.22348   -1663.5249    317.55079 
   23350    261.46906   -60.104987     131719.8   -1524.3062    138.40088    -1662.707    318.23736 
   23400    262.63888   -751.81693    131719.07   -1524.3051    139.02009   -1663.3252    318.85229 
   23450     261.2387   -1059.1826    131718.33   -1524.2998    138.27894   -1662.5787     319.6275 
   23500    259.25912   -666.51929    131717.59   -1524.3099    137.23111    -1661.541     320.4645 
   23550    262.17913   -123.47428    131716.84    -1524.301    138.77673   -1663.0777    321.40008 
   23600    265.47075   -305.62474     131716.1   -1524.3171    140.51905   -1664.8362    322.27565 
   23650    262.25766   -421.56554    131715.36   -1524.3037     138.8183    -1663.122    323.48458 
   23700    261.80441   -442.59912    131714.61   -1524.3135    138.57839   -1662.8919     323.8984 
   23750    263.63351    35.335438    131713.87   -1524.3238    139.54657   -1663.8703    324.50714 
   23800    260.73224   -382.84134    131713.12   -1524.3137    138.01086   -1662.3245    325.35007 
   23850    262.14252    -102.5014    131712.37   -1524.3095    138.75736   -1663.0668     325.8284 
   23900    263.43874   -260.47562    131711.63   -1524.3209    139.44347   -1663.7644    326.48234 
   23950    265.68111    126.43053    131710.88   -1524.3241     140.6304   -1664.9546    327.27356 
   24000    265.26601   -261.82834    131710.13   -1524.3143    140.41068    -1664.725    327.75754 
   24050    263.49716    60.396956    131709.38    -1524.321    139.47439   -1663.7954    328.17602 
   24100    265.96741   -128.73811    131708.63   -1524.3246    140.78195   -1665.1066    328.63453 
   24150    264.77566   -450.62939    131707.88   -1524.3261    140.15113   -1664.4772     329.3114 
   24200    261.18132   -166.25537    131707.13    -1524.313    138.24857   -1662.5616    329.90614 
   24250    263.48534   -86.772327    131706.38   -1524.3271    139.46814   -1663.7952    330.74075 
   24300    262.17313    120.94169    131705.63   -1524.3221    138.77356   -1663.0956    331.54241 
   24350    257.89826   -277.82399    131704.88   -1524.3165    136.51078   -1660.8273    332.05379 
   24400    259.78347   -475.56093    131704.12    -1524.317    137.50866   -1661.8257    333.46934 
   24450    260.56128   -361.89981    131703.37   -1524.3282    137.92037   -1662.2486     334.2267 
   24500    258.05232   -463.27731    131702.61   -1524.3217    136.59233    -1660.914     334.8293 
   24550    258.49202   -885.97547    131701.85   -1524.3169    136.82507    -1661.142    335.19761 
   24600    258.84592   -472.56694    131701.09   -1524.3281     137.0124   -1661.3405    335.52384 
   24650    259.34076   -837.80044    131700.33   -1524.3236    137.27433   -1661.5979    336.23578 
   24700     262.9271   -169.23971    131699.57   -1524.3367    139.17265   -1663.5094    337.48139 
   24750    262.60858    38.907903     131698.8   -1524.3262    139.00405   -1663.3303    338.50365 
   24800    265.65801    10.743882    131698.04   -1524.3431    140.61818   -1664.9613    339.36139 
   24850     266.1893    270.14274    131697.27   -1524.3437     140.8994   -1665.2431    340.18992 
   24900    261.28247   -413.23475    131696.51   -1524.3275    138.30211   -1662.6296    340.73958 
   24950    262.70427   -503.97082    131695.74    -1524.347     139.0547   -1663.4017    341.30282 
   25000    263.54378   -416.74217    131694.97    -1524.336    139.49907    -1663.835    342.06902 
   25050    259.20217   -55.056408     131694.2   -1524.3357    137.20097   -1661.5367     342.1957 
   25100     262.8485    45.125722    131693.43   -1524.3445    139.13105   -1663.4756    342.60491 
   25150    265.63226   -315.03231    131692.66   -1524.3536    140.60454   -1664.9582    343.08377 
   25200     261.0418   -299.14114    131691.89   -1524.3384    138.17472   -1662.5131    343.41194 
   25250     262.6094   -955.03057    131691.12    -1524.349    139.00449   -1663.3535    344.25704 
   25300     264.9475   -113.47365    131690.34   -1524.3513    140.24209   -1664.5933     344.7681 
   25350     260.2848   -245.58656    131689.57   -1524.3392    137.77403   -1662.1132    345.21832 
   25400    264.07831    80.651002    131688.79   -1524.3564    139.78201   -1664.1384    345.84982 
   25450    260.22659   -431.22165    131688.02   -1524.3467    137.74321     -1662.09     346.2072 
   25500    262.18875   -536.57727    131687.24   -1524.3501    138.78183   -1663.1319    347.19488 
   25550    257.94382   -861.79478    131686.46   -1524.3479     136.5349   -1660.8828    347.78342 
   25600    260.95845   -780.42227    131685.68   -1524.3398    138.13061   -1662.4704    348.36186 
   25650    258.18778    128.65336     131684.9   -1524.3446    136.66403   -1661.0086    348.97996 
   25700    260.47013   -842.88239    131684.12   -1524.3401    137.87213   -1662.2122    349.68193 
   25750    257.05136   -613.91088    131683.34   -1524.3449     136.0625   -1660.4074    350.66979 
   25800    260.05853   -317.99867    131682.55   -1524.3535    137.65426   -1662.0077    351.60179 
   25850    260.58204   -755.71916    131681.77   -1524.3585    137.93136   -1662.2899    352.29415 
   25900    255.25924   -534.79955    131680.98   -1524.3403     135.1139   -1659.4542    352.29026 
   25950    258.58229   -266.07405    131680.19   -1524.3617    136.87285   -1661.2345    352.95484 
   26000     258.4739    -690.2567     131679.4   -1524.3694    136.81548   -1661.1849    353.20474 
   26050    257.66757   -624.62253     131678.6   -1524.3564    136.38867   -1660.7451    353.55961 
   26100     262.3764   -422.52354    131677.81   -1524.3625    138.88115   -1663.2436    354.20326 
   26150    261.73841   -151.42668    131677.01   -1524.3636    138.54345   -1662.9071    354.86446 
   26200    262.92927   -748.61616    131676.21   -1524.3626     139.1738   -1663.5364    355.48788 
   26250    260.95499   -199.97424    131675.41   -1524.3653    138.12877   -1662.4941    355.81897 
   26300     260.0137   -348.81037    131674.61   -1524.3644    137.63053    -1661.995    356.50017 
   26350    260.65809   -61.571371    131673.81   -1524.3575    137.97162   -1662.3291    357.10816 
   26400    263.71029    194.42233    131673.01   -1524.3705    139.58721   -1663.9578    358.35316 
   26450    261.23375   -183.10448    131672.21   -1524.3732    138.27633   -1662.6495    358.89841 
   26500    263.11804   -225.29808    131671.41   -1524.3795    139.27372   -1663.6532    359.53776 
   26550    261.07049   -54.930202    131670.61   -1524.3709    138.18991   -1662.5608    360.46101 
   26600    261.85039   -383.21759    131669.81   -1524.3686    138.60273   -1662.9713    361.38064 
   26650    260.64888   -454.71306    131669.01    -1524.368    137.96674   -1662.3348    362.03374 
   26700    262.53345   -287.84033     131668.2   -1524.3716    138.96428   -1663.3359    362.85334 
   26750     261.6416   -708.55006     131667.4   -1524.3821    138.49221   -1662.8743    363.80533 
   26800    262.07923   -135.05472    131666.59   -1524.3877    138.72386   -1663.1115     364.5836 
   26850    258.42424   -659.99343    131665.78   -1524.3895     136.7892   -1661.1787    365.36641 
   26900    256.89022   -597.51154    131664.97   -1524.3739     135.9772   -1660.3511    365.05022 
   26950     261.4233   -181.40556    131664.15   -1524.3871    138.37666   -1662.7638    366.19752 
   27000    260.13824   -182.09564    131663.34   -1524.3906    137.69645    -1662.087    366.60236 
   27050    262.30574   -300.06117    131662.52   -1524.3983    138.84375   -1663.2421    367.33416 
   27100    261.14014   -262.67487    131661.71   -1524.3896    138.22678   -1662.6164    368.14601 
   27150     258.9236   -414.77747    131660.89   -1524.3818    137.05352   -1661.4353    369.17361 
   27200    262.90262   -780.96347    131660.07   -1524.3901    139.15969   -1663.5498    370.18498 
   27250    259.80488   -247.80066    131659.25   -1524.3895    137.51999   -1661.9095    371.65547 
   27300    260.69308   -26.105971    131658.43   -1524.3962    137.99014   -1662.3863    372.37082 
   27350    262.42765    106.49481    131657.61   -1524.4063    138.90828   -1663.3146    373.40102 
   27400    261.28524   -130.41898    131656.78   -1524.3945    138.30358    -1662.698    374.30956 
   27450     258.2226   -599.45542    131655.96   -1524.3916    136.68246   -1661.0741    375.25408 
   27500    264.40964   -363.22836    131655.14   -1524.3927    139.95739   -1664.3501    375.88571 
   27550    259.77616    222.63298    131654.31   -1524.3866     137.5048   -1661.8914    376.50815 
   27600    262.82044   -278.68395    131653.49   -1524.4035    139.11619   -1663.5197    377.26079 
   27650    264.69765    322.23041    131652.66   -1524.4119    140.10984   -1664.5217    378.04037 
   27700    259.56787   -487.06768    131651.84   -1524.3943    137.39454   -1661.7889    379.23322 
   27750    262.03653   -60.858339    131651.01   -1524.4092    138.70125   -1663.1104    379.67522 
   27800    263.09796   -252.20828    131650.18   -1524.4074    139.26309   -1663.6705    380.13964 
   27850    261.08689   -707.93669    131649.35   -1524.4034    138.19859    -1662.602    380.50335 
   27900    264.50339   -166.59773    131648.52   -1524.4123    140.00701   -1664.4193    381.36272 
   27950    261.05063   -175.02448    131647.69   -1524.4116     138.1794    -1662.591    382.24102 
   28000    263.00796   -209.48534    131646.86   -1524.4193    139.21545   -1663.6348    383.41745 
   28050    260.75837    247.91493    131646.02   -1524.4193     138.0247    -1662.444    384.31671 
   28100    259.19981   -260.02154    131645.19   -1524.4076    137.19972   -1661.6074    385.03814 
   28150    263.47352    -233.6406    131644.36   -1524.4184    139.46188   -1663.8803    385.77443 
   28200    260.84762   -352.93585    131643.52   -1524.4127    138.07194   -1662.4846    386.57461 
   28250    263.64136   -10.566231    131642.68    -1524.424    139.55072   -1663.9748    387.65255 
   28300     262.2798   -374.31716    131641.85   -1524.4167    138.83002   -1663.2468    388.35595 
   28350    258.39063    26.577893    131641.01   -1524.4141    136.77141   -1661.1855    389.08329 
   28400    260.70989   -299.83402    131640.18    -1524.416    137.99904    -1662.415    389.96439 
   28450    261.00258    193.58217    131639.34   -1524.4171    138.15396    -1662.571    390.40904 
   28500    256.53653   -24.710755     131638.5   -1524.4129    135.78999   -1660.2029    391.12412 
   28550    258.47199   -422.04395    131637.67   -1524.4291    136.81447   -1661.2436    392.17403 
   28600    258.14018   -464.56991    131636.83   -1524.4248    136.63884   -1661.0636    392.95271 
   28650    262.82825   -268.46311    131635.99   -1524.4291    139.12033   -1663.5495     393.4402 
   28700     261.9552   -512.61493    131635.15   -1524.4346     138.6582   -1663.0928    393.71003 
   28750    260.24388   -388.12806    131634.31   -1524.4314    137.75236   -1662.1838    394.20557 
   28800    261.40843   -439.74967    131633.46   -1524.4424    138.36879   -1662.8112     394.9116 
   28850    262.35875    -222.6726    131632.62   -1524.4377    138.87181   -1663.3095    395.40942 
   28900    262.38438    35.234075    131631.77   -1524.4424    138.88538   -1663.3277    396.21052 
   28950    259.67829   -23.835188    131630.93   -1524.4294    137.45299   -1661.8824    396.70574 
   29000     260.8649   -560.74087    131630.08   -1524.4348    138.08109   -1662.5159    397.12529 
   29050    261.00341   -614.39081    131629.23   -1524.4313     138.1544   -1662.5857     397.8228 
   29100    260.38732    6.5771555    131628.38   -1524.4363    137.82829   -1662.2646    398.87021 
   29150    265.07779    516.92309    131627.53   -1524.4561    140.31105   -1664.7671    399.31987 
   29200    262.31383   -718.04564    131626.68    -1524.438    138.84803    -1663.286    400.34961 
   29250    261.03082    -119.3289    131625.83   -1524.4479    138.16891   -1662.6168    400.93363 
   29300    262.33902   -755.29714    131624.98   -1524.4567    138.86137    -1663.318    401.16228 
   29350    262.25941   -444.05818    131624.13   -1524.4544    138.81923   -1663.2736    401.78464 
   29400    261.44478    -928.2637    131623.27   -1524.4494    138.38803   -1662.8375    402.71471 
   29450    261.93624   -196.46775    131622.41   -1524.4616    138.64817   -1663.1097    403.19893 
   29500    261.36816    98.092449    131621.55   -1524.4613    138.34747   -1662.8087    403.63514 
   29550    267.14399   -9.2055987    131620.69   -1524.4664    141.40474   -1665.8711    404.15057 
   29600    262.41239   -186.35244    131619.84   -1524.4589     138.9002   -1663.3591    404.95937 
   29650    258.20911   -156.10481    131618.98   -1524.4456    136.67532    -1661.121    405.55813 
   29700    261.40509   -375.74336    131618.12   -1524.4554    138.36702   -1662.8224    405.99917 
   29750    260.40419   -93.017871    131617.25   -1524.4614    137.83722   -1662.2986    406.34834 
   29800    261.76093    634.74782    131616.39   -1524.4622    138.55537   -1663.0176    407.06582 
   29850    258.58349   -656.17657    131615.53   -1524.4461    136.87349   -1661.3196    407.63237 
   29900    263.38359   -420.38651    131614.66   -1524.4788    139.41428   -1663.8931    408.29148 
   29950    259.02646   -463.51886     131613.8   -1524.4681    137.10796    -1661.576    409.07211 
   30000    264.17057   -320.19567    131612.93   -1524.4725    139.83085   -1664.3034     409.9215 
   30050    258.08056    4.6053027    131612.06    -1524.467    136.60728   -1661.0743    410.64754 
   30100    262.43701   -191.50217    131611.19   -1524.4711    138.91323   -1663.3844    411.40869 
   30150    260.94452   -365.47905    131610.32   -1524.4794    138.12323   -1662.6027    411.75757 
   30200    259.52632   -692.32598    131609.44   -1524.4621    137.37255   -1661.8347    412.60388 
   30250    263.35443   -327.14944    131608.57   -1524.4891    139.39885    -1663.888     413.3949 
   30300    261.80529   -264.77801    131607.69   -1524.4685    138.57886   -1663.0474    414.33057 
   30350     261.4713   -442.97484    131606.82   -1524.4714    138.40207   -1662.8734    414.97023 
   30400    264.84606   -364.31134    131605.94   -1524.4811     140.1884   -1664.6695     415.2975 
   30450    260.98873   -280.95288    131605.06   -1524.4758    138.14663   -1662.6224    415.77646 
   30500     261.8029    38.522424    131604.18   -1524.4811    138.57759   -1663.0587    416.20692 
   30550    260.74743   -366.62826     131603.3   -1524.4706     138.0189   -1662.4895    416.57182 
   30600    264.91552    52.673333    131602.42   -1524.4902    140.22516   -1664.7153     417.2196 
   30650    266.12929   -286.97261    131601.53   -1524.4931    140.86763   -1665.3607    418.10181 
   30700    268.25322    137.69645    131600.65     -1524.49    141.99188   -1666.4819    418.45689 
   30750    259.84837   -247.13793    131599.77   -1524.5024    137.54302   -1662.0454    419.05897 
   30800     262.3638   -79.798085    131598.89   -1524.5012    138.87448   -1663.3757     420.0034 
   30850    259.79994    112.78545    131598.01   -1524.4829    137.51738   -1662.0003    421.01184 
   30900    263.21191    -381.3343    131597.12   -1524.5006    139.32341    -1663.824    421.38037 
   30950    254.48765   -201.29672    131596.24   -1524.4884    134.70548   -1659.1939    422.33111 
   31000    256.30409    75.967434    131595.35   -1524.4912    135.66696   -1660.1581    423.16645 
   31050    257.62259   -425.32094    131594.46   -1524.4967    136.36486   -1660.8615    423.92852 
   31100    262.23784   -469.58412    131593.57   -1524.5149    138.80781   -1663.3227    424.77821 
   31150    259.83685    -733.4885    131592.68   -1524.4942    137.53692   -1662.0311    425.25211 
   31200    260.39147   -758.84116    131591.79   -1524.4998    137.83049   -1662.3302    425.91125 
   31250    260.05997   -438.53644     131590.9   -1524.5031    137.65502   -1662.1581    426.26503 
   31300    261.93115   -98.362694       131590   -1524.5083    138.64548   -1663.1537    426.90094 
   31350    259.46631    118.25518     131589.1   -1524.5015    137.34078   -1661.8423    427.46145 
   31400    262.95015   -97.505759    131588.21   -1524.5127    139.18485   -1663.6975    427.84998 
   31450    260.22321   -282.77876    131587.31   -1524.5042    137.74143   -1662.2456    428.38218 
   31500    259.02056   -294.26917    131586.41   -1524.4956    137.10484   -1661.6005    428.92681 
   31550    268.15697   -606.75116    131585.51   -1524.5162    141.94093   -1666.4572    429.57451 
   31600    262.54835   -221.36902     131584.6   -1524.5117    138.97217   -1663.4838     430.0509 
   31650    263.44265   -467.82809     131583.7   -1524.5247    139.44554   -1663.9703    430.85073 
   31700    264.00224    77.289808     131582.8    -1524.519    139.74174   -1664.2608    430.87654 
   31750    267.37048   -118.17765    131581.89   -1524.5339    141.52462   -1666.0585    431.57456 
   31800    258.72628    -590.2659    131580.98   -1524.5107    136.94907   -1661.4598    432.51499 
   31850    258.14358   -315.29461    131580.08   -1524.5105    136.64064   -1661.1512    432.85977 
   31900    262.04471   -267.85642    131579.17   -1524.5276    138.70558   -1663.2331    433.44801 
   31950    262.91496   -201.93433    131578.26   -1524.5307    139.16622   -1663.6969     433.7111 
   32000    262.74273    9.6691369    131577.34   -1524.5209    139.07506    -1663.596    434.47031 
   32050    261.48703   -240.63587    131576.43   -1524.5199    138.41039   -1662.9303    435.34736 
   32100    262.63096     188.5807    131575.52    -1524.534    139.01589   -1663.5499    435.98433 
   32150    261.13952    190.70983    131574.61   -1524.5383    138.22645   -1662.7648    436.16065 
   32200    260.27815   -441.35165     131573.7   -1524.5292     137.7705   -1662.2997    436.53264 
   32250    260.02977   -549.96837    131572.78     -1524.52    137.63903   -1662.1591    437.10392 
   32300    261.36056   -311.02376    131571.87   -1524.5344    138.34345   -1662.8779    438.20418 
   32350    260.52466    158.29687    131570.95   -1524.5288    137.90099   -1662.4298    439.26202 
   32400    266.05471   -468.96452    131570.03   -1524.5494    140.82816   -1665.3775    439.74058 
   32450    261.37433   -53.076605    131569.12   -1524.5306    138.35074   -1662.8813    440.00563 
   32500    254.98635   -570.28722     131568.2   -1524.5339    134.96945   -1659.5034    440.73653 
   32550    263.14912   -307.08196    131567.27   -1524.5451    139.29017   -1663.8353    441.00187 
   32600    263.03971   -448.83538    131566.35   -1524.5517    139.23226    -1663.784    441.16487 
   32650    263.82341   -173.93819    131565.43   -1524.5462    139.64708   -1664.1932    441.67981 
   32700    264.42041   -630.71399    131564.51    -1524.552    139.96309   -1664.5151    441.74488 
   32750    261.40673   -800.46154    131563.58   -1524.5434    138.36789   -1662.9113    442.38329 
   32800    262.72176    -160.8973    131562.65   -1524.5513    139.06396   -1663.6153    442.93969 
   32850    260.88092   -368.00084    131561.72   -1524.5486    138.08957   -1662.6382    443.16973 
   32900     265.3799   -126.95642    131560.79   -1524.5644    140.47097   -1665.0354    443.76328 
   32950     262.4379   -648.52839    131559.86   -1524.5555     138.9137   -1663.4692    444.08905 
   33000    265.58831     137.4401    131558.93     -1524.56    140.58128   -1665.1413    444.64862 
   33050    263.33503    35.608073       131558   -1524.5619    139.38857   -1663.9505    444.66893 
   33100    262.81503   -696.57339    131557.06   -1524.5613    139.11333   -1663.6747    444.65805 
   33150    261.92889    144.29254    131556.13   -1524.5728    138.64427   -1663.2171    444.87776 
   33200    262.89358   -570.00918    131555.19   -1524.5746    139.15491   -1663.7295    445.35265 
   33250    262.67315   -457.92225    131554.26   -1524.5622    139.03823   -1663.6004    445.90614 
   33300     268.5445    -546.4261    131553.32   -1524.5689    142.14606    -1666.715    446.40103 
   33350    262.99952   -240.14949    131552.38   -1524.5624    139.21099   -1663.7734    447.25762 
   33400    263.97073   -98.201372    131551.45   -1524.5699    139.72506   -1664.2949    447.26251 
   33450    261.01397   -28.702992    131550.51   -1524.5651    138.15999   -1662.7251    447.95251 
   33500    260.64156   -472.10275    131549.57   -1524.5755    137.96287   -1662.5384    448.48721 
   33550    262.38981    287.25527    131548.63   -1524.5733    138.88825   -1663.4615    448.91164 
   33600    261.23791   -129.53223    131547.69   -1524.5739    138.27853   -1662.8524    449.25931 
   33650    261.24016   -155.61203    131546.75    -1524.573    138.27972   -1662.8527    449.75141 
   33700     262.8883   -922.92379    131545.81   -1524.5798    139.15211   -1663.7319    450.02806 
   33750    256.38009   -654.06419    131544.86   -1524.5673    135.70718   -1660.2745    450.24886 
   33800    259.37912   -69.770833    131543.92   -1524.5831    137.29463   -1661.8777    450.57555 
   33850    263.13036   -702.43591    131542.97   -1524.5751    139.28024   -1663.8553    451.16223 
   33900    262.80012    -68.59304    131542.02   -1524.5889    139.10544   -1663.6943    451.84015 
   33950    260.11104   -524.48947    131541.07   -1524.5769    137.68205   -1662.2589    452.98529 
   34000    265.10348   -541.53041    131540.12   -1524.5914    140.32465   -1664.9161    453.81229 
   34050     261.5013    190.69306    131539.17   -1524.5897    138.41794   -1663.0076    454.27015 
   34100    260.88424   -191.97212    131538.22   -1524.6006    138.09132   -1662.6919    454.76238 
   34150    266.27936    71.720586    131537.26   -1524.6114    140.94707   -1665.5585    454.95029 
   34200     263.7479   -93.829752    131536.31   -1524.5946    139.60712   -1664.2017    455.46187 
   34250    255.40481    31.308142    131535.35   -1524.5779    135.19095   -1659.7688     456.2342 
   34300    260.62647   -211.88808     131534.4    -1524.599    137.95488   -1662.5539     456.8659 
   34350    259.67527   -344.68953    131533.44    -1524.592    137.45139   -1662.0433    458.09759 
   34400    259.49255   -186.17015    131532.48   -1524.5991    137.35468   -1661.9538    458.74049 
   34450    261.97552    -667.1554    131531.52    -1524.608    138.66896    -1663.277    459.37993 
   34500      259.006   -79.095668    131530.56   -1524.5882    137.09713   -1661.6853    459.88573 
   34550    259.23313   -724.65655     131529.6   -1524.5993    137.21736   -1661.8167    460.45453 
   34600    260.58059    30.169416    131528.63   -1524.6048    137.93059   -1662.5354    460.76093 
   34650    260.17471   -225.76578    131527.67   -1524.6048    137.71575   -1662.3205    461.64633 
   34700    256.50412   -545.28083     131526.7   -1524.6034    135.77283   -1660.3762    461.89131 
   34750    260.77558   -510.22189    131525.73   -1524.6225    138.03381   -1662.6563    462.38166 
   34800    260.05436   -252.89167    131524.76   -1524.6126    137.65205   -1662.2646    462.80652 
   34850    260.07103   -96.993509    131523.79   -1524.6092    137.66087   -1662.2701    463.58511 
   34900     258.9601   -39.151299    131522.82   -1524.6188    137.07284   -1661.6916    464.04024 
   34950    261.78004    196.94581    131521.84    -1524.633    138.56549   -1663.1985    464.45973 
   35000    261.97056   -321.46531    131520.87   -1524.6201    138.66633   -1663.2864     465.4548 
   35050    262.02565   -313.84003    131519.89   -1524.6313     138.6955   -1663.3268    466.10761 
   35100    258.69415   -632.18506    131518.92   -1524.6231    136.93206   -1661.5552    466.43666 
   35150    262.84412   -431.44721    131517.94   -1524.6418    139.12872   -1663.7705    466.86737 
   35200    261.59964     -125.359    131516.95   -1524.6363       138.47   -1663.1063    467.65044 
   35250    262.38713   -138.11777    131515.97   -1524.6307    138.88683   -1663.5176    468.37078 
   35300    259.17309    286.61176    131514.99   -1524.6252    137.18558   -1661.8107    469.11104 
   35350    261.28564   -512.77616       131514   -1524.6329    138.30379   -1662.9367    469.20085 
   35400    260.16253    62.617157    131513.02   -1524.6284    137.70931   -1662.3377    469.68507 
   35450    254.37694   -315.44249    131512.03   -1524.6224    134.64687   -1659.2692    470.27849 
   35500    257.36771   -554.05514    131511.04   -1524.6367    136.22995   -1660.8666    470.89014 
   35550    260.02502   -201.48952    131510.05   -1524.6493    137.63652   -1662.2858    471.57009 
   35600    259.46905   -554.90072    131509.06   -1524.6416    137.34223   -1661.9838    472.55496 
   35650    251.88002   -571.55196    131508.06   -1524.6175    133.32521   -1657.9427    473.21803 
   35700    262.02722   -678.64829    131507.07   -1524.6625    138.69632   -1663.3589    473.42071 
   35750    257.90148   -463.29011    131506.07   -1524.6509    136.51249   -1661.1634    473.70817 
   35800    257.32355   -704.97345    131505.07   -1524.6497    136.20658   -1660.8563    474.39108 
   35850    254.19263    119.16378    131504.07   -1524.6377    134.54932    -1659.187    474.97269 
   35900    257.88102   -92.768124    131503.06   -1524.6598    136.50166   -1661.1614    475.88524 
   35950    260.91473   -349.02253    131502.06   -1524.6567    138.10746   -1662.7641    476.37352 
   36000    259.77647   -393.79538    131501.05   -1524.6591    137.50496    -1662.164    476.90016 
   36050     258.6908   -455.12521    131500.04   -1524.6576    136.93029   -1661.5879    477.92145 
   36100     260.2341   -177.30087    131499.03   -1524.6641    137.74719   -1662.4113    478.83623 
   36150    257.25772   -410.48684    131498.02   -1524.6609    136.17173   -1660.8327    479.25118 
   36200    259.85934   -782.83335       131497   -1524.6614    137.54882   -1662.2102    480.00465 
   36250    261.42655    130.01293    131495.99   -1524.6637    138.37838    -1663.042    480.31468 
   36300    258.07055   -350.47741    131494.97   -1524.6607    136.60198   -1661.2627    480.64641 
   36350    258.43039   -58.625714    131493.95   -1524.6692    136.79245   -1661.4617    481.47816 
   36400    261.17161   -676.37425    131492.94   -1524.6706    138.24343   -1662.9141    482.05614 
   36450    260.68986    -362.4405    131491.92    -1524.678    137.98843   -1662.6664    482.62901 
   36500    258.35171   -45.720203     131490.9   -1524.6722     136.7508    -1661.423    483.66825 
   36550    264.70384   -608.88343    131489.87   -1524.6873    140.11311   -1664.8004    484.49721 
   36600    260.13081   -280.66625    131488.85    -1524.678    137.69252   -1662.3705    484.92334 
   36650    258.73319   -415.65027    131487.82   -1524.6753    136.95273    -1661.628    485.23517 
   36700    258.76745   -227.01124     131486.8   -1524.6775    136.97086   -1661.6484    485.54495 
   36750    261.20965   -497.35661    131485.77    -1524.682    138.26357   -1662.9456    486.40196 
   36800    262.03063   -629.54078    131484.74   -1524.6928    138.69813    -1663.391    487.33664 
   36850    257.84891   -542.63472    131483.71   -1524.6787    136.48466   -1661.1633    487.94801 
   36900    264.03755    26.379875    131482.67   -1524.6999    139.76044   -1664.4603    488.43827 
   36950    261.61094   -594.95453    131481.64   -1524.6874    138.47598   -1663.1634    488.99269 
   37000     260.0302   -199.80183     131480.6   -1524.6898    137.63926   -1662.3291    488.88173 
   37050    256.76733    -849.7936    131479.57   -1524.6862    135.91216   -1660.5983    489.60721 
   37100    259.73064   -315.14484    131478.53   -1524.6941     137.4807   -1662.1748    490.33785 
   37150    264.84302   -530.26836    131477.48   -1524.7099    140.18679   -1664.8966    491.02161 
   37200    260.60721   -507.22521    131476.44   -1524.6941    137.94469   -1662.6388    491.20986 
   37250    262.71202   -508.82261     131475.4    -1524.706     139.0588   -1663.7649    491.56307 
   37300    265.32408   -623.54827    131474.35   -1524.7126    140.44142   -1665.1541    491.95262 
   37350    260.55614    386.04219     131473.3    -1524.703    137.91765   -1662.6206    492.76178 
   37400    257.40251    79.756119    131472.26    -1524.705    136.24837   -1660.9533    493.36125 
   37450    258.73547   -639.75103    131471.21   -1524.7096    136.95394   -1661.6636    493.75111 
   37500    260.50239   -520.83045    131470.16   -1524.7208     137.8892     -1662.61    494.05052 
   37550    263.81014   -959.07953    131469.11   -1524.7156    139.64006   -1664.3557    494.31895 
   37600    257.24916   -296.25343    131468.06   -1524.7053     136.1672   -1660.8725    495.23933 
   37650    255.85772   -139.60143    131467.01   -1524.7118    135.43069   -1660.1425    496.10469 
   37700    260.33042    272.28765    131465.95    -1524.723    137.79818   -1662.5211     497.4061 
   37750    260.67813   -460.12844     131464.9   -1524.7201    137.98222   -1662.7023    498.02176 
   37800    257.28928   -589.06699    131463.85   -1524.7094    136.18843   -1660.8978    498.91498 
   37850    263.34095   -431.68819    131462.79    -1524.723    139.39171   -1664.1147    499.88499 
   37900    260.23097   -245.29915    131461.73   -1524.7259    137.74553   -1662.4714    501.27897 
   37950    261.19702   -258.92598    131460.68   -1524.7219    138.25688   -1662.9788      502.216 
   38000    259.38685   -276.44499    131459.62   -1524.7151    137.29873   -1662.0138    502.78194 
   38050    263.45746   -46.870655    131458.56   -1524.7337    139.45338   -1664.1871    503.27088 
   38100    263.54088   -273.94654    131457.49   -1524.7313    139.49754   -1664.2288    503.75705 
   38150    260.56231    2.8415158    131456.43   -1524.7342    137.92092   -1662.6552    504.38187 
   38200    261.00604   -676.46243    131455.37   -1524.7378    138.15579   -1662.8936    504.30105 
   38250    263.50337   -620.58603    131454.31   -1524.7459    139.47768   -1664.2236    504.93271 
   38300     264.5868   -544.27271    131453.24   -1524.7489    140.05116      -1664.8    505.61601 
[...]
  190850     257.9109   -470.86247       125336   -1533.1877    136.51747   -1669.7051    2312.4904 
  190900    255.62592   -353.04409    125333.98   -1533.1966    135.30799   -1668.5046    2313.7861 
  190950    262.25777   -711.16641    125331.96   -1533.2207    138.81836   -1672.0391     2314.119 
  191000     253.9534    28.621254    125329.93   -1533.2052    134.42269   -1667.6279    2315.5414 
  191050    259.21521   -439.02062    125327.91   -1533.2145    137.20787   -1670.4224    2315.1153 
  191100     256.9273   -412.65106    125325.89   -1533.2146    135.99683   -1669.2115    2316.0571 
  191150    259.96688    -633.1501    125323.87   -1533.2327    137.60574   -1670.8385    2317.3486 
  191200    254.62372   -778.99909    125321.85   -1533.2068     134.7775   -1667.9843    2317.4631 
  191250    253.56858   -750.18422    125319.83   -1533.2259      134.219   -1667.4449    2318.4957 
  191300    254.53944   -15.191406    125317.81   -1533.2278    134.73289   -1667.9607    2318.8683 
  191350    256.29273   -571.92683    125315.79   -1533.2262    135.66094   -1668.8872     2318.701 
  191400    259.93837   -130.54242    125313.77   -1533.2392    137.59065   -1670.8299     2318.308 
  191450    254.24701   -94.583747    125311.75   -1533.2271     134.5781   -1667.8052    2318.2361 
  191500    261.20783     150.2637    125309.73   -1533.2449     138.2626   -1671.5075    2319.5382 
  191550    257.17164   -115.72495    125307.71   -1533.2329    136.12617   -1669.3591    2321.3684 
  191600    253.70433   -8.5631895    125305.69    -1533.236    134.29085   -1667.5269    2321.4659 
  191650     255.9595   -179.26837    125303.67   -1533.2446    135.48456   -1668.7291    2321.7865 
  191700    260.91924   -425.92917    125301.65    -1533.257    138.10985   -1671.3669    2322.6109 
  191750    254.16071   -562.45476    125299.63     -1533.25    134.53242   -1667.7825    2323.2922 
  191800    256.29516     -478.761    125297.61   -1533.2706    135.66223   -1668.9328    2323.1136 
  191850     256.1352   -962.28688    125295.59   -1533.2588    135.57756   -1668.8364    2323.5229 
  191900    255.25372    148.80811    125293.57   -1533.2563    135.11098   -1668.3673    2323.8801 
  191950     254.9137   -836.48572    125291.55   -1533.2648    134.93099   -1668.1958    2324.7364 
  192000    256.31784   -476.97873    125289.53   -1533.2661    135.67423   -1668.9403    2324.2746 
  192050    251.55713   -85.893124    125287.51   -1533.2637     133.1543    -1666.418    2324.2974 
  192100    257.74219   -603.66572    125285.49   -1533.2786    136.42817   -1669.7068    2324.8559 
  192150    251.07575   -321.73592    125283.47   -1533.2572    132.89949   -1666.1567    2325.3918 
  192200    253.93176    308.34205    125281.45   -1533.2834    134.41123   -1667.6946    2325.1284 
  192250    251.65235   -340.02177    125279.43   -1533.2814    133.20469   -1666.4861    2326.2878 
  192300    254.23262    -960.0139     125277.4   -1533.2758    134.57049   -1667.8463    2326.3092 
  192350    257.26119   -14.402569    125275.38   -1533.3057    136.17357   -1669.4793    2326.4135 
  192400    255.46362   -656.61282    125273.36   -1533.2978    135.22208   -1668.5198    2325.3146 
  192450    255.35353   -367.91858    125271.34   -1533.2851     135.1638   -1668.4489    2326.4617 
  192500    257.61554   -597.37044    125269.32   -1533.2959    136.36113    -1669.657     2327.104 
  192550    252.91159   -161.88569    125267.29   -1533.2875    133.87124   -1667.1587     2325.923 
  192600    255.88154   -456.31792    125265.27   -1533.3026    135.44329   -1668.7458     2327.216 
  192650    260.92898    192.17138    125263.25   -1533.3219    138.11501   -1671.4369    2328.2909 
  192700    259.30316   -44.359559    125261.23   -1533.3141    137.25443   -1670.5685    2328.9314 
  192750      253.061   -386.05614    125259.21   -1533.2975    133.95032   -1667.2478    2330.3839 
  192800    255.88521     100.5491    125257.18   -1533.3177    135.44524    -1668.763    2331.2921 
  192850    259.31102    154.13469    125255.17   -1533.3206    137.25859   -1670.5792    2331.9963 
  192900    254.81701   -20.109364    125253.15   -1533.3139    134.87981   -1668.1937    2334.3499 
  192950     257.9426   -421.68735    125251.13   -1533.3306    136.53425   -1669.8649    2335.6365 
  193000     255.3703   -326.48404    125249.11   -1533.3191    135.17268   -1668.4918    2337.2736 
  193050    256.69793   -668.81674     125247.1   -1533.3298    135.87543   -1669.2053    2338.4246 
  193100    258.50521   -568.30781    125245.08   -1533.3408    136.83205   -1670.1728     2338.356 
  193150    252.82749   -309.20822    125243.06   -1533.3307    133.82672   -1667.1574    2338.1333 
  193200    252.72519   -796.83359    125241.05   -1533.3318    133.77257   -1667.1044    2338.0411 
  193250    259.09199   -575.25506    125239.03   -1533.3428    137.14265   -1670.4855    2338.6743 
  193300    255.80531   -333.32254    125237.02     -1533.35    135.40294   -1668.7529    2339.8378 
  193350    256.42654   -370.14117       125235   -1533.3557    135.73177   -1669.0875    2339.5495 
  193400    256.02549    -505.7341    125232.98   -1533.3502    135.51949   -1668.8696    2339.3325 
  193450     255.8362   -883.22716    125230.97   -1533.3659    135.41929   -1668.7852    2339.5062 
  193500    252.35302   -121.93286    125228.95   -1533.3601    133.57558   -1666.9356    2340.3441 
  193550    249.01434    93.342118    125226.93   -1533.3538    131.80834   -1665.1621     2340.534 
  193600    255.03483    -373.0473    125224.91   -1533.3696    134.99511   -1668.3647    2342.7571 
  193650    252.44868   -458.06313    125222.89   -1533.3637    133.62621   -1666.9899    2344.4991 
  193700     254.1819   -75.880228    125220.88   -1533.3629    134.54364   -1667.9065     2345.948 
  193750     256.0606    38.651217    125218.86   -1533.3748    135.53807   -1668.9129     2346.595 
  193800    255.59731   -437.12661    125216.84   -1533.3648    135.29284   -1668.6577    2347.1025 
  193850    260.41255   -239.68366    125214.82   -1533.3821    137.84165   -1671.2238    2347.5381 
  193900    254.52664   -606.20215    125212.81   -1533.3823    134.72611   -1668.1084    2348.6924 
  193950    260.01476   -1412.5838    125210.79   -1533.4043    137.63109   -1671.0354    2349.3196 
  194000     255.7065   -399.57818    125208.78    -1533.388    135.35064   -1668.7386    2348.8891 
  194050    256.81873   -2.3311189    125206.76   -1533.3967    135.93937   -1669.3361    2349.5264 
  194100    255.52618   -637.23139    125204.74   -1533.4014     135.2552   -1668.6566    2349.6627 
  194150    252.90688   -94.643882    125202.73   -1533.4022    133.86874    -1667.271    2351.4356 
  194200    252.67393   -71.179237    125200.71   -1533.3879    133.74544   -1667.1334     2353.243 
  194250    255.63118   -826.30543    125198.69   -1533.4068    135.31077   -1668.7176    2353.8899 
  194300    251.44605   -821.02338    125196.68   -1533.3924     133.0955   -1666.4879    2354.1016 
  194350    256.23513   -459.95448    125194.66   -1533.4119    135.63046   -1669.0424    2353.7488 
  194400    254.28052   -480.53625    125192.64   -1533.4131    134.59584   -1668.0089    2354.4306 
  194450    253.65349   -450.84568    125190.62   -1533.4095    134.26394   -1667.6735    2355.9774 
  194500    257.07348   -657.01235     125188.6   -1533.4198    136.07421    -1669.494    2357.5357 
  194550    255.52837   -603.08468    125186.58   -1533.4353    135.25635   -1668.6916    2359.3602 
  194600    257.16179   -707.36833    125184.57   -1533.4357    136.12095   -1669.5567    2359.6376 
  194650    254.04409   -115.72945    125182.55   -1533.4215    134.47069   -1667.8922    2358.0567 
  194700    255.81888   -493.70633    125180.53   -1533.4196    135.41012   -1668.8297    2358.3574 
  194750    258.33416   -456.10085    125178.51   -1533.4461    136.74152   -1670.1876    2357.8373 
  194800    255.19613   -664.06047     125176.5   -1533.4317    135.08049   -1668.5122    2357.9608 
  194850    253.39391   -430.38634    125174.48   -1533.4395    134.12654    -1667.566    2359.3038 
  194900    257.04246   -584.85588    125172.46   -1533.4565    136.05779   -1669.5143    2359.9856 
  194950    253.49632   -589.22116    125170.44   -1533.4506    134.18074   -1667.6313    2360.7182 
  195000    258.60958   -558.49054    125168.42   -1533.4493     136.8873   -1670.3366    2360.7373 
  195050    256.27518   -395.21077     125166.4   -1533.4591    135.65166   -1669.1107    2361.4017 
  195100    258.68148   -551.30434    125164.39    -1533.462    136.92536   -1670.3873    2361.8009 
  195150     255.4806   -163.38116    125162.37   -1533.4556    135.23106   -1668.6867    2362.1398 
  195200    258.33595   -268.44672    125160.35   -1533.4649    136.74246   -1670.2074    2363.1994 
  195250    257.61176    287.32662    125158.33   -1533.4675    136.35913   -1669.8266    2364.1435 
  195300     260.0282    6.1804118    125156.31    -1533.469     137.6382   -1671.1072    2363.7742 
  195350    254.69427   -864.57571    125154.29   -1533.4631    134.81484   -1668.2779    2365.6254 
  195400    254.06611    69.759835    125152.28   -1533.4778    134.48235   -1667.9602    2365.4364 
  195450    255.37734   -685.67686    125150.26   -1533.4783    135.17641   -1668.6547    2366.3065 
  195500    253.37805   -571.22345    125148.25   -1533.4788    134.11815    -1667.597    2366.9141 
  195550    256.54461   -118.99734    125146.23   -1533.4973    135.79427   -1669.2916    2367.7002 
  195600    257.20368   -517.13173    125144.21   -1533.4754    136.14313   -1669.6185    2369.3668 
  195650    253.41565    17.628315     125142.2   -1533.4855    134.13805   -1667.6235    2369.9205 
  195700    252.82538   -638.20067    125140.18    -1533.486    133.82561   -1667.3117    2369.6774 
  195750    257.02204   -868.77281    125138.16   -1533.4984    136.04698   -1669.5454     2369.572 
  195800    251.27078   -290.87073    125136.15   -1533.4865    133.00272   -1666.4892    2369.7299 
  195850    251.13104   -398.04785    125134.13   -1533.4911    132.92876   -1666.4198    2370.4058 
  195900    254.53787   -211.30416    125132.11   -1533.5071    134.73206   -1668.2392    2371.0031 
  195950    252.99685   -296.82805    125130.09   -1533.5013    133.91637   -1667.4177    2371.5984 
  196000    255.29596    165.79732    125128.07   -1533.5199    135.13333   -1668.6532    2372.3312 
  196050    254.42263   -55.452501    125126.06   -1533.5051    134.67106   -1668.1761    2372.0522 
  196100    255.26126   -465.54411    125124.04    -1533.515    135.11497     -1668.63    2373.1634 
  196150    252.15976   -415.59206    125122.02   -1533.5019    133.47328   -1666.9751    2373.4239 
  196200    254.51648   -37.073191    125120.01   -1533.5182    134.72074   -1668.2389    2374.1007 
  196250    257.72719   -147.45041    125117.99   -1533.5308    136.42023    -1669.951    2375.0827 
  196300    253.40964    29.106105    125115.98   -1533.5101    134.13486    -1667.645    2376.0174 
  196350     256.2367    120.37796    125113.96   -1533.5274    135.63129   -1669.1587    2375.6339 
  196400    258.49768   -380.34482    125111.95   -1533.5319    136.82807     -1670.36    2376.2512 
  196450    256.03361   -571.77695    125109.94   -1533.5411    135.52378   -1669.0649    2377.1471 
  196500    252.46668   -479.16516    125107.93   -1533.5272    133.63574   -1667.1629    2377.4295 
  196550    253.93629   -703.13489    125105.92   -1533.5379    134.41363   -1667.9516    2378.6107 
  196600    252.90975   -829.88066     125103.9   -1533.5396    133.87026   -1667.4098    2379.8475 
  196650    257.72184   -526.43204    125101.89   -1533.5495     136.4174   -1669.9669    2379.8554 
  196700     255.4008    -4.499736    125099.88   -1533.5562    135.18883   -1668.7451    2379.6851 
  196750    252.68423   -155.88895    125097.87   -1533.5441    133.75089    -1667.295    2379.8112 
  196800     257.0539   -123.20726    125095.86   -1533.5627    136.06385   -1669.6266    2380.4105 
  196850    256.61716   -692.91643    125093.85    -1533.558    135.83267   -1669.3907    2380.2979 
  196900    253.96863   -658.92018    125091.85    -1533.561    134.43075   -1667.9918     2381.516 
  196950    254.44826   -638.66819    125089.84   -1533.5693    134.68463    -1668.254    2383.0548 
  197000    250.60379   -858.09799    125087.83   -1533.5526    132.64967   -1666.2022    2383.9232 
  197050    254.52762     -744.371    125085.82   -1533.5737    134.72664   -1668.3004    2384.9649 
  197100    253.92282     -479.498    125083.81   -1533.5739     134.4065   -1667.9804    2385.5821 
  197150    253.85757   -381.69244    125081.79   -1533.5818    134.37196   -1667.9538    2386.2165 
  197200    252.02165   -351.11849    125079.78   -1533.5731    133.40017   -1666.9733    2386.1226 
  197250     256.9223   -434.47351    125077.77   -1533.5888    135.99419    -1669.583    2388.3231 
  197300    253.78923   -46.370278    125075.76   -1533.5836    134.33579   -1667.9194    2389.9117 
  197350    257.57785   -484.98184    125073.74   -1533.5987    136.34118   -1669.9399    2391.4812 
  197400    252.94843     -89.7337    125071.73   -1533.5886    133.89074   -1667.4794    2393.3947 
  197450    252.35436   -701.72234    125069.72   -1533.5873    133.57628   -1667.1636    2394.0455 
  197500    251.16766   -454.22025    125067.71   -1533.5863    132.94814   -1666.5345    2394.4604 
  197550     250.7141   -624.65521     125065.7   -1533.5929    132.70806   -1666.3009    2394.9858 
  197600    261.32234   -73.160958    125063.69   -1533.6243    138.32322   -1671.9475    2394.8304 
  197650    252.62111    110.80235    125061.68   -1533.6106    133.71748   -1667.3281    2395.7866 
  197700    256.52596   -489.75547    125059.67   -1533.6163     135.7844   -1669.4007    2397.9637 
  197750     252.7258    -414.2385    125057.66   -1533.6048     133.7729   -1667.3777    2398.6605 
  197800    253.16386   -428.20868    125055.65    -1533.612    134.00477   -1667.6168    2399.3747 
  197850    253.38827   -695.92345    125053.64   -1533.6219    134.12355   -1667.7455       2400.3 
  197900    253.58962   -247.63578    125051.63   -1533.6252    134.23013   -1667.8553    2400.7499 
  197950    255.29609   -296.12563    125049.61   -1533.6244     135.1334   -1668.7578    2402.1515 
  198000    252.23192   -336.73018     125047.6   -1533.6211    133.51148   -1667.1326     2402.172 
  198050    254.73298   -385.04441    125045.59   -1533.6383    134.83534   -1668.4736    2401.8996 
  198100    251.79843   -516.22707    125043.58   -1533.6315    133.28202   -1666.9135    2402.6096 
  198150    253.55053    -711.0505    125041.57   -1533.6295    134.20944   -1667.8389    2402.8503 
  198200    255.90769   -121.75677    125039.55   -1533.6496    135.45713   -1669.1068     2402.786 
  198250    254.51856    225.16383    125037.54   -1533.6377    134.72184   -1668.3596    2403.0863 
  198300    252.66791   -708.06887    125035.53   -1533.6456    133.74225   -1667.3879    2404.9376 
  198350    256.61751   -346.35519    125033.52   -1533.6641    135.83286    -1669.497    2405.4888 
  198400    255.05712   -630.62486     125031.5    -1533.641    135.00691   -1668.6479    2405.5094 
  198450    252.66775    31.856769    125029.49   -1533.6478    133.74217     -1667.39    2404.8817 
  198500    254.75655   -212.60601    125027.48   -1533.6691    134.84781   -1668.5169    2405.8923 
  198550    258.39208   -1114.0796    125025.46   -1533.6755    136.77217   -1670.4476    2406.6242 
  198600    253.97123   -360.70093    125023.45   -1533.6722    134.43212   -1668.1043    2406.8985 
  198650    251.12599    132.08534    125021.43   -1533.6675    132.92608   -1666.5936      2407.57 
  198700    254.22543   -285.98681    125019.42   -1533.6599    134.56668   -1668.2266    2407.6031 
  198750    252.05292     -651.397    125017.41   -1533.6777    133.41673   -1667.0944    2408.5805 
  198800    257.69765   -1102.4654    125015.39   -1533.6771     136.4046   -1670.0817    2409.1774 
  198850    251.89813   -593.18339    125013.38   -1533.6799    133.33479   -1667.0147    2409.9381 
  198900    253.08592    -387.4613    125011.36   -1533.6789    133.96351   -1667.6424    2410.0677 
  198950     255.5092   -900.75337    125009.34     -1533.69     135.2462   -1668.9362    2412.6125 
  199000    252.03297   -304.42075    125007.32   -1533.6822    133.40617   -1667.0884    2412.0438 
  199050     255.6194   -259.49881    125005.31   -1533.6989    135.30454   -1669.0034    2411.9066 
  199100     255.8533   -984.73976    125003.29   -1533.6964    135.42834   -1669.1247    2412.0671 
  199150    254.02082    -142.1743    125001.27   -1533.6944    134.45838   -1668.1528    2412.5464 
  199200    258.07248   -653.87194    124999.25   -1533.7098      136.603   -1670.3128    2411.8811 
  199250    255.45811   -498.99253    124997.23   -1533.7096    135.21916   -1668.9288    2412.5351 
  199300    253.02305   -286.47981    124995.21   -1533.7021    133.93023   -1667.6323    2413.5283 
  199350    254.13106   -509.21658    124993.19   -1533.7057    134.51673   -1668.2224    2413.3873 
  199400    253.35391    -477.7775    124991.17   -1533.7137    134.10537    -1667.819    2414.1454 
  199450    252.76479   -224.98163    124989.15   -1533.7209    133.79353   -1667.5145    2414.6501 
  199500    255.42685   -754.49133    124987.13   -1533.7286    135.20261   -1668.9312    2414.8203 
  199550    255.12677    161.70956    124985.11   -1533.7344    135.04378   -1668.7782    2415.2991 
  199600    254.47791   -201.45472    124983.09   -1533.7297    134.70032     -1668.43    2415.3933 
  199650    259.31521   -508.59434    124981.06   -1533.7402     137.2608    -1671.001    2414.3705 
  199700    259.77444    60.318737    124979.04   -1533.7431    137.50389    -1671.247    2415.1657 
  199750    259.94475   -364.57184    124977.02   -1533.7446    137.59403   -1671.3386    2415.7153 
  199800    259.34232    38.692416    124975.01   -1533.7425    137.27515   -1671.0177    2416.6574 
  199850    256.54484   -37.556729    124972.99   -1533.7481    135.79439   -1669.5424    2415.4981 
  199900     256.8804   -250.27418    124970.97   -1533.7498    135.97201   -1669.7218    2415.1996 
  199950    261.11348   -148.85663    124968.95   -1533.7586    138.21266   -1671.9713    2415.4281 
  200000    253.67769   -110.73353    124966.94    -1533.748    134.27675   -1668.0248    2414.8763 
Loop time of 314.696 on 12 procs for 200000 steps with 4096 atoms

Performance: 274.550 ns/day, 0.087 hours/ns, 635.533 timesteps/s
99.6% CPU use with 12 MPI tasks x no OpenMP threads

MPI task timing breakdown:
Section |  min time  |  avg time  |  max time  |%varavg| %total
---------------------------------------------------------------
Pair    | 208.46     | 255.68     | 277.21     | 140.4 | 81.25
Neigh   | 6.2942     | 7.5336     | 8.1028     |  22.2 |  2.39
Comm    | 22.046     | 43.677     | 91.979     | 347.2 | 13.88
Output  | 0.34161    | 0.36426    | 0.60739    |  12.1 |  0.12
Modify  | 5.9553     | 6.261      | 6.4669     |   6.6 |  1.99
Other   |            | 1.186      |            |       |  0.38

Nlocal:    341.333 ave 370 max 233 min
Histogram: 1 0 0 0 0 1 0 2 2 6
Nghost:    958.667 ave 1000 max 897 min
Histogram: 1 1 0 1 2 1 0 2 1 3
Neighs:    0 ave 0 max 0 min
Histogram: 12 0 0 0 0 0 0 0 0 0
FullNghs:  10118.3 ave 11281 max 6015 min
Histogram: 1 0 0 0 0 1 0 2 3 5

Total # of neighbors = 121420
Ave neighs/atom = 29.6436
Neighbor list builds = 13310
Dangerous builds = 0

undump              1
unfix               2




################################################
#######         Run Simulation         #########
################################################

reset_timestep      0
log                 log.run_${NAME}
log                 log.run_ice_230K_1atm_ML_metal
