
# Set production fixes - Nose/Hoover
#
fix                 2 all nph iso ${PRES} ${PRES} ${PCOUPL}
fix                 2 all nph iso 1 ${PRES} ${PCOUPL}
fix                 2 all nph iso 1 1 ${PCOUPL}
fix                 2 all nph iso 1 1 10.000
fix                 3 all temp/csvr ${TEMP} ${TEMP} ${TCOUPL} 837492
fix                 3 all temp/csvr 230 ${TEMP} ${TCOUPL} 837492
fix                 3 all temp/csvr 230 230 ${TCOUPL} 837492
fix                 3 all temp/csvr 230 230 5.000 837492

# Define Order parameter
#
compute             2 all orientorder/atom nnn NULL cutoff 3.5
thermo              1000
thermo_style        custom step temp press vol etotal ke pe c_1[4]

# Run 0.5ns simulation
dump		    1 all custom 1000 prod.${NAME}.dump id type x y z vx vy vz c_2[*]
dump		    1 all custom 1000 prod.ice_230K_1atm_ML_metal.dump id type x y z vx vy vz c_2[*]
run                 100000
Neighbor list info ...
  update every 1 steps, delay 0 steps, check yes
  max neighbors/atom: 2000, page size: 100000
  master list distance cutoff = 6.00329
  ghost atom cutoff = 6.00329
  binsize = 3.00165, bins = 17 17 17
  2 neighbor lists, perpetual/occasional/extra = 1 1 0
  (1) pair sw, perpetual
      attributes: full, newton on
      pair build: full/bin/atomonly
      stencil: full/bin/3d
      bin: standard
  (2) compute orientorder/atom, occasional, copy from (1)
      attributes: full, newton on
      pair build: copy
      stencil: none
      bin: none
Per MPI rank memory allocation (min/avg/max) = 5.765 | 5.765 | 5.766 Mbytes
Step Temp Press Volume TotEng KinEng PotEng c_1[4] 
       0    233.18084   -203.29009     131841.9   -1899.7235    123.42735   -2023.1508   0.11432561 
    1000    228.72604    218.72075    131395.42    -1903.038    121.06934   -2024.1073   0.11570331 
    2000      226.987   -230.86538    131869.59   -1903.4673    120.14882   -2023.6161   0.11138023 
    3000    227.90381    246.81486    131320.46   -1906.0946    120.63411   -2026.7287   0.10686843 
    4000    233.62048   -346.65688    132037.49   -1904.4009    123.66006   -2028.0609  0.099717709 
    5000    233.22631    481.83003    131097.05   -1903.5593    123.45142   -2027.0107   0.10704645 
    6000    233.31334   -366.08105    132061.67   -1901.0596    123.49748   -2024.5571   0.10856952 
    7000    231.73803    217.21832    131361.01   -1902.7325    122.66364   -2025.3961   0.11261306 
    8000    231.92872   -99.843112     131775.6   -1901.3172    122.76458   -2024.0817   0.10832972 
    9000      230.117    76.127369    131553.31   -1899.3799     121.8056   -2021.1855   0.11022987 
   10000    231.37946   -125.33661    131757.72   -1900.5765    122.47384   -2023.0503   0.11305583 
   11000    232.83009    106.47151    131521.89   -1901.8059    123.24169   -2025.0476   0.11275605 
   12000    226.27945   -87.953616    131703.59   -1904.5587    119.77431    -2024.333   0.11428911 
   13000    230.88947    108.07639       131532   -1902.8091    122.21448   -2025.0236   0.10873109 
   14000    226.85856   -143.46824    131755.32   -1902.6802    120.08084   -2022.7611   0.10803508 
   15000    225.63764    110.91988    131492.29    -1905.066    119.43458   -2024.5005   0.10533596 
   16000    227.07521   -114.64767    131700.28   -1906.3303    120.19552   -2026.5258   0.10713547 
   17000    232.91808    44.740835    131552.11   -1904.4221    123.28826   -2027.7104   0.11009533 
   18000    224.08454   -21.955951    131619.25   -1908.1989    118.61249   -2026.8114    0.1090073 
   19000    230.51461    6.1287038    131628.31   -1907.0096    122.01606   -2029.0257   0.10463084 
   20000    225.52065    41.995169    131578.51    -1906.684    119.37266   -2026.0567   0.10827934 
   21000    232.56986   -79.273462    131684.69   -1906.5296    123.10395   -2029.6335   0.11089007 
   22000    230.91428    42.983501    131559.67   -1903.4033    122.22761   -2025.6309    0.1179594 
   23000    232.45601   -80.930489    131760.65   -1903.4627    123.04368   -2026.5064    0.1099918 
   24000    227.91705    68.102368    131546.57   -1902.9996    120.64112   -2023.6408   0.11133473 
   25000    230.90247   -159.30213    131818.45   -1900.6838    122.22136   -2022.9051   0.11094371 
   26000    234.26614    212.44491    131377.67   -1902.6799    124.00182   -2026.6817   0.11182662 
   27000    229.25031   -309.29591    131922.37   -1904.8101    121.34684    -2026.157   0.11212191 
   28000    232.71263    337.74215    131248.02   -1903.2387    123.17952   -2026.4183   0.11463814 
   29000    226.80427    -286.8601    131918.92    -1906.046    120.05211   -2026.0981   0.11028784 
   30000    230.08105    207.21029    131413.53   -1903.0702    121.78657   -2024.8568   0.11264673 
   31000    229.53162   -187.88927    131832.88   -1901.9217    121.49574   -2023.4174   0.11806767 
   32000    232.08123    123.35006     131474.8   -1901.9938    122.84531   -2024.8391   0.11965332 
   33000    231.49223   -149.24517    131802.97    -1902.049    122.53354   -2024.5825   0.11716661 
   34000    230.68028    158.35812    131447.62   -1900.7649    122.10375   -2022.8687   0.11723353 
   35000    232.40049   -207.73974    131823.47   -1905.1902     123.0143   -2028.2045   0.10863529 
   36000      230.937    211.91871    131381.95   -1903.5809    122.23964   -2025.8205    0.1127711 
   37000    227.05989   -274.10943    131909.86   -1904.9631    120.18741   -2025.1505   0.11106811 
   38000    227.56821    431.26633     131087.4   -1904.7422    120.45647   -2025.1987    0.1173135 
   39000    225.32829   -597.98642    132287.22   -1905.7026    119.27083   -2024.9734   0.11026901 
   40000    224.14161    444.41378    131060.23   -1908.4789     118.6427   -2027.1216   0.11048765 
   41000    225.81936   -248.47591    131852.82   -1907.5409    119.53077   -2027.0717    0.1097661 
   42000     227.3825    173.29365    131358.96     -1906.37    120.35817   -2026.7281   0.11872247 
   43000    224.35196   -206.53234    131803.86     -1908.21    118.75405    -2026.964   0.11417327 
   44000    226.17068    147.05928    131386.15   -1907.4749    119.71673   -2027.1916   0.11664844 
   45000    223.97229   -192.90426    131773.59   -1906.0583    118.55308   -2024.6114   0.11262335 
   46000    229.32951    144.49369    131420.36   -1906.8115    121.38876   -2028.2002   0.10910946 
   47000    227.88074   -163.09118    131777.42   -1905.4829     120.6219   -2026.1048   0.11195061 
   48000     229.0852    174.81394    131429.66    -1900.595    121.25944   -2021.8545    0.1142067 
   49000     235.7005   -212.23494    131898.87     -1899.37    124.76106   -2024.1311    0.1077527 
   50000    235.14098    244.23646       131376    -1901.007    124.46489   -2025.4719   0.10545231 
   51000    233.69556   -140.03016    131816.73   -1901.5367     123.6998   -2025.2365   0.10259009 
   52000    239.24449    83.866237    131587.17   -1899.5896    126.63697   -2026.2266   0.10811962 
   53000    234.24792    -44.49224    131701.04   -1900.3703    123.99218   -2024.3625   0.11051313 
   54000    234.75669    36.690583    131616.19   -1901.7617    124.26148   -2026.0232   0.10916083 
   55000    232.96672   -61.209049    131741.65   -1900.9128    123.31401   -2024.2268   0.10631069 
   56000    230.21417     61.18331    131594.07   -1902.3568    121.85703   -2024.2139   0.10531145 
   57000    232.75224   -34.305461    131702.84   -1902.0185    123.20048    -2025.219   0.10691258 
   58000    231.00393    83.358248    131552.19   -1903.6638    122.27507   -2025.9388    0.1100577 
   59000    231.65883   -21.998852    131645.31   -1906.0395    122.62172   -2028.6612   0.10596818 
   60000    232.69366   -9.0878051    131606.48   -1903.2139    123.16948   -2026.3833   0.10710136 
   61000    230.16629   -14.139847    131637.92   -1902.0878    121.83169   -2023.9195    0.1062485 
   62000     229.4708   -51.231875    131677.44    -1902.421    121.46355   -2023.8845   0.10810081 
   63000    231.58196    63.818071    131598.53   -1900.4351    122.58103   -2023.0162   0.11049802 
   64000    232.59373   -43.047031    131709.73   -1899.6132    123.11658   -2022.7297   0.11091717 
   65000    233.04257    40.621047    131637.37   -1901.3181    123.35416   -2024.6723   0.10933175 
   66000    231.03824   -35.521696     131702.8    -1902.584    122.29323   -2024.8772   0.10731825 
   67000    232.94648    97.630262    131572.23   -1903.8443     123.3033   -2027.1476   0.10517257 
   68000    232.42747   -107.61816    131761.68   -1902.4317    123.02858   -2025.4603   0.11381638 
   69000     230.7727    127.19655    131483.21   -1902.9509    122.15267   -2025.1036   0.11750467 
   70000    232.44512    -195.6216    131859.63   -1902.3242    123.03792   -2025.3622   0.11112488 
   71000    233.86683    325.67281    131288.06   -1903.7074    123.79046   -2027.4979   0.10774889 
   72000    228.07339   -354.71712    132013.69   -1903.7049    120.72387   -2024.4288   0.10620367 
   73000    228.18436    383.06993    131156.89   -1905.6462    120.78261   -2026.4288   0.11173098 
   74000    230.44561   -294.82426    131980.48   -1906.3274    121.97954   -2028.3069   0.10658441 
   75000    231.70596    345.33354    131280.99   -1905.2177    122.64667   -2027.8644   0.10488025 
   76000    229.24119    -242.2666     131886.9   -1902.3574    121.34202   -2023.6994   0.11210826 
   77000    231.21962    227.46724    131405.59   -1901.9798    122.38924    -2024.369   0.10940482 
   78000    228.04517   -194.90261    131835.61   -1904.0909    120.70894   -2024.7998   0.11093096 
   79000    231.32666    177.61206    131413.28   -1904.0303     122.4459   -2026.4762   0.11686389 
   80000    228.04735   -199.99371    131820.74   -1902.5288    120.71009   -2023.2389   0.11647868 
   81000    230.36397     177.3916    131410.52   -1901.3711    121.93633   -2023.3074   0.11394291 
   82000    235.22881   -240.66649    131880.11   -1899.6179    124.51138   -2024.1293   0.10968133 
   83000    231.48536    250.39258    131323.85    -1903.163     122.5299   -2025.6929   0.11153855 
   84000    232.38946   -260.28638    131914.64   -1904.0999    123.00846   -2027.1084    0.1091735 
   85000    230.69035     236.1531    131336.37   -1902.9412    122.10908   -2025.0503   0.11213167 
   86000    234.64333   -115.57086    131809.89   -1900.5374    124.20148   -2024.7389   0.10723332 
   87000    233.91294    75.967579    131510.46   -1902.1578    123.81487   -2025.9727   0.11110869 
   88000    228.13474   -65.549265    131671.65   -1901.1784    120.75635   -2021.9347   0.11421067 
   89000    229.34019   -8.9885113    131606.72   -1902.5994    121.39442   -2023.9938   0.11596286 
   90000    230.56363    6.5255645    131607.83   -1902.7953    122.04201   -2024.8373   0.11684461 
   91000    228.29063   -38.312405    131612.75   -1905.0686    120.83886   -2025.9075   0.11456641 
   92000    229.20775    26.397466    131590.57   -1905.0651    121.32431   -2026.3894    0.1112902 
   93000    230.18584   -42.574767    131653.52   -1902.9124    121.84203   -2024.7545   0.11010676 
   94000    230.86962    55.154488    131586.59   -1902.4992    122.20397   -2024.7032   0.11156601 
   95000    229.08714   -94.277045    131696.53   -1906.4563    121.26047   -2027.7168   0.10991361 
   96000    229.23032    130.83367    131489.39    -1904.378    121.33626   -2025.7142   0.10921874 
   97000    229.02841   -79.389246    131711.09   -1906.8375    121.22939   -2028.0669   0.10746629 
   98000     231.2807    107.50376    131524.41   -1903.1742    122.42157   -2025.5957   0.11110643 
   99000    235.18681   -83.952797    131717.35   -1901.7646    124.48915   -2026.2538   0.11208362 
  100000    224.17196    43.306801    131518.85    -1906.706    118.65877   -2025.3647   0.11673657 
Loop time of 48.3457 on 12 procs for 100000 steps with 4096 atoms

Performance: 893.564 ns/day, 0.027 hours/ns, 2068.434 timesteps/s
99.0% CPU use with 12 MPI tasks x no OpenMP threads

MPI task timing breakdown:
Section |  min time  |  avg time  |  max time  |%varavg| %total
---------------------------------------------------------------
Pair    | 33.725     | 34.626     | 36.242     |  12.9 | 71.62
Neigh   | 2.6904     | 2.7393     | 2.8349     |   3.1 |  5.67
Comm    | 4.5372     | 6.2309     | 7.2353     |  32.7 | 12.89
Output  | 0.50417    | 0.50499    | 0.5136     |   0.4 |  1.04
Modify  | 3.4433     | 3.6579     | 3.7492     |   5.3 |  7.57
Other   |            | 0.5864     |            |       |  1.21

Nlocal:    341.333 ave 357 max 328 min
Histogram: 1 1 3 1 1 1 1 1 1 1
Nghost:    876.5 ave 908 max 855 min
Histogram: 2 2 3 1 0 0 1 0 2 1
Neighs:    0 ave 0 max 0 min
Histogram: 12 0 0 0 0 0 0 0 0 0
FullNghs:  9697.67 ave 10153 max 9328 min
Histogram: 1 1 4 0 1 2 0 1 0 2

Total # of neighbors = 116372
Ave neighs/atom = 28.4111
Neighbor list builds = 4758
Dangerous builds = 0
Total wall time: 0:01:43
