
# Define the lattice
#
variable	    lattice_constant equal 6.36339
lattice		    diamond ${lattice_constant}
lattice		    diamond 6.36339
Lattice spacing in x,y,z = 6.36339 6.36339 6.36339

# Define region
# multiples of lattice spacing
#
region 		    simbox block 0 8 0 8 0 8

# Create Atoms
#
create_box          1 simbox
Created orthogonal box = (0 0 0) to (50.9071 50.9071 50.9071)
  2 by 2 by 3 MPI processor grid
create_atoms        1 box
Created 4096 atoms
  create_atoms CPU = 0.000332117 secs
mass                1 18.015

# Define potential
#
pair_style          sw
pair_coeff          * * ML_mW.sw mW
Reading potential file ML_mW.sw with DATE: 2019-02-27

# Add velocity/set timestep
#
velocity            all create ${TEMP} 120598 rot yes dist gaussian
velocity            all create 230 120598 rot yes dist gaussian
timestep            5.0

# Define output
#
compute	            1 all msd
thermo              50
thermo_style        custom step temp press vol etotal ke pe c_1[4]

# Neighbor lists
#
neigh_modify        delay 0 every 1 check yes

# Set fixes
#
fix                 1 all momentum 10 linear 1 1 1 rescale
fix                 2 all nve
fix                 3 all temp/csvr ${TEMP} ${TEMP} 500.0 928347
fix                 3 all temp/csvr 230 ${TEMP} 500.0 928347
fix                 3 all temp/csvr 230 230 500.0 928347
fix                 4 all press/berendsen iso ${PRES} ${PRES} 1000.0 modulus 20000
fix                 4 all press/berendsen iso 1 ${PRES} 1000.0 modulus 20000
fix                 4 all press/berendsen iso 1 1 1000.0 modulus 20000

# Run 1 ns equilibration
#
dump		    1 all custom 1000 eq.${NAME}.dump id type x y z vx vy vz
dump		    1 all custom 1000 eq.ice_230K_1atm_ML.dump id type x y z vx vy vz
run                 200000
Neighbor list info ...
  update every 1 steps, delay 0 steps, check yes
  max neighbors/atom: 2000, page size: 100000
  master list distance cutoff = 6.00329
  ghost atom cutoff = 6.00329
  binsize = 3.00165, bins = 17 17 17
  1 neighbor lists, perpetual/occasional/extra = 1 0 0
  (1) pair sw, perpetual
      attributes: full, newton on
      pair build: full/bin/atomonly
      stencil: full/bin/3d
      bin: standard
Per MPI rank memory allocation (min/avg/max) = 4.742 | 4.742 | 4.742 Mbytes
Step Temp Press Volume TotEng KinEng PotEng c_1[4] 
       0          230    15468.852    131927.58   -35155.852    2807.4759   -37963.328            0 
      50    101.72846    668.27804    142083.23   -35745.673    1241.7401   -36987.413    0.7560321 
     100    157.44642   -428.51305    142505.29   -35267.888    1921.8567   -37189.744   0.98665896 
     150    169.32368   -1278.3684    140726.08   -34940.381    2066.8355   -37007.216    1.1452065 
     200    187.85205   -1486.2747    138206.46    -34746.01    2293.0005    -37039.01    1.3268826 
     250    196.73232   -1682.6062    135297.41   -34666.944    2401.3967   -37068.341    1.6299306 
     300    211.33052   -1568.8532    132444.46   -34612.637    2579.5885   -37192.226     2.100917 
     350    224.45211   -1960.4576    129584.22   -34686.683     2739.756   -37426.439    2.6945524 
     400    233.24597   -1611.0725    126695.31   -34802.406    2847.0976   -37649.504    3.4078754 
     450    241.97571   -1292.9191    124492.75    -34896.56    2953.6564   -37850.216    4.2400888 
     500    243.88633   -1225.7064    122586.97   -35046.563    2976.9783   -38023.541    5.0711118 
     550    251.88812   -1085.9795    120912.49    -35129.59    3074.6515   -38204.242     5.939012 
     600     255.3835   -578.52978    120008.27   -35250.267    3117.3175   -38367.585    6.8157023 
     650     252.5274   -209.99645     119307.7   -35412.319    3082.4548   -38494.774    7.6488746 
     700    245.77958   -230.01624    118707.25   -35547.197    3000.0881   -38547.285    8.5021241 
     750    243.83141   -416.48695    118254.38   -35667.151    2976.3079   -38643.459    9.2289917 
     800    247.89697   -90.567891    117832.44   -35730.417    3025.9338    -38756.35     9.886149 
     850    241.88738   -433.75052    117485.51   -35849.187    2952.5783   -38801.765    10.533389 
     900    242.29648   -372.58578    117152.62   -35922.042    2957.5719   -38879.614    11.122822 
     950    240.08296    49.074846    116850.97   -36054.443    2930.5528   -38984.996    11.667419 
    1000    235.95377   -69.141637     116735.7   -36138.892    2880.1502   -39019.043    12.127894 
    1050    237.08183   -306.39571    116568.68   -36201.165    2893.9198   -39095.085    12.509966 
    1100    240.80403   -443.79808    116158.93   -36220.633    2939.3544   -39159.987    12.946128 
    1150    235.82094    24.775878     115959.3   -36296.276    2878.5288   -39174.804    13.344099 
    1200    237.61931    35.918525    115746.77   -36282.716    2900.4804   -39183.197    13.724654 
    1250     235.1752   -287.52354    115561.84   -36328.686    2870.6466   -39199.333    14.158267 
    1300    240.02412    369.19144    115523.32   -36298.719    2929.8346   -39228.554    14.581639 
    1350    233.25355   -241.74113    115345.79   -36395.366    2847.1902   -39242.556    14.991058 
    1400    233.07346   -339.60079    115198.59   -36409.699    2844.9918    -39254.69    15.536072 
    1450    229.53524    79.010865    115193.64   -36495.241    2801.8028   -39297.043    15.967397 
    1500    229.58523   -19.385778    115104.64   -36486.985    2802.4131   -39289.398    16.501758 
    1550    229.58425   -358.15172    115086.96   -36462.307    2802.4011   -39264.708     16.98912 
    1600    231.09909    61.195456    114891.82   -36472.552    2820.8919   -39293.444    17.425422 
    1650    234.04368     21.07486    114729.55   -36482.904    2856.8348   -39339.739    17.835592 
    1700    229.64496    246.31709    114897.96   -36513.768    2803.1422    -39316.91    18.238901 
    1750    231.68865    -263.0375    114883.35   -36481.489    2828.0884   -39309.578     18.59587 
    1800     228.9678    103.51302    114667.34   -36498.978    2794.8765   -39293.855    19.069709 
    1850    236.33724   -158.20763    114555.25   -36481.108     2884.831   -39365.939     19.39198 
    1900    232.26484    176.87034    114690.15   -36452.965    2835.1215   -39288.086    19.831751 
    1950    231.21535   -21.606806    114628.81   -36431.036     2822.311   -39253.347    20.329397 
    2000    233.91356   -236.64934    114552.88   -36426.694    2855.2465   -39281.941    20.775142 
    2050    229.53579   -86.370017    114496.78   -36538.318    2801.8096   -39340.127    21.083212 
    2100    227.35993    59.106995    114491.56     -36554.3    2775.2502    -39329.55     21.42422 
    2150    226.74613   -173.87959    114608.63   -36535.811    2767.7579   -39303.569    21.759091 
    2200    230.16364    107.47679    114529.72    -36511.84    2809.4734   -39321.314    22.002343 
    2250    231.23816    152.01332    114424.03   -36498.035    2822.5894   -39320.624    22.414908 
    2300    232.18016    239.41311    114612.74    -36486.66    2834.0879   -39320.748    22.864172 
    2350    229.26361   -153.95856    114667.23   -36490.381    2798.4873   -39288.868    23.387169 
    2400    229.10737   -137.42603    114418.18    -36498.99    2796.5801    -39295.57    23.864009 
    2450    231.16503   -242.90073    114316.28   -36483.077    2821.6968   -39304.774    24.342982 
    2500    232.44361    43.620754    114149.16   -36516.595    2837.3037   -39353.899    24.679519 
    2550     238.6115   -459.69555    114097.68   -36503.002    2912.5915   -39415.593    25.095348 
    2600    235.91815    58.752271    114069.91   -36568.412    2879.7154   -39448.127     25.64427 
    2650    232.88786   -65.337156    113849.55   -36539.768    2842.7263   -39382.494    26.151064 
    2700    231.66416   -2.7586859    114003.05   -36587.753    2827.7894   -39415.542    26.582392 
    2750    232.92822    194.65738    114198.49   -36548.581     2843.219     -39391.8       27.096 
    2800    236.06498   -32.824156    113983.66   -36516.546    2881.5076   -39398.054    27.515164 
    2850    231.80698   -138.81474    114061.83   -36490.739    2829.5328   -39320.272    27.918898 
    2900    233.16329    65.798151    113915.61   -36531.645    2846.0883   -39377.734    28.469471 
    2950    230.64491   -170.05076    113934.75   -36558.669     2815.348   -39374.017    28.955376 
    3000    233.52503   -58.172448    114037.21   -36587.907     2850.504   -39438.411    29.542416 
    3050    231.54171   -92.085057     114082.5   -36584.576    2826.2946   -39410.871    29.957962 
    3100    231.44715    123.25423    114102.56   -36580.454    2825.1405   -39405.594    30.353062 
    3150    234.17414   -127.61009    114124.69   -36575.572    2858.4273   -39433.999    30.850068 
    3200    228.33253    205.40978    114274.44   -36637.479    2787.1221   -39424.601    31.192506 
    3250    226.09876   -205.09717    114184.59   -36718.105    2759.8558   -39477.961     31.58348 
    3300    227.46722   -98.473324     113855.2   -36708.442    2776.5598   -39485.002    32.105809 
    3350    226.67212    154.07202    113857.42   -36680.937    2766.8545   -39447.792    32.710517 
    3400    229.53817    86.052255    113909.07   -36660.297    2801.8386   -39462.136    33.032907 
    3450    229.68978   -86.324941    113987.81   -36616.779    2803.6893   -39420.469    33.459565 
    3500    234.13684   -3.3744223     113811.3   -36637.006    2857.9719   -39494.978    34.028838 
    3550    231.99111   -194.62684    113869.34   -36631.865    2831.7802   -39463.645    34.376305 
    3600    228.87856    101.19573    114093.67   -36645.665    2793.7871   -39439.452    34.818115 
    3650    229.68873   -174.38116     114096.8   -36648.154    2803.6764    -39451.83    35.202999 
    3700     228.3587  -0.45626676     114044.2   -36618.815    2787.4416   -39406.256    35.687841 
    3750    228.13588    -20.48188    114002.45   -36593.653    2784.7217   -39378.374    36.155726 
    3800    229.45177    178.66122    114187.53   -36582.219     2800.784   -39383.003    36.364832 
    3850    229.53248    6.9799472    114249.74   -36554.135    2801.7692   -39355.904    36.618069 
    3900    232.34974    27.244582    114300.94   -36586.098    2836.1578   -39422.256    36.978745 
    3950    232.35349    5.7875558    114232.19   -36622.144    2836.2036   -39458.347    37.202178 
    4000    226.03969    103.09918    114330.07   -36621.053    2759.1348   -39380.187    37.641032 
    4050    230.46662    -62.68465     114120.9   -36658.821    2813.1717   -39471.993     38.12186 
    4100    229.00292   -237.41862    113960.35   -36638.563    2795.3051   -39433.868    38.457549 
    4150    230.16035   -248.32044    113851.95    -36605.24    2809.4332   -39414.673    38.839443 
    4200    228.84358    127.62721     113935.4   -36591.978    2793.3601   -39385.338    39.269826 
    4250    231.08248   -334.12619    113809.42   -36638.763    2820.6892   -39459.452    39.580337 
    4300     225.6457     301.4929    113738.65    -36691.05    2754.3256   -39445.376    39.775248 
    4350    230.08507    165.44389     113811.8   -36595.314    2808.5144   -39403.829    40.240652 
    4400    224.79854    132.18036    113941.04   -36605.874    2743.9848   -39349.859    40.602751 
    4450    227.27899   -334.42253    113943.52   -36626.094    2774.2621   -39400.357    41.016418 
    4500    235.17262    18.032997    113697.88    -36658.04    2870.6151   -39528.655     41.49682 
    4550    229.78701   -132.76831    113517.86   -36702.175    2804.8761   -39507.051    41.867583 
    4600    227.59787    319.26757    113551.49   -36697.687    2778.1545   -39475.842    42.367522 
    4650    228.62797    147.35081     113481.6   -36675.231    2790.7284   -39465.959    42.776546 
    4700     231.3641    115.23022    113538.92   -36629.577    2824.1267   -39453.703    43.088058 
    4750    233.16167    43.041039     113787.1   -36569.983    2846.0686   -39416.052    43.479404 
    4800    234.07711    23.471095    113843.08   -36549.854    2857.2429   -39407.097    43.838961 
    4850    230.36941   -47.779709    113763.64   -36565.406    2811.9851   -39377.391    44.118847 
    4900    234.19274    77.508224     113724.9   -36522.593    2858.6542   -39381.247    44.322957 
    4950    230.41008    181.86615    114062.26   -36531.432    2812.4816   -39343.913    44.705999 
    5000    228.39241    -75.36555    114214.68   -36601.037    2787.8531    -39388.89    44.844009 
    5050      228.384    104.40703    114394.66    -36558.88    2787.7504   -39346.631    45.017451 
    5100    228.49752   -10.386572    114204.81   -36535.919     2789.136   -39325.055    45.230084 
    5150    236.52699   -116.71691    114389.39   -36494.228    2887.1471   -39381.375    45.617518 
    5200    226.55158   -46.969288    114242.16   -36584.715    2765.3831   -39350.098    45.868789 
    5250    226.57862    72.690271    113990.75   -36660.734    2765.7131   -39426.447    46.159551 
    5300    225.48082    149.61007    113973.53   -36668.074    2752.3129   -39420.387    46.468768 
    5350    227.00555   -33.711098    113840.32   -36712.562    2770.9245   -39483.487    46.940592 
    5400    229.73619    260.90965    113905.94   -36662.097    2804.2558   -39466.353    47.301576 
    5450    229.46936    147.05115    114060.09   -36647.962    2800.9988   -39448.961    47.663922 
    5500    227.42798   -195.73078    114044.94   -36632.838    2776.0808   -39408.918    47.912069 
    5550    226.99749    139.94943    113857.23   -36705.836    2770.8261   -39476.662    48.212969 
    5600    230.20499    110.23452    113960.08    -36664.48    2809.9781   -39474.458    48.691974 
    5650    228.88358   -166.80618    114052.64   -36658.064    2793.8485   -39451.913    49.043656 
    5700    229.77797   -249.26221    114151.83   -36657.679    2804.7657   -39462.445     49.38728 
    5750    227.39143   -77.814951    114147.32   -36654.109    2775.6347   -39429.743    49.586458 
    5800    227.60399     189.0613    113951.01    -36619.69    2778.2292    -39397.92    49.881073 
    5850    226.67947    -119.7518    114125.96    -36666.75    2766.9441   -39433.695    50.263704 
    5900    228.75514   -33.361969    114174.11   -36660.729    2792.2807   -39453.009    50.686155 
    5950    230.90836    132.90415    113995.08    -36679.25    2818.5637   -39497.813    51.069166 
    6000    230.73995    90.754403    113926.64   -36649.317    2816.5081   -39465.825    51.290784 
    6050    228.89682   -73.197999    113784.82   -36726.141    2794.0101   -39520.151    51.668732 
    6100     227.1145   -61.067139    114024.97    -36712.15    2772.2544   -39484.404    52.118012 
    6150    225.44339   -90.374916    113892.58   -36714.451    2751.8561   -39466.307    52.346357 
    6200    225.49798   -369.63748    113839.75   -36701.044    2752.5224   -39453.566      52.7511 
    6250    228.79157   -119.15367    113794.62   -36635.847    2792.7254   -39428.572    53.089578 
    6300    229.90752    221.46726    113915.25   -36613.295    2806.3471   -39419.642    53.219397 
    6350    226.70641    67.544322    113787.23   -36639.764    2767.2731   -39407.037     53.61448 
    6400    229.24347   -21.434562    113677.56   -36654.463    2798.2415   -39452.704    53.948415 
    6450    228.65079    88.438918    113610.17   -36689.851    2791.0069   -39480.858    54.091065 
    6500    230.72582    163.38981    113686.08   -36671.595    2816.3356    -39487.93    54.340479 
    6550    228.67478   -61.048613    113623.16   -36721.318    2791.2998   -39512.617    54.557582 
    6600    225.62676    25.706404    113816.36   -36670.263    2754.0943   -39424.358    54.920516 
    6650    230.95194    91.912773     113861.6   -36681.366    2819.0957   -39500.462    55.135705 
    6700    227.15299   -17.581161    113886.01   -36712.166    2772.7241    -39484.89    55.250362 
    6750    227.36743    89.199523    113974.19   -36704.789    2775.3417   -39480.131    55.487796 
    6800    227.95536   -81.334606    114135.92   -36664.625    2782.5183   -39447.144     55.76422 
    6850      230.281    152.18096    113916.13   -36627.172     2810.906   -39438.077    56.223032 
    6900    233.49366    159.35108    113885.17   -36615.575     2850.121   -39465.696    56.712358 
    6950    227.40631    315.45262    114046.99   -36646.548    2775.8163   -39422.364    56.910785 
    7000    227.62281    22.151273    114103.26   -36602.344     2778.459   -39380.803    57.252704 
    7050    228.49307    133.72531    113971.51   -36634.252    2789.0817   -39423.333    57.504398 
    7100    230.45235   -52.263919    113711.21   -36622.422    2812.9975   -39435.419    58.045971 
    7150    230.54143   -2.8860598    113692.06   -36651.763    2814.0848   -39465.848    58.606859 
    7200    225.73758   -41.097117    113750.99   -36711.874     2755.447   -39467.321    59.364252 
    7250    224.52445    195.62274    113805.98   -36763.051    2740.6392    -39503.69    59.904582 
    7300    226.01787   -61.231357    113945.02   -36747.056    2758.8684   -39505.924    60.222215 
    7350    226.95015    85.401915    113936.48   -36689.002    2770.2482    -39459.25    60.491343 
    7400    226.35937    179.14343    114215.88   -36653.291    2763.0369   -39416.328    60.895889 
    7450    230.45502    -1.333063    114291.85   -36607.696    2813.0301   -39420.726    61.237274 
    7500    230.43545    41.582522    114214.82   -36599.679    2812.7912   -39412.471    61.694045 
    7550    228.14388   -87.734937    114197.84   -36634.059    2784.8193   -39418.878    61.853623 
    7600    233.18692    149.82221     114262.7   -36577.411    2846.3768   -39423.788    62.260373 
    7650    230.50202   -33.896149    114314.18    -36584.93    2813.6038   -39398.534     62.74033 
    7700    229.91111    -462.4485    114303.84   -36637.318    2806.3909   -39443.709    62.973978 
    7750     227.6607   -16.724791    114240.84   -36631.608    2778.9214    -39410.53    63.392066 
    7800    226.13826   -91.614873    114227.34   -36673.802    2760.3379    -39434.14    63.738714 
    7850    229.15929   -137.57556    114053.64   -36647.486    2797.2139     -39444.7    64.209357 
    7900    227.56117   -182.78947    113875.34   -36642.078    2777.7065   -39419.784    64.502727 
    7950     229.8667   -89.448129    114003.74   -36622.647    2805.8489   -39428.496    64.870542 
    8000    232.12643   -383.42707    113870.35   -36587.367    2833.4321   -39420.799    65.237337 
    8050    230.80073    -102.9541    113890.75   -36619.294      2817.25   -39436.544    65.666838 
    8100    232.33036   -92.352198    114039.63   -36561.462    2835.9213   -39397.383    66.034261 
    8150    231.39343   -21.150426    113993.19   -36600.501    2824.4847   -39424.986    66.454368 
    8200    232.28787   -169.81319    114080.91   -36577.559    2835.4027   -39412.962    66.888491 
    8250     228.1812     84.45933    114047.96   -36594.242     2785.275   -39379.517    67.475077 
    8300    227.80961    5.7498675    114116.64   -36535.185    2780.7391   -39315.924    68.011672 
    8350    235.18171    155.44679    114120.68   -36477.904     2870.726    -39348.63    68.471208 
    8400    232.54089    275.25698    114129.41   -36498.408    2838.4911   -39336.899    68.875162 
    8450    229.64269    93.945118    114099.24   -36540.249    2803.1145   -39343.364    69.206145 
    8500     231.3115    220.50814    114068.66   -36563.803    2823.4847   -39387.288    69.727868 
    8550    230.81475   -139.69383    114051.25   -36577.816    2817.4211   -39395.237    69.888518 
    8600    230.25067   -182.26606    113803.07   -36589.315    2810.5357   -39399.851     70.37447 
    8650    233.46991   -49.804095    113611.85   -36559.324    2849.8311   -39409.155    70.730751 
    8700    232.90101    188.15083    113714.84   -36573.342    2842.8869   -39416.229    71.108814 
    8750    231.74759    -135.7909     113932.8   -36607.263    2828.8077   -39436.071     71.68898 
    8800    231.73834    193.49545    113768.29   -36600.462    2828.6948   -39429.156    71.895497 
    8850    228.07058    157.81695    113720.23   -36634.815    2783.9247    -39418.74    72.039688 
    8900     227.5904   -169.93896    113911.68   -36650.031    2778.0633   -39428.095    72.507384 
    8950    228.57022    101.85509    113829.28   -36664.583    2790.0234   -39454.606    72.808052 
    9000    230.06878    9.7608432    113859.73   -36601.001    2808.3155   -39409.317     73.31994 
    9050    225.08053    171.90372     113980.2   -36616.207    2747.4269   -39363.634    73.690288 
    9100    230.70299    183.47044    114100.28   -36631.807     2816.057   -39447.864    73.947916 
    9150    232.85298   -13.939553    114141.34   -36576.455    2842.3006   -39418.756    74.257036 
    9200    230.65144    90.057366    114260.02   -36539.153    2815.4277   -39354.581    74.347161 
    9250    230.76566    278.15373    114208.15   -36592.412    2816.8219   -39409.234    74.688425 
    9300    229.52323    176.51485    114077.59   -36655.228    2801.6563   -39456.884    74.887639 
    9350    230.29295   -88.371056     114053.6   -36654.847    2811.0519   -39465.899    75.445583 
    9400    231.40883   -6.5659917    113819.22   -36634.726    2824.6727   -39459.399     75.75875 
    9450    230.12296   -154.52643     113742.9   -36642.646    2808.9768   -39451.623    76.115714 
    9500    226.98948   -157.68494    113503.83   -36683.664    2770.7283   -39454.392    76.254893 
    9550    229.50203   -35.717954    113557.53    -36682.17    2801.3975   -39483.568    76.575796 
    9600    229.53756    -140.9188     113683.1   -36671.501    2801.8312   -39473.332    77.023408 
    9650    226.82078    610.98073    113898.07   -36619.322    2768.6691   -39387.992    77.535722 
    9700    229.48943    37.466848    113875.18   -36581.368    2801.2437   -39382.612    77.830355 
    9750    228.90237    254.91633    113949.68   -36564.795    2794.0779   -39358.873    78.150964 
    9800    233.14566   -89.753507    114029.52   -36540.831    2845.8732   -39386.704    78.308157 
    9850    231.53441    217.69176    114175.68   -36548.241    2826.2056   -39374.447     78.96924 
    9900    230.27758   -94.274108    114336.14   -36549.907    2810.8642   -39360.772    79.398915 
    9950    230.13679    65.277569    114392.84   -36546.421    2809.1456   -39355.567    79.736641 
   10000    227.17099    171.01781    114382.56   -36584.911    2772.9438   -39357.855    80.159181 
   10050    232.47245    427.61452    114489.85   -36547.772    2837.6557   -39385.428    80.753327 
   10100    228.37701    129.65193    114451.86   -36538.319     2787.665   -39325.984    81.095745 
   10150    234.61956   -434.91639    114264.66   -36501.286    2863.8642    -39365.15    81.365955 
   10200    231.21319    192.97798     114203.1   -36524.961    2822.2847   -39347.246    81.686249 
   10250    228.45156   -22.391683     114260.3     -36536.2    2788.5751   -39324.775    82.041207 
   10300    232.64823   -11.520322    114278.57   -36514.579    2839.8013    -39354.38     82.38964 
   10350    231.74387    18.540206    114493.02   -36506.231    2828.7623   -39334.993    82.857846 
   10400    236.98642   -361.96982    114393.89   -36511.328    2892.7551   -39404.083     83.03717 
   10450    226.07381   -129.29629    114270.45   -36564.237    2759.5513   -39323.788    83.426364 
   10500    232.36405    50.362353    114202.63   -36536.608    2836.3325    -39372.94    83.818205 
   10550    230.85524    408.69119     114338.1   -36527.704    2817.9154   -39345.619    84.382788 
   10600    227.66932   -2.4223154    114327.85   -36555.991    2779.0267   -39335.018    84.683642 
   10650    227.07594    132.59142    114316.79   -36574.961    2771.7836   -39346.744    85.144918 
   10700    230.12786   -89.672164    114435.57   -36578.851    2809.0366   -39387.887    85.480972 
   10750    228.45511   -123.47244    114301.31   -36585.047    2788.6183   -39373.665    85.607829 
   10800    227.24547    23.333586    114304.81   -36671.052     2773.853   -39444.905    86.024941 
   10850    225.56662   -23.247298    114134.91   -36671.971    2753.3603   -39425.331    86.541245 
   10900    224.47533    33.265067    113976.31   -36684.104    2740.0395   -39424.144    86.745493 
   10950    225.81624   -108.93598    113973.79   -36709.501    2756.4072   -39465.908    87.155032 
   11000    227.31492    249.16132    113985.95   -36701.891    2774.7008   -39476.592    87.447174 
   11050    230.47456   -81.729154    114022.83   -36650.968    2813.2687   -39464.237    87.728919 
   11100    230.38176   -101.81678    114105.14   -36646.216    2812.1359   -39458.352    88.163575 
   11150    228.83468   -137.91097    114137.16    -36673.25    2793.2516   -39466.501     88.64024 
   11200    221.61547    -268.9883    114220.51   -36711.209    2705.1309    -39416.34    89.026874 
   11250    225.59968    53.368195    113990.72   -36711.169    2753.7638   -39464.933    89.413431 
   11300    225.54724    95.200027     114011.9   -36656.068    2753.1237   -39409.192    89.789322 
   11350    229.17724    98.805066    113778.68   -36691.199     2797.433   -39488.632    90.096627 
   11400    228.49517    264.83543    113841.49   -36652.601    2789.1074   -39441.708    90.424481 
   11450    229.25388    -129.3112    113760.88   -36633.154    2798.3685   -39431.523    90.574267 
   11500     235.1164   -133.60779    113733.23   -36592.742    2869.9289   -39462.671    91.009763 
   11550    233.98994     234.6943    114069.92   -36538.046    2856.1789   -39394.225    91.570748 
   11600    228.20696    24.413026    114187.14   -36591.982    2785.5894   -39377.571    92.234434 
   11650    234.69858    120.68548    114216.42    -36501.41    2864.8288   -39366.238    92.483993 
   11700    230.94703    232.76124    114128.93   -36472.572    2819.0358   -39291.608    92.936324 
   11750    233.16123   -53.188172    114274.46   -36470.647    2846.0632   -39316.711    93.194828 
   11800    233.64908   -135.85981    113903.15   -36539.125    2852.0181   -39391.143     93.35574 
   11850    228.47294   -36.296099     114090.3   -36555.018     2788.836   -39343.854    93.561923 
   11900    228.82574   -50.998809     114004.3   -36567.974    2793.1424   -39361.116    93.791202 
   11950     234.2175   -35.631317    113900.89   -36541.132    2858.9565   -39400.089    94.082576 
   12000    240.57835   -352.09119    113857.14   -36530.608    2936.5997   -39467.208     94.31403 
   12050    233.75278   -32.408022    113773.44   -36589.518     2853.284   -39442.802    94.678385 
   12100    229.00954   -116.01075    113791.62   -36602.289     2795.386   -39397.675    95.006919 
   12150    232.39649    14.293142     113691.3   -36614.852    2836.7285    -39451.58    95.401531 
   12200     228.2713    208.31118    113814.12   -36606.877    2786.3747   -39393.252    96.027493 
   12250    226.40805   -73.840912     113949.6   -36608.396    2763.6311   -39372.027    96.483402 
   12300    229.79518   -15.868622     113928.4   -36638.197    2804.9758   -39443.173    96.827942 
   12350    231.42801   -198.67271    113797.48   -36641.753    2824.9068    -39466.66    96.882384 
   12400    228.82795    172.01132    113669.34   -36617.928    2793.1694   -39411.098    97.048342 
   12450    229.73791     146.8314     113703.8   -36611.456    2804.2768   -39415.733    97.389666 
   12500    234.08112      502.798    113852.06   -36564.821    2857.2918   -39422.112    97.723173 
   12550    234.40413    -12.34955    113928.64   -36529.956    2861.2346    -39391.19    98.361534 
   12600    231.53855    63.033959    113964.11   -36555.091    2826.2562   -39381.347     98.72407 
   12650    230.34708     95.76396    114090.16   -36573.525    2811.7126   -39385.238    99.083329 
   12700    231.96438   -293.30542       114294   -36568.305     2831.454   -39399.759    99.389971 
   12750    229.45456    120.66385    114310.76   -36555.874    2800.8181   -39356.692    99.852535 
   12800    230.98155    -139.6985    114186.54   -36575.299    2819.4572   -39394.757    100.35633 
   12850    230.02245    249.46732    114150.72   -36580.879      2807.75   -39388.629    100.75491 
   12900      230.109   -162.55385     114123.1   -36616.406    2808.8064   -39425.213     101.1888 
   12950    228.79601    151.73024    114326.88    -36606.04    2792.7795   -39398.819    101.73959 
   13000    226.97618    4.5162366    114364.56   -36610.585    2770.5659    -39381.15    102.10984 
   13050    227.58245    121.46209     114284.9   -36618.659    2777.9664   -39396.625    102.65516 
   13100     226.9618     58.70291    114280.51   -36634.285    2770.3904   -39404.676    103.00283 
   13150    226.51192     99.93457    114467.46    -36654.38     2764.899   -39419.279    103.51787 
   13200    227.87012   -195.92135    114214.73   -36653.262    2781.4777    -39434.74    103.91715 
   13250    225.85225    88.679947    114209.62   -36649.199    2756.8468   -39406.046    104.23245 
   13300    222.97013     64.64394    114217.14   -36699.635    2721.6664   -39421.302     104.5762 
   13350    227.62171    240.00865    114399.49   -36690.618    2778.4455   -39469.063    105.06238 
   13400    224.62873    -70.13571    114286.99   -36737.667     2741.912   -39479.579    105.51835 
   13450    229.50737   -278.81403    114092.74   -36663.039    2801.4627   -39464.501    106.16586 
   13500      226.331   -32.598626    114005.17   -36656.224    2762.6906   -39418.915    106.59715 
   13550    232.20263   -268.13427    113990.23   -36641.366    2834.3622   -39475.728    106.93094 
   13600    227.27978    278.51173    113864.49   -36654.487    2774.2719   -39428.759    107.42404 
   13650    230.75172   -68.243016    113795.09   -36688.036    2816.6517   -39504.688    107.67439 
   13700    229.33729    73.206965    113722.45   -36666.452    2799.3867   -39465.838    108.19553 
   13750    231.95514   -164.17933    113768.87   -36623.406    2831.3412   -39454.747    108.55363 
   13800    231.94819    -57.47977    113765.61   -36645.179    2831.2564   -39476.436    109.03602 
   13850    235.91133   -348.30969    113652.28   -36645.317    2879.6321   -39524.949    109.06343 
   13900    227.18324    132.10494     113608.1   -36622.891    2773.0934   -39395.985    109.40413 
   13950    231.95034    214.83982    113708.34   -36567.958    2831.2826   -39399.241    110.08938 
   14000    233.13657   -21.451555    113713.83   -36556.783    2845.7622   -39402.545    110.52573 
   14050    232.33009    91.826677    113585.29   -36599.672    2835.9181    -39435.59      111.044 
   14100    233.34107   -198.99932       113722   -36631.086    2848.2584   -39479.344    111.59282 
   14150    228.39306    183.44772    113793.61   -36639.226    2787.8609   -39427.087    111.95523 
   14200    230.18413   -67.334455    113882.14   -36611.035    2809.7236   -39420.759    112.24913 
   14250    230.64551   -26.991717    113919.54   -36593.926    2815.3554   -39409.282    112.47053 
   14300    227.24909   -36.002253    114031.71   -36623.223    2773.8972    -39397.12    112.97117 
   14350    229.67527    -243.6806    113989.94   -36646.255    2803.5121   -39449.767    113.36788 
   14400    227.77418   -40.381804    113908.54   -36649.206    2780.3067   -39429.513    113.86423 
   14450    226.77532   -324.52537    113914.64   -36655.842    2768.1141   -39423.956    114.47298 
   14500    231.27741    76.433163    113910.58   -36657.468    2823.0685   -39480.536     115.0879 
   14550    225.85513    20.515367       113902   -36699.838     2756.882   -39456.719    115.38933 
   14600    228.29588   -308.63338    113732.22    -36663.77    2786.6748   -39450.444    115.51542 
   14650    228.05329    116.46796    113802.78   -36656.485    2783.7136   -39440.198    115.88328 
   14700     228.6665    180.38183    113985.54   -36627.272    2791.1987   -39418.471    116.16059 
   14750    235.31898    200.26746    114063.34   -36548.179    2872.4016    -39420.58    116.74964 
   14800    229.32523    52.020801    114246.14   -36592.784    2799.2394   -39392.023    117.32899 
   14850    231.50128    179.66544    114227.29   -36599.669    2825.8012   -39425.471    117.58846 
   14900    230.65305   -148.28104    114397.77   -36568.531    2815.4474   -39383.978    118.30096 
   14950     226.1046    163.67638    114262.52   -36622.604    2759.9271   -39382.532    118.75038 
   15000    231.14916    54.174908     114297.7   -36612.568     2821.503   -39434.071    119.01148 
   15050    232.54612    109.98656    114040.83    -36611.87    2838.5549   -39450.425    119.18627 
   15100    228.14296   -158.10332       114037   -36650.184    2784.8081   -39434.992    119.61874 
   15150    229.37624    256.42877    114057.92   -36634.566    2799.8621   -39434.428    119.89115 
   15200    225.30769   -53.162614    114212.79   -36607.509    2750.1996   -39357.709    120.60977 
   15250    227.76905    336.36307    114358.74     -36616.4    2780.2441   -39396.644    121.13814 
   15300    227.64707   -48.536632    114474.28   -36633.355    2778.7551    -39412.11    121.59142 
   15350    225.05153   -333.74104    114313.87   -36643.484    2747.0729   -39390.557    121.84171 
   15400    228.37354   -90.012045    114150.16   -36665.071    2787.6227   -39452.693    122.21149 
   15450    230.33069    56.024044    114085.31   -36656.856    2811.5124   -39468.368    122.40215 
   15500    230.35987    75.085564    114075.04   -36612.461    2811.8686   -39424.329    122.88354 
   15550    230.03087    223.48493    114113.67   -36541.033    2807.8527   -39348.885    123.23106 
   15600    234.13751   -143.37812    114196.72   -36515.966    2857.9801   -39373.946     123.5201 
   15650    234.43588   -21.520864     114134.2   -36510.822    2861.6221   -39372.444    123.52507 
   15700    234.32419   -124.04145    114127.75   -36506.402    2860.2589   -39366.661    123.89928 
   15750    235.42103   -119.04613    114232.47   -36487.115    2873.6473   -39360.762     124.1759 
   15800    234.26356    79.618629    113972.29   -36511.205    2859.5187   -39370.724    124.67076 
   15850    232.47063    35.660873    114101.15   -36528.078    2837.6335   -39365.711    125.10515 
   15900    231.48831    236.14132    114302.55   -36508.808    2825.6428   -39334.451    125.76521 
   15950    232.51492   -50.373619    114259.76   -36514.482    2838.1741   -39352.656    126.04125 
   16000    232.51285    90.403466    114298.92   -36543.667    2838.1489   -39381.816    126.26243 
   16050    231.87848   -640.64302    114025.14   -36600.034    2830.4054   -39430.439    126.53198 
   16100    230.72576    23.502942    113732.58   -36624.038    2816.3349   -39440.373    126.57614 
   16150    232.81326    340.02574    113842.16   -36582.464    2841.8157   -39424.279    126.97137 
   16200    234.10554   -166.95512    113944.96   -36602.914    2857.5898   -39460.503    127.24843 
   16250     228.8449   -47.844091    113964.64   -36589.265    2793.3763   -39382.641    127.64079 
   16300    227.71448   -335.11966     113978.8   -36608.343    2779.5779   -39387.921    127.83485 
   16350    236.71373   -277.89194    113988.99   -36580.595    2889.4266   -39470.022    128.07017 
   16400    232.10184   -366.01818    113823.88   -36631.339    2833.1318   -39464.471    128.24015 
   16450    232.40766    422.80986    113802.26   -36600.689    2836.8649   -39437.553    128.23006 
   16500    235.09985    -416.7514    113612.24   -36579.537    2869.7268   -39449.264    128.53226 
   16550    231.52253     176.1019    113467.09    -36600.46    2826.0606    -39426.52    128.88791 
   16600    233.95423     187.6332    113552.81   -36578.264    2855.7429   -39434.007    129.35469 
   16650    227.12025   -61.336354     113763.4   -36621.664    2772.3245   -39393.989     129.7648 
   16700    230.78389    186.46782     114056.2   -36583.864    2817.0445   -39400.908     130.3843 
   16750    227.62572    92.415732    114199.79   -36606.065    2778.4944   -39384.559    130.74531 
   16800     228.8119    451.78298    114178.67   -36612.468    2792.9735   -39405.442    131.05281 
   16850    229.21614   -452.89895    114038.08   -36611.496    2797.9079   -39409.404    131.43004 
   16900    225.09654    14.987954    113808.52   -36606.889    2747.6223   -39354.511    131.36161 
   16950    229.65168    88.250904     113708.9   -36623.365    2803.2242    -39426.59    131.56209 
   17000    226.37078   -9.3884296    113713.14   -36643.059    2763.1762   -39406.235    131.61985 
   17050    234.41642     29.20895    113642.13   -36580.095    2861.3845    -39441.48    131.82436 
   17100    230.26927     324.4555    113936.74   -36596.001    2810.7628   -39406.764    132.23066 
   17150    225.95511     -137.421    113949.53   -36633.188    2758.1024    -39391.29    132.63882 
   17200       228.81    -35.24599    113922.22   -36648.972    2792.9503   -39441.923     132.9451 
   17250    228.27524   -147.51185     113908.5   -36668.015    2786.4228   -39454.438    133.19488 
   17300    227.51208   -223.12875       113946   -36703.514    2777.1074   -39480.622    133.43124 
   17350    230.93349    34.355004    113808.96   -36684.122    2818.8705   -39502.992    133.66148 
   17400    226.42719   -93.999992     113799.7   -36737.893    2763.8648   -39501.757    134.00107 
   17450    229.13739     17.88974    113707.31    -36669.48    2796.9465   -39466.426      134.495 
   17500    232.10053    333.36904    113721.74   -36661.689    2833.1159   -39494.805    134.77143 
   17550     231.7954    153.05748    113894.06   -36633.777    2829.3914   -39463.168    135.38817 
   17600    230.56589    166.71775    113885.15   -36660.424    2814.3835   -39474.807    136.11366 
   17650    232.82298   -24.720555    113890.11   -36651.362    2841.9344   -39493.297    136.33098 
   17700    226.82536    -96.60968    114057.79   -36684.274     2768.725   -39452.999    136.58497 
   17750    226.42696   -77.363343    113876.71   -36712.698    2763.8619    -39476.56    136.84454 
   17800    225.80605    128.75886    113798.79   -36684.416    2756.2829   -39440.699     137.0797 
   17850    229.17489   -266.33727    113784.55   -36624.139    2797.4043   -39421.543    137.49301 
   17900    229.33491   -364.50461    113744.62   -36625.027    2799.3576   -39424.384    137.87914 
   17950     231.9599   -161.00557    113670.08   -36644.397    2831.3993   -39475.796    138.16098 
   18000    230.01832    179.56061    113767.31    -36594.83    2807.6996    -39402.53    138.39278 
   18050    231.60864   -77.247757    113845.13   -36557.589    2827.1117   -39384.701    138.88909 
   18100    231.93633   -105.86667    113723.01    -36556.34    2831.1116   -39387.452    139.12544 
   18150     230.0785    216.98028    113782.43    -36595.76    2808.4341   -39404.194    139.50379 
   18200     228.2629   -487.82063    113815.86   -36636.526    2786.2721   -39422.798    139.87492 
   18250    232.07555    28.347986    113718.13   -36623.058    2832.8109   -39455.869    140.41479 
   18300    229.00081     2.875808    113636.59   -36594.477    2795.2794   -39389.757    140.65785 
   18350    227.79336    143.74208    113819.83   -36626.168    2780.5408   -39406.708    141.34715 
   18400    227.67122   -236.11286    113880.51   -36678.934    2779.0499   -39457.984    141.68498 
   18450    226.79117    62.561993    113741.23   -36672.229    2768.3076   -39440.537    142.02028 
   18500    231.87281     -63.5247    113837.41   -36644.725    2830.3363   -39475.061    142.51577 
   18550     228.3215    61.011157    113931.32   -36627.047    2786.9875   -39414.034    143.05196 
   18600    227.70757    151.87667    113941.69   -36584.356    2779.4935   -39363.849    143.36882 
   18650    232.14336   -148.60717    113961.06   -36613.747    2833.6387   -39447.386    143.48938 
   18700    230.77106   -55.651451     113936.3   -36597.934    2816.8878   -39414.822    143.63956 
   18750    233.06144   -19.404769    113844.96   -36623.773    2844.8452   -39468.618    143.83464 
   18800    231.49575    333.20889    113843.78   -36629.027    2825.7337   -39454.761    144.23914 
   18850     232.1537    95.644598    113765.59   -36608.807     2833.765   -39442.571    144.51633 
   18900    228.50694   -176.62904     113913.6   -36613.181     2789.251   -39402.432    145.02086 
   18950    233.57524   -45.889148    114070.73   -36578.901    2851.1168   -39430.018    145.48206 
   19000    228.78264   -6.0563135    114074.03   -36584.286    2792.6163   -39376.903    145.92767 
   19050     228.2893    102.36415    114154.12   -36587.374    2786.5945   -39373.969    146.41929 
   19100    230.02123    40.832705    114352.54   -36558.434    2807.7351   -39366.169    146.73577 
   19150    229.35647    86.721214    114409.12   -36585.419    2799.6208    -39385.04    147.42134 
   19200    231.70564    228.11247    114360.39   -36587.695    2828.2957    -39415.99    147.70578 
   19250    233.10057   -282.75037    114466.75   -36545.111    2845.3228   -39390.434    148.29425 
   19300    235.29693    -165.7498    114334.41   -36481.585    2872.1325   -39353.717    148.43807 
   19350    236.44141   -201.35253    114391.47   -36530.957    2886.1025    -39417.06    148.77193 
   19400    234.60204   -8.7385166    114340.97    -36553.33    2863.6503   -39416.981    149.20865 
   19450    232.02946    122.35461    114377.59   -36558.885    2832.2484   -39391.134    149.60118 
   19500    234.11875    137.18321    114470.21   -36521.769    2857.7511    -39379.52    149.86789 
   19550     233.7128   -35.349287    114664.28   -36516.274    2852.7959    -39369.07    150.06417 
   19600    231.77759    191.21542    114737.87   -36525.616     2829.174    -39354.79    150.16067 
   19650    234.33809   -198.96626    114801.78   -36474.989    2860.4285   -39335.417    150.77373 
   19700    229.38228   0.20164403     114930.3   -36508.751    2799.9358   -39308.687    151.23218 
   19750    232.53356   -121.66631    114939.77    -36480.08    2838.4016   -39318.482    151.46884 
   19800    232.09273    27.160223    114562.17   -36500.241    2833.0207   -39333.262    151.61817 
   19850    236.69897   -111.51384    114618.72   -36432.711    2889.2463   -39321.957    152.32466 
   19900    231.51273    233.89248    114655.06   -36516.883    2825.9409   -39342.824    152.82057 
   19950    232.09285   -85.475282    114542.29    -36518.26    2833.0222   -39351.283    153.32478 
   20000    229.78677   -195.31893    114501.31   -36546.552    2804.8731   -39351.425    153.60129 
   20050    229.66179   -19.337353    114420.87   -36573.423    2803.3476    -39376.77    154.15479 
   20100    229.53271   -87.296766    114244.79   -36592.871     2801.772   -39394.643    154.53904 
   20150    229.60903   -138.42823    114232.54   -36599.309    2802.7035   -39402.013    154.96547 
   20200     226.5054   -294.86521       114181   -36611.891    2764.8194    -39376.71     155.3574 
   20250    231.28595    6.6009547    114234.15   -36601.498    2823.1727    -39424.67    155.70613 
   20300    231.71354   -13.792888     114376.8   -36556.866    2828.3922   -39385.258    156.09741 
   20350    231.19839    517.51859    114387.63   -36517.169     2822.104   -39339.273    156.80304 
   20400      230.266   -281.42912    114454.59   -36554.395    2810.7228   -39365.118    157.27501 
   20450    226.71256    273.61696    114257.97   -36568.039     2767.348   -39335.387    157.72471 
   20500     230.2297   -199.06453    114113.79   -36595.972    2810.2798   -39406.251    158.23823 
   20550    227.13338    197.25199     114106.6   -36648.819    2772.4848   -39421.304    158.70318 
   20600    223.99407   -142.06607    114100.46   -36620.491     2734.165   -39354.656    159.17836 
   20650    229.05573   -241.49955    113984.42   -36647.771    2795.9498   -39443.721    159.73502 
   20700    234.67922   -131.16207    113965.88   -36598.216    2864.5924   -39462.808    160.29684 
   20750    235.16998   -305.92617    113899.46   -36594.692    2870.5829   -39465.275    160.74924 
   20800    231.42823    254.82485    114048.12   -36552.824    2824.9095   -39377.733    161.49275 
   20850    231.25587   -140.83487    114318.78   -36537.067    2822.8056   -39359.873    162.02636 
   20900    227.17305     64.27973    114130.98   -36566.265     2772.969   -39339.234    162.39358 
   20950    231.99402   -127.12607    113978.39   -36587.027    2831.8158   -39418.843    162.52152 
   21000    227.79286    5.9376433    113917.97   -36600.784    2780.5347   -39381.318    162.94927 
   21050    232.44987    13.652875    113769.71   -36574.766    2837.3801   -39412.146    163.06054 
   21100    232.18889     110.1311    113844.36     -36574.8    2834.1944   -39408.994    163.26701 
   21150    230.69949    177.66907    113941.28   -36578.772    2816.0143   -39394.787     163.8477 
   21200    235.95228   -10.815766     113894.2   -36568.515     2880.132   -39448.647    164.43286 
   21250    228.69034    87.760464    113948.18   -36541.716    2791.4897   -39333.206    164.99788 
   21300    232.40108    374.20418    114025.91   -36536.501    2836.7845   -39373.285    165.41217 
   21350    234.34689    8.4143668    114317.18   -36557.278     2860.536   -39417.814     166.0298 
   21400    230.22487    74.382335    114214.76    -36563.96    2810.2208    -39374.18    166.49507 
   21450    235.07632     115.9587    114307.59   -36512.205    2869.4396   -39381.644    167.10176 
   21500    231.68946   -15.786753    114479.32   -36507.056    2828.0982   -39335.154     167.5302 
   21550    229.88221     215.3412    114659.11   -36480.092    2806.0381    -39286.13    168.13626 
   21600    230.28676    124.93177    114704.93   -36474.097    2810.9762   -39285.073     168.3858 
   21650    233.87901     -349.186    114530.93   -36502.323    2854.8248   -39357.148    168.75045 
   21700    229.81823    99.525578    114375.05   -36551.586    2805.2572   -39356.844    168.94157 
   21750    226.91394   -150.73042    114353.09   -36569.289    2769.8062   -39339.095    169.27504 
   21800    231.59093   -149.99203     114269.1   -36563.664    2826.8955   -39390.559    169.62012 
   21850    232.66602   -271.39877    114180.08   -36582.411    2840.0185   -39422.429    169.87912 
   21900    233.52742   -241.03897    114091.06   -36579.267    2850.5332     -39429.8    170.34229 
   21950    231.20517    53.478801    114067.57   -36586.973    2822.1867    -39409.16    170.74636 
   22000    228.69047    166.40555    114063.01   -36639.013    2791.4912   -39430.504    171.33471 
   22050    229.57906   -115.19016    114076.85   -36619.587    2802.3378   -39421.925    171.51974 
   22100    227.30905    312.46596     114107.4    -36632.94    2774.6291   -39407.569     171.8709 
   22150    226.26428   -138.36723    114154.82   -36687.858    2761.8761   -39449.734    172.20346 
   22200    227.26638   -184.06626    114213.27   -36734.416    2774.1083   -39508.524    172.38566 
   22250    230.33399    179.57079    114376.01   -36683.702    2811.5528   -39495.255    173.05582 
   22300     227.0706   -176.23674    114345.44   -36667.817    2771.7184   -39439.535    173.44813 
   22350    228.92791     123.0328     114273.1   -36595.923    2794.3896   -39390.312    173.98249 
   22400    232.16298   -14.214487    114267.87   -36588.109    2833.8782   -39421.987    174.46972 
   22450     228.9171    136.27399    114148.86   -36596.768    2794.2576   -39391.025    174.89817 
   22500    224.90772    105.03244    114137.36   -36602.189    2745.3175   -39347.506    175.16987 
   22550    230.54765   -195.09549    113986.41   -36632.502    2814.1608   -39446.663    175.22235 
   22600    231.73295   -58.714717    114079.21   -36626.063    2828.6291   -39454.692    175.80959 
   22650    228.50265    -358.8496    114001.57   -36667.973    2789.1987   -39457.172    176.27305 
   22700    227.81449   -182.56694    113962.99   -36670.769    2780.7987   -39451.567    176.87295 
   22750    229.56242    482.88105    114063.83   -36663.258    2802.1347   -39465.393    177.40287 
   22800    229.14269    82.364892    114005.85   -36615.721    2797.0113   -39412.732    177.58429 
   22850    230.24896    167.90987    114232.42   -36620.257    2810.5148   -39430.772     178.0315 
   22900    233.50331    44.173011     114251.6   -36636.909    2850.2388   -39487.147    178.70939 
   22950     225.9625    129.06141    114332.42   -36677.725    2758.1926   -39435.918    179.43638 
   23000    229.91375   -228.66786    114092.09   -36669.979    2806.4231   -39476.402    179.69136 
   23050    226.38936    165.04228    114089.52    -36669.95    2763.4029   -39433.353     179.9164 
   23100    234.72601    52.845535    113911.87   -36605.905    2865.1636   -39471.069    180.39886 
   23150    228.51195   -137.49193    113918.51   -36672.568    2789.3122    -39461.88    180.74947 
   23200    233.24823   -166.73444    113903.31   -36612.125    2847.1252    -39459.25    181.19552 
   23250    231.03512    76.627938    113953.99   -36611.965    2820.1111   -39432.076    181.70301 
   23300    231.10392    268.62414    113992.44   -36630.931    2820.9509   -39451.882    182.64933 
   23350    230.65168    51.465539    114183.03   -36589.371    2815.4306   -39404.801    183.36881 
   23400    231.47269   -159.71379    114252.61   -36603.406    2825.4522   -39428.858    184.01361 
   23450    232.78313    51.954232    113943.79   -36600.592    2841.4479    -39442.04    184.10561 
   23500    232.63345    220.10598    113985.26   -36598.865     2839.621   -39438.486    184.63438 
   23550    230.71784    96.406242    113968.15   -36545.461    2816.2381   -39361.699    184.96045 
   23600    230.11926   -151.25031    114115.46   -36547.933    2808.9317   -39356.864    185.50416 
   23650    232.75724    117.07408    114206.59   -36573.962    2841.1319   -39415.094    185.61119 
   23700    230.41905   -166.22151    114300.06   -36548.277     2812.591   -39360.868    186.26025 
   23750    232.47134    294.03757     114126.6    -36548.68    2837.6421   -39386.322    186.41249 
   23800    236.96037   -244.72479    114070.83   -36550.845    2892.4371   -39443.282    186.79162 
   23850    230.60354    31.202224    113945.41   -36612.483     2814.843   -39427.326    187.28378 
   23900    229.25238    125.62296    114099.42   -36628.147    2798.3502   -39426.497    187.78966 
   23950    233.02783    176.54098    114220.18   -36596.189    2844.4349   -39440.624    188.19066 
   24000    230.95537      87.7411     114124.6   -36584.647    2819.1376   -39403.785    188.49196 
   24050    234.63249   -32.829102    114226.03   -36571.069    2864.0221   -39435.091    188.77076 
   24100    230.27889    14.399931    114232.63   -36555.903    2810.8802   -39366.783    188.98161 
   24150    233.67569   -156.63147    114252.52   -36556.776    2852.3429   -39409.119    189.51724 
   24200    226.46281    65.907156    114186.17    -36607.99    2764.2995   -39372.289    189.71536 
   24250    228.23383    -159.0479    114093.51   -36630.619    2785.9174   -39416.536    189.77393 
   24300    232.00637    15.895174    114060.53   -36636.645    2831.9665   -39468.611    190.12528 
   24350    230.53919    143.51478    113955.26   -36635.018    2814.0575   -39449.075    190.24961 
   24400     222.9159   -146.06219    113991.61   -36659.719    2721.0044   -39380.724    190.76687 
   24450    228.53524   -7.5923597    113936.77   -36620.187    2789.5964   -39409.783    191.29509 
   24500    227.62144    84.124327    113849.89    -36638.85    2778.4423   -39417.292    191.51831 
   24550    227.15795    17.872043    113852.61   -36649.595    2772.7847    -39422.38    191.92538 
   24600    229.66828    95.348663    113700.57   -36679.659    2803.4269   -39483.085     192.1024 
   24650    229.08489   -80.686549    113636.78   -36671.503    2796.3057   -39467.809    192.48788 
   24700    227.73955     18.42191    113594.22   -36699.782     2779.884   -39479.666    193.06158 
   24750    232.47604    128.28389    113656.01   -36644.092    2837.6995   -39481.792    193.71837 
   24800    228.07143   -260.53626    113569.96   -36680.838    2783.9351   -39464.774    193.79552 
   24850    232.07223    111.49841    113540.63   -36663.269    2832.7704    -39496.04    194.18524 
   24900    226.89486    112.10893    113728.04   -36696.008    2769.5733   -39465.582    194.62343 
   24950    227.29929     61.92515    113705.08   -36699.837    2774.5099   -39474.347    194.94545 
   25000    232.46437   -79.143405    113814.57   -36655.552    2837.5571   -39493.109    195.39711 
   25050    225.71433   -216.82092     113778.8   -36703.407    2755.1633   -39458.571    195.64008 
   25100    225.73744    82.543309    113955.82   -36686.842    2755.4454   -39442.287    196.16579 
   25150    225.16012    -58.39321    114015.09   -36702.423    2748.3983   -39450.822    196.50831 
   25200    226.85944     111.8133    113858.33   -36758.227    2769.1409   -39527.367    196.81583 
   25250    227.07102    128.46966    113766.04   -36750.492    2771.7236   -39522.215    196.97415 
   25300    223.73909   -23.572679    113885.12   -36725.789    2731.0527   -39456.842    197.49457 
   25350    233.19004   -57.151171    113850.76    -36641.53    2846.4149   -39487.945     197.9274 
   25400    226.28881    77.663047     113850.3   -36691.743    2762.1756   -39453.919    198.61485 
   25450    226.40118    547.21784    113999.46   -36672.467    2763.5472   -39436.014    199.25626 
   25500    228.27529    345.57431    114020.94   -36657.787    2786.4234    -39444.21    199.87469 
   25550    231.25006    -49.13806    113979.98   -36602.588    2822.7347   -39425.323    200.44018 
   25600    234.53134   -66.196172    114155.11   -36533.908    2862.7874   -39396.696    201.23144 
   25650    231.86964    3.7622543    114187.87    -36576.71    2830.2976   -39407.008    201.99534 
   25700    228.18159   -131.29818    114091.31   -36621.193    2785.2797   -39406.472    202.14251 
   25750     227.9107    -145.1174    114036.35   -36624.948     2781.973   -39406.921    202.50716 
   25800    235.43168   -71.665282     113948.2   -36535.107    2873.7772   -39408.884    202.79223 
   25850     234.9173    117.38795    114035.48   -36529.408    2867.4986   -39396.907    203.25392 
   25900    232.47673    90.742601    114014.19   -36545.864     2837.708   -39383.572    203.58997 
   25950     230.4778   -348.72007    114059.89   -36587.731    2813.3081   -39401.039    203.99726 
   26000    233.01127    -131.6324    113829.82   -36570.417    2844.2328    -39414.65    204.16588 
   26050     231.8422   -159.95084    113716.46   -36590.718    2829.9626   -39420.681    204.23188 
   26100    234.26865    339.10143    113557.78   -36600.377    2859.5809   -39459.958    204.59346 
   26150    231.60187    11.007158    113504.28   -36590.982     2827.029   -39418.011    204.65089 
   26200    229.45885    244.79617    113584.11   -36629.793    2800.8705   -39430.663     205.0093 
   26250    226.51477    247.49287     113678.2   -36654.216    2764.9338   -39419.149    205.82415 
   26300    226.84977   -212.22305    113804.04   -36667.921    2769.0229   -39436.944     206.1593 
   26350    229.62159   -105.86009     114017.5   -36655.876    2802.8569   -39458.733    206.42294 
   26400    229.12521   -15.728198     113980.7   -36672.237    2796.7979   -39469.035    206.63375 
   26450    231.83859   -122.67578    113950.42   -36596.594    2829.9186   -39426.513    206.78507 
   26500    233.63546    209.45881    114096.02   -36595.125    2851.8519   -39446.977    207.29528 
   26550    231.08007   -238.07776    114023.47   -36579.031    2820.6597   -39399.691    207.32254 
   26600    230.48256   -412.30866    113964.27   -36568.693    2813.3662   -39382.059    207.71196 
   26650    231.72162    357.20942    113793.99    -36571.55    2828.4908   -39400.041    208.17799 
   26700    232.25954   -73.899506    113883.88    -36533.03    2835.0569   -39368.087    208.57564 
   26750    234.40977    17.669224    114026.88   -36513.927    2861.3035    -39375.23    209.26879 
   26800    229.55195    112.89246    114016.66   -36573.149    2802.0068   -39375.155    210.16732 
   26850    232.50303   -274.23446    114068.01   -36593.759    2838.0289   -39431.788    210.82139 
   26900    233.30648    28.629582    114192.48   -36548.577    2847.8362   -39396.413    211.78923 
   26950    230.50219   -115.66963    114160.02   -36529.674    2813.6059    -39343.28    212.18831 
   27000    232.24908    304.70507     114099.6   -36542.532    2834.9291   -39377.461    212.59141 
   27050    230.18143    167.57894    114011.92   -36555.407    2809.6906   -39365.098    213.04873 
   27100    231.39402    107.55186    114287.91   -36523.812     2824.492   -39348.304    214.01061 
   27150    233.58662    77.923378    114160.55   -36528.446    2851.2557   -39379.702    214.34227 
   27200    232.51908   -22.648904    114226.67   -36544.071    2838.2249   -39382.296    214.37232 
   27250    233.51003   -171.17571    114040.58   -36519.672    2850.3209   -39369.993    214.41586 
   27300    234.26147   -20.894107    114108.74   -36470.516    2859.4932   -39330.009    214.71921 
   27350    230.92497    16.188307    114077.61   -36469.539    2818.7665   -39288.306    215.26645 
   27400    231.31977   -178.57532    113953.05   -36493.046    2823.5857   -39316.632    215.44535 
   27450    232.43465   -69.105092    113966.62    -36524.27    2837.1943   -39361.465    216.36768 
   27500    232.77901   -183.23693    113830.31   -36593.106    2841.3977   -39434.503    216.85472 
   27550    227.26253   -15.044625    113795.04   -36648.886    2774.0613   -39422.947    217.31133 
   27600    225.16347   -128.29018    113667.74   -36679.319    2748.4392   -39427.758    217.66863 
   27650    226.33864    61.630646    113793.91   -36655.144    2762.7839   -39417.928    218.25619 
   27700    231.47173    266.27474    113932.93   -36609.738    2825.4405   -39435.178    218.69707 
   27750    232.96872   -172.40754    113721.87    -36552.06    2843.7134   -39395.773    218.83522 
   27800    231.26119    162.75921    113783.77   -36550.714    2822.8705   -39373.584    219.15184 
   27850     232.1106   -59.473126    113842.78   -36571.663    2833.2388   -39404.902    219.65402 
   27900    228.16375   -52.284015     113916.6   -36631.931    2785.0619   -39416.993     220.0659 
   27950    225.16568    315.52398    114020.91   -36619.048    2748.4662   -39367.514    220.53394 
   28000    229.91098    203.53032    114128.58   -36660.536    2806.3893   -39466.926    220.95046 
   28050    226.98055   -167.25454       114091   -36678.032    2770.6192   -39448.652    221.34592 
   28100    228.90142   -84.830298    113922.72   -36667.755    2794.0663   -39461.821    221.50939 
   28150    230.41512   -110.37473    113971.85   -36647.612     2812.543   -39460.155    222.06102 
   28200    226.09373     283.7552    113937.15   -36660.092    2759.7944   -39419.886    222.58816 
   28250    227.92786    173.67852    113811.32    -36647.08    2782.1825   -39429.262    222.98574 
   28300    232.39133   -21.568377    113637.71   -36660.523    2836.6656   -39497.188    223.00544 
   28350    231.91688    20.328846    113743.18   -36640.563    2830.8742   -39471.437    223.40042 
   28400    229.53537   -371.23949     113610.5   -36659.994    2801.8044   -39461.798    223.68356 
   28450    228.61341    23.398414    113664.69   -36635.252    2790.5507   -39425.803    224.14921 
   28500    226.81528   -125.83157    113652.84   -36664.753     2768.602   -39433.355    224.71491 
   28550    225.60975     134.8216    113683.25   -36660.328    2753.8867   -39414.214    225.31071 
   28600    228.50721     19.60781    113541.19   -36685.309    2789.2543   -39474.563    225.47792 
   28650    227.62644      265.831    113820.78   -36670.664    2778.5033   -39449.167    226.07168 
   28700     231.1419   -133.26904    113652.95   -36680.563    2821.4145   -39501.977    225.96686 
   28750    231.03087    43.700467    113733.34   -36681.155    2820.0592   -39501.214    226.44888 
   28800    222.40165    149.05519    113752.41   -36688.044    2714.7273   -39402.771    226.55382 
   28850    228.72318    47.711495    113702.69   -36664.339    2791.8905    -39456.23    226.66302 
   28900    227.81381    143.53612    113782.79   -36657.844    2780.7903   -39438.635    227.02099 
   28950    230.32694    60.864031    113878.41   -36638.357    2811.4667   -39449.824    227.50657 
   29000    231.83709    190.87782    113841.44   -36633.296    2829.9003   -39463.196    227.94463 
   29050    228.10946    -480.2234    114019.96   -36609.395    2784.3992   -39393.794    228.92686 
   29100    228.69321    67.572314    113902.42   -36598.004    2791.5247   -39389.529    229.27397 
   29150    236.95984   -4.5910866    113732.26   -36572.212    2892.4306   -39464.643    229.83898 
   29200    233.17622    119.41128    113752.56   -36542.531    2846.2462   -39388.777    230.13041 
   29250    228.85026    239.34938    113992.26   -36567.733    2793.4417   -39361.175    230.69225 
   29300    229.14425     102.3295     114102.5   -36549.348    2797.0303   -39346.378    231.31524 
   29350    232.86213     180.8691    113944.84   -36575.165    2842.4123   -39417.577    231.79757 
   29400    229.30152   -101.27374    114001.54   -36579.495    2798.9501   -39378.445    232.90379 
   29450    231.98032    275.27562    114025.42   -36545.056    2831.6486   -39376.704    233.12594 
   29500    227.70255   -89.405298    114233.91   -36553.095    2779.4324   -39332.528    233.95529 
   29550    230.84208    86.504471    114168.05   -36573.432    2817.7547   -39391.186    233.87255 
   29600    233.62104    -213.1732    114330.99   -36548.234    2851.6759    -39399.91    234.53777 
   29650    230.74615   -343.31656    114193.98   -36516.474    2816.5838   -39333.058    234.61223 
   29700    230.64891    24.318725    114289.65   -36597.501    2815.3968   -39412.898    234.58247 
   29750    224.58005    81.388792    114346.31   -36635.863    2741.3177   -39377.181    234.90005 
   29800    232.27777   -171.95017    114073.48   -36690.912    2835.2793   -39526.191    235.07349 
   29850    229.37967    89.332858    114102.17   -36666.274    2799.9039   -39466.178    234.79018 
   29900    230.58762   -329.43169    114094.09   -36656.116    2814.6486   -39470.765    234.91433 
   29950    227.15078    71.035943    114123.88   -36687.089    2772.6971   -39459.786    235.08923 
   30000    230.81729    233.42442    114025.31     -36692.5    2817.4521   -39509.952    235.74337 
   30050    228.37055   -118.37645    114036.71   -36660.644    2787.5862    -39448.23    236.08349 
   30100    231.58826    53.260577    114231.35   -36614.156    2826.8629   -39441.019    236.70512 
   30150    228.86837    380.76664    114235.27   -36619.627    2793.6628   -39413.289    237.06382 
   30200    226.31166    94.897879    114449.48   -36647.552    2762.4545   -39410.006    237.66981 
   30250    229.50199   -39.917916    114361.37   -36626.001     2801.397   -39427.398    237.81359 
   30300    231.30405     183.0523    114431.14   -36638.811    2823.3937   -39462.204    238.35234 
   30350    227.90768   -398.66628    114397.48   -36580.498    2781.9362   -39362.434     238.7283 
   30400    230.03371    47.226124    114298.34   -36621.475    2807.8874   -39429.362    238.70359 
   30450    226.81588    -7.746941    114294.42   -36707.405    2768.6092   -39476.014    239.20497 
   30500    228.71194   -16.159559    114405.79    -36704.14    2791.7534   -39495.893    239.62723 
   30550    225.37605    109.35817    114326.85    -36707.18     2751.034   -39458.214    239.70591 
   30600    228.40291    40.723836    114265.96   -36660.749    2787.9812    -39448.73    240.13012 
   30650     224.8862   -288.62916    114267.62   -36657.857    2745.0547   -39402.912    240.61895 
   30700     225.2287    65.740704    114221.57   -36672.193    2749.2354   -39421.428    240.90312 
   30750    226.68754    506.11672       114278   -36630.294    2767.0427   -39397.337    241.53108 
   30800    224.73994   -37.525018     114303.6   -36612.486    2743.2694   -39355.756    242.13441 
   30850    233.22971    288.79018    114316.44   -36537.052    2846.8991   -39383.951    242.52958 
   30900    226.80885    8.0832773    114402.68   -36548.542    2768.5234   -39317.065    242.91115 
   30950    228.35834   -56.791268    114387.18   -36536.707    2787.4371   -39324.144    243.43903 
   31000    230.12841    84.535297    114298.93   -36567.599    2809.0433   -39376.642    243.82628 
   31050    229.43296    43.704631    114256.52   -36571.651    2800.5544   -39372.205    244.52074 
   31100    232.89655    186.69652    114202.57   -36584.599    2842.8324   -39427.432    244.69092 
   31150    232.57619   -42.930174    114297.28   -36568.457    2838.9219   -39407.379    244.94589 
   31200    234.92636    71.480772       114243   -36589.718    2867.6092   -39457.327    245.36608 
   31250    229.80453    546.06424    114333.45   -36572.393      2805.09   -39377.483    246.05513 
   31300    228.05102   -85.259617    114389.98   -36510.355    2783.6858    -39294.04    246.35244 
   31350    228.59963   -315.33934    114238.01   -36533.218    2790.3824     -39323.6    246.51042 
   31400    224.68721    186.37327    114203.21    -36580.87    2742.6258   -39323.496    246.71344 
   31450    233.25103   -280.01106    114180.32   -36584.716    2847.1594   -39431.875    247.16839 
   31500    235.63494    65.497888    114074.83   -36560.238    2876.2584   -39436.496    247.27299 
   31550    228.84191    176.25441    114195.08   -36578.878    2793.3398   -39372.218    247.57304 
   31600    235.41237     -187.512     114189.4   -36574.697    2873.5416   -39448.238    247.64684 
   31650     226.5171   -77.971481    114053.88    -36605.91    2764.9623   -39370.872     247.5914 
   31700    229.72236     274.6421     114093.7   -36571.276     2804.087   -39375.363    247.91473 
   31750    231.59901    304.10226    114196.76   -36515.906    2826.9942   -39342.901     248.5416 
   31800    230.25323   -319.12872       114301   -36537.674     2810.567   -39348.241    248.94251 
   31850    230.54978   -87.676993    114240.99   -36593.048    2814.1867   -39407.235    249.24042 
   31900    228.57532    153.25807    114048.15   -36574.287    2790.0857   -39364.373    249.53689 
   31950    230.72264    -139.8968    113965.26   -36594.169    2816.2968   -39410.466    250.02757 
   32000     231.2006   -121.95958    113935.23   -36572.044    2822.1309   -39394.175     250.3897 
   32050    225.76583     31.11756    114044.97   -36560.663    2755.7919   -39316.455    250.88596 
   32100    229.20434   -167.03231    113820.97   -36600.219    2797.7638   -39397.983    251.17549 
   32150     229.3908    281.31825    113723.44   -36615.237    2800.0398   -39415.276    251.42222 
   32200    227.25637   -11.602066     113910.1   -36686.498     2773.986   -39460.484    251.91934 
   32250    223.77559    190.94884    114007.56   -36689.642    2731.4982    -39421.14    252.54134 
   32300    228.07804    139.78302    113992.14   -36658.134    2784.0157    -39442.15    252.83147 
   32350    222.39851    219.33259    113920.47   -36680.354     2714.689   -39395.043    252.72591 
   32400    224.86069    52.797603    113804.79   -36691.443    2744.7433   -39436.186    252.67141 
   32450    229.65369    114.11477    113726.49   -36667.245    2803.2487   -39470.494    253.17886 
   32500    227.49014    338.24288    113812.99   -36617.953    2776.8395   -39394.792    253.65344 
   32550    225.38652   -233.82972    113949.67   -36619.256    2751.1618   -39370.418    254.04451 
   32600    231.28131    7.4538374       113980   -36565.469    2823.1161   -39388.585    254.50352 
   32650    236.24484    248.65882    113962.06   -36578.791     2883.703   -39462.494    254.83416 
   32700    225.53242   -85.292032     114133.3   -36628.097    2752.9428   -39381.039    255.25639 
   32750    231.66195    130.68816    114053.48   -36600.605    2827.7624   -39428.368    255.24876 
   32800    236.48479   -211.91656    113881.13   -36550.583    2886.6319   -39437.215    255.38008 
   32850    230.55029    75.134729    113876.94   -36553.243     2814.193   -39367.436    255.92089 
   32900    231.42573    209.01751    114142.74   -36587.154     2824.879   -39412.033    256.59129 
   32950    227.73462   -151.48197    114209.97   -36570.602    2779.8237   -39350.426     257.3009 
   33000    227.36363    141.74358    114328.14   -36567.942    2775.2953   -39343.237    257.89817 
   33050    226.57117    184.15939    114211.15   -36585.294    2765.6222   -39350.917    258.92039 
   33100    229.34192    -40.57429    114164.86   -36563.191    2799.4431   -39362.634    259.12043 
   33150     232.7693   -59.924437    114093.44   -36553.662    2841.2791   -39394.941    259.47239 
   33200    229.67919     230.2852    114345.94   -36572.594      2803.56   -39376.154    259.96119 
   33250    232.54818   -166.30986    114169.38    -36575.92    2838.5802     -39414.5    260.47391 
   33300    229.97424    132.34674    114022.28   -36565.908    2807.1615    -39373.07    260.80792 
   33350     230.4761    357.06081    114148.23   -36588.203    2813.2874   -39401.491    261.56957 
   33400    229.75749   -104.10203     114161.2   -36588.804    2804.5158    -39393.32    261.97714 
   33450    228.04296   -62.858661    114126.92    -36631.59    2783.5875   -39415.178    262.55221 
   33500    224.40311   -331.92799    114028.77   -36636.235     2739.158   -39375.393    262.71522 
   33550    227.03037    78.938553    113991.27    -36611.54    2771.2274   -39382.767    262.80097 
   33600    233.56262   -119.92862    113943.81   -36628.527    2850.9627    -39479.49    262.78353 
   33650     228.5182    91.041157    114134.94   -36602.872    2789.3885    -39392.26    263.09248 
   33700    225.02591      397.037    114114.12   -36604.611    2746.7601   -39351.371     263.4568 
   33750    233.80837    209.70778    114176.49   -36518.527    2853.9625   -39372.489    263.86081 
   33800    233.72195    146.27177    114410.37   -36496.871    2852.9076   -39349.778    264.27983 
   33850    234.91102    275.06583    114649.07   -36493.781     2867.422   -39361.203    264.90251 
   33900    233.73426     107.0097    114485.52   -36472.475    2853.0579   -39325.533    264.87793 
   33950    231.14062   -253.46338    114632.45   -36527.138    2821.3989   -39348.537    265.46299 
   34000    228.60497   -220.19425    114517.63   -36590.235    2790.4477   -39380.683     265.4834 
   34050    229.72586    27.192925    114409.03   -36569.824    2804.1296   -39373.954    265.57707 
   34100    230.48257   -56.359161    114264.03   -36575.777    2813.3664   -39389.144    266.01862 
   34150    227.19164   -48.445211    114397.42   -36615.702    2773.1959   -39388.898    266.54968 
   34200    228.84229   -192.17439    114129.33   -36599.247    2793.3444   -39392.591    266.18442 
   34250    226.29216    11.985272    114240.78   -36602.017    2762.2165   -39364.234    266.64269 
   34300    225.05864    -36.08984    114050.31   -36635.023    2747.1597   -39382.183    266.48205 
   34350    228.86612   -169.10432    113961.13   -36637.336    2793.6354   -39430.972    266.87815 
   34400    231.97055    258.55205    114063.96   -36626.774    2831.5292   -39458.303    267.61687 
   34450     231.7039   -161.41766     114192.5   -36604.169    2828.2745   -39432.443    268.02411 
   34500    237.10476    184.26065    114075.44   -36536.359    2894.1996   -39430.559     268.3552 
   34550     235.7816    182.50123    114285.33   -36471.275    2878.0486   -39349.323    268.68427 
   34600    234.32793    154.84851    114267.38   -36510.682    2860.3044   -39370.986    269.03204 
   34650    230.29442    133.23858     114390.4   -36527.744    2811.0697   -39338.814    269.42927 
   34700    226.95885   -58.095763    114392.33   -36565.828    2770.3544   -39336.182    269.69864 
   34750    222.35166    129.51381    114389.46    -36597.22    2714.1171   -39311.337    270.07701 
   34800    227.32141    123.41446    114194.77   -36590.997      2774.78   -39365.777    269.67048 
   34850    227.80008   -43.061618    114248.51   -36566.556    2780.6229   -39347.179    269.93843 
   34900    229.83911    209.70243    114325.31   -36560.971    2805.5121   -39366.483    269.99072 
   34950    229.57475     -65.0411    114376.53   -36576.841    2802.2851   -39379.126    270.22029 
   35000    233.97272    -86.85352    114334.26   -36574.834    2855.9686   -39430.802    270.29223 
   35050    231.55779   -22.353997    114281.24   -36545.083     2826.491   -39371.574    270.90058 
   35100    230.50684    358.81076    114304.41   -36568.973    2813.6626   -39382.635    271.44183 
   35150    235.21453   -25.396099    114340.66   -36574.086    2871.1267   -39445.212    271.93292 
   35200    231.82892   -98.024498    114203.42    -36532.63    2829.8005    -39362.43    272.16414 
   35250     230.9422     206.1955     114275.3   -36547.707    2818.9768   -39366.683    272.93485 
   35300    233.26785   -295.85617    114323.04   -36553.278    2847.3647   -39400.643    273.30996 
   35350    230.48085   -382.05162    114291.71   -36563.922    2813.3454   -39377.267    273.86715 
   35400    228.53205   -460.95699    114335.64    -36579.48    2789.5576   -39369.038    274.19973 
   35450     227.1949    183.86278    114247.35   -36583.779    2773.2357   -39357.015    274.26116 
   35500    232.86468   -153.30873    114213.96   -36595.978    2842.4434   -39438.421    274.73844 
   35550    233.92737   -289.53212    114074.88   -36576.133     2855.415   -39431.548    275.01128 
   35600    233.66618    62.674639    114052.16   -36597.827    2852.2269   -39450.054    275.25018 
   35650    225.81585   -309.27145    114052.29   -36603.973    2756.4024   -39360.375    275.42633 
   35700    231.67759    253.99693    114195.05   -36567.689    2827.9533   -39395.642    276.08827 
   35750    232.64386   -66.957953    114207.22    -36503.52     2839.748   -39343.268    276.44317 
   35800    236.23457   -340.60283     114164.2   -36451.373    2883.5777   -39334.951    276.30202 
   35850    235.09549    15.784483     114044.1   -36490.584    2869.6736   -39360.258    276.38309 
   35900    230.74291    137.31694    114102.59   -36542.628    2816.5442   -39359.172    276.98465 
   35950     232.4992   -244.17709    114185.51   -36584.602    2837.9822   -39422.584    277.67093 
   36000    230.67309    264.37751    114099.72   -36590.278     2815.692    -39405.97    277.86333 
   36050    229.13897   -174.92299    114102.36    -36594.38    2796.9659   -39391.345    278.23239 
   36100    227.01677    87.987211    113997.28   -36615.906    2771.0613   -39386.968    278.73285 
   36150    230.90443    114.49049    113983.43   -36620.942    2818.5158   -39439.458    279.08204 
   36200    229.31819   -204.83682    113870.97   -36603.999    2799.1535   -39403.152     279.3071 
   36250    232.82777    -45.36658    113807.02   -36675.961    2841.9929   -39517.954    279.54476 
   36300    229.00224   -30.787246    113876.57   -36610.257    2795.2968   -39405.554    279.89758 
   36350    232.94856    62.049112    114064.82   -36635.333    2843.4673     -39478.8    280.80132 
   36400    227.76309   -177.95103    114183.05   -36633.435    2780.1713   -39413.606    281.81773 
   36450    229.14574   -146.77489    113909.47   -36666.235    2797.0484   -39463.283    282.15929 
   36500    228.45268    164.96156     113779.6   -36647.074    2788.5888   -39435.663    282.42064 
   36550    229.80619    251.00344    113916.35   -36637.394    2805.1102   -39442.504    282.97722 
   36600    229.06287   -34.245937    114078.88   -36612.862    2796.0369   -39408.899    283.48958 
   36650    226.56825     54.15383    114212.08   -36626.327    2765.5865   -39391.914     284.1872 
   36700     225.3946   -15.283371    114180.58   -36649.789    2751.2606    -39401.05     284.7077 
   36750    225.51637   -6.2843554     114093.8   -36669.956    2752.7468   -39422.703    285.03505 
   36800    223.07668   -206.28091     114216.1   -36684.682     2722.967   -39407.649    285.57476 
   36850    225.52519   -12.747586    114118.83   -36668.338    2752.8545   -39421.193    285.92789 
   36900    229.05869   -39.443614    114112.67   -36632.423    2795.9859   -39428.408    286.37985 
   36950    229.93608    162.31606    113892.59   -36644.222    2806.6957   -39450.917    286.51547 
   37000    228.69198    37.734407    113951.06   -36624.954    2791.5097   -39416.464    287.42084 
   37050    229.27364    -296.9028    113784.41   -36683.353    2798.6097   -39481.963    287.62538 
   37100    226.85051    132.71109    113846.14   -36668.401     2769.032   -39437.433    288.12297 
   37150    227.56714    100.30802    113626.46   -36671.675    2777.7794   -39449.454     287.8951 
   37200    224.82523    122.93572    113512.18   -36690.024    2744.3106   -39434.335    287.79358 
   37250    226.52715    134.44672     113472.2   -36694.058    2765.0849   -39459.143    288.59718 
   37300    226.72006   -182.25581    113565.86   -36695.844    2767.4396   -39463.284    288.96407 
   37350    224.98069    35.836224    113632.82   -36666.956    2746.2082   -39413.164    289.49417 
   37400    226.18431    159.63471    113730.17   -36706.939    2760.9001   -39467.839    290.18537 
   37450    231.00479    137.88666    113621.84   -36690.135    2819.7409   -39509.876    290.36804 
   37500    227.53755   -93.095386    113848.89   -36684.136    2777.4182   -39461.554    290.94328 
   37550    225.64296  -0.59840893     113769.9    -36690.34    2754.2921   -39444.632    291.40927 
   37600    226.66665    91.442857    113868.13   -36692.328    2766.7877   -39459.116    291.54863 
   37650    224.02278   -9.6481999    113882.06   -36729.102    2734.5156   -39463.618    291.91092 
   37700    226.94565   -153.84688    113890.08   -36752.976    2770.1933    -39523.17    292.78123 
   37750    223.17939    88.863902    113726.85   -36764.776    2724.2207   -39488.997    292.85828 
   37800    223.53887    145.04454    113822.55   -36787.687    2728.6087   -39516.295    293.38336 
   37850    223.75463   -48.291277     113753.4   -36757.003    2731.2423   -39488.245    294.05084 
   37900     228.5123    -123.1188    113614.03   -36710.038    2789.3165   -39499.355    294.57749 
   37950    227.66473    290.75874     113550.2   -36681.854    2778.9706   -39460.824    294.97152 
   38000    229.61492    24.129256    113472.43   -36660.291    2802.7755   -39463.067    295.35497 
   38050    232.35782     24.52972    113610.88   -36691.283    2836.2565    -39527.54    296.10663 
   38100    229.88005   -202.05857     113518.6   -36668.254    2806.0118   -39474.266    296.30572 
   38150    231.51817    21.610546    113305.73   -36672.567    2826.0074   -39498.575    296.29325 
   38200     230.4581    489.83316    113351.01   -36648.274    2813.0677   -39461.341    296.71634 
   38250    230.41186   -45.058891    113486.68   -36610.239    2812.5032   -39422.742    297.18604 
   38300    230.56685    193.17051    113513.01   -36678.475    2814.3951    -39492.87    297.50185 
   38350    233.15569   -186.20361    113447.06   -36627.073    2845.9956   -39473.069    297.44643 
   38400    229.54145   -36.290864    113443.42   -36661.269    2801.8787   -39463.148    297.70049 
[...]
  190900     234.6835   -73.496823    114089.76   -36563.412    2864.6447   -39428.057    1468.9632 
  190950    230.35765    252.07909    114057.86   -36595.414    2811.8416   -39407.256    1469.2899 
  191000    225.67696    181.96771    114031.85   -36622.821    2754.7071   -39377.528    1468.7187 
  191050    229.20722   -67.553758    114130.31   -36633.134     2797.799   -39430.933     1469.625 
  191100    227.55387   -71.703167    114034.63   -36667.314    2777.6174   -39444.931    1469.5057 
  191150    225.62212     25.01825    113898.23   -36681.398    2754.0377   -39435.436    1468.9096 
  191200    226.07473    350.66062    113922.44   -36653.477    2759.5625   -39413.039    1468.7902 
  191250    228.26518   -128.75638    114050.96   -36681.417    2786.3001   -39467.717    1469.5904 
  191300    229.72784    -439.6046    113930.73   -36655.864    2804.1539   -39460.017    1468.3129 
  191350    229.12092   -100.30161    113707.66   -36655.224    2796.7456   -39451.969    1467.0391 
  191400    226.91539    89.192199    113782.25    -36619.04    2769.8239   -39388.864     1468.627 
  191450    233.41804   -88.707439    113830.16   -36597.124    2849.1979   -39446.322    1469.4262 
  191500    229.32875   -117.63542    113692.09   -36640.628    2799.2824   -39439.911    1468.6099 
  191550    232.73267    482.99527    113743.47   -36586.531     2840.832   -39427.363    1469.5041 
  191600    230.37933    133.77589    113844.77   -36571.945    2812.1062   -39384.051    1470.3826 
  191650    231.65797   -268.76784    113742.54   -36599.143    2827.7139   -39426.857      1470.31 
  191700    230.99544    102.57781    113718.85   -36596.224    2819.6267   -39415.851    1470.8665 
  191750    229.98607    216.01045    113827.86   -36620.613    2807.3059   -39427.919    1471.4016 
  191800    227.20035   -210.51883    113825.74   -36623.617    2773.3022   -39396.919    1471.7878 
  191850    228.57367    32.252418    113896.43    -36634.82    2790.0655   -39424.886    1472.3003 
  191900    230.03816   -204.37033    113828.42   -36722.639    2807.9418   -39530.581    1472.3213 
  191950    230.31432    433.77371    113805.29   -36650.637    2811.3126    -39461.95    1473.1044 
  192000    228.73548    6.1655714    113693.28   -36647.232    2792.0406   -39439.273    1471.8679 
  192050    232.70236   -113.50296    113856.31   -36604.509    2840.4621   -39444.971    1473.0238 
  192100    227.94615    138.17725    113917.33   -36629.344    2782.4058    -39411.75    1474.3974 
  192150    226.33778    255.11455    114017.76   -36643.007    2762.7734   -39405.781    1475.2409 
  192200    236.07234    336.47693    114084.84   -36601.673    2881.5975    -39483.27    1476.2718 
  192250    230.91435    178.96034    114146.81   -36593.005    2818.6368   -39411.642    1476.9663 
  192300    231.17488   -143.26691     114169.5   -36610.177    2821.8171   -39431.994    1478.1948 
  192350     227.4419   -60.765303    114074.34   -36656.779    2776.2507    -39433.03    1478.4224 
  192400    234.66459   -176.64358     114008.6   -36623.412    2864.4139   -39487.826    1477.8123 
  192450    227.11039   -108.01236    113845.46   -36635.812    2772.2042   -39408.016    1476.2851 
  192500    229.47156   -99.183715    113763.89   -36623.668    2801.0255   -39424.694    1475.7282 
  192550    226.48693   -117.54344    113790.46   -36616.608    2764.5939   -39381.202    1476.6837 
  192600    228.86813    272.31424    113957.76   -36612.844    2793.6599   -39406.504      1479.05 
  192650     228.5934   -237.11861    113946.12   -36569.809    2790.3063   -39360.116    1479.8179 
  192700     232.6231    138.55552    113756.76   -36568.023    2839.4947   -39407.517    1478.6446 
  192750    228.60717     355.1034    113895.69   -36603.473    2790.4745   -39393.948    1479.7991 
  192800    226.99358   -221.36379    114018.77   -36633.816    2770.7784   -39404.594    1480.7263 
  192850    232.34225     33.49483    114049.91   -36625.471    2836.0664   -39461.537     1481.809 
  192900    232.00995   -360.65161    113932.81   -36622.694    2832.0102   -39454.704    1480.7224 
  192950    229.47187    220.19896    113751.51   -36612.496    2801.0294   -39413.526    1479.8922 
  193000    228.41738    153.83987    113831.88   -36622.677    2788.1578   -39410.835    1480.9392 
  193050    230.92674    119.07514    113609.81   -36611.658    2818.7882   -39430.446    1479.3609 
  193100     230.9179    219.67944    113706.09   -36591.083    2818.6802   -39409.764    1480.9718 
  193150    228.17275    59.640747    113875.01   -36607.404    2785.1718   -39392.576    1481.8601 
  193200    231.82506   -185.15888    113863.45   -36593.766    2829.7534   -39423.519    1482.4811 
  193250     230.8927    134.96889    114007.99   -36568.307    2818.3727    -39386.68    1484.4152 
  193300    230.65024   -7.2267166    114097.01   -36558.029    2815.4131   -39373.442    1485.5814 
  193350    226.72725    159.02032    113975.58   -36630.907    2767.5273   -39398.434    1484.4061 
  193400    228.75173     265.0213    114080.66   -36620.241     2792.239    -39412.48    1484.9686 
  193450    228.23329   -28.893011    113914.91     -36623.3    2785.9108   -39409.211    1484.7266 
  193500      224.923    130.46336    113871.22   -36650.505     2745.504   -39396.009    1483.9609 
  193550    228.13634   -16.530305    113652.97   -36663.759    2784.7273   -39448.486    1482.7087 
  193600     227.8364    190.92866    113651.32   -36663.879    2781.0662   -39444.945    1483.0152 
  193650    225.57425     275.6975    113591.41   -36661.781    2753.4534   -39415.235    1483.4243 
  193700    230.32864     265.3847    113534.94    -36690.13    2811.4874   -39501.617     1483.407 
  193750    228.22661    210.54575     113679.7   -36693.946    2785.8292   -39479.775    1485.6145 
  193800    231.86639   -260.38888    113673.31    -36670.57    2830.2579   -39500.828    1486.2948 
  193850    232.07633   -108.48505    113528.01   -36723.317    2832.8205   -39556.137    1485.9556 
  193900    225.39029  -0.10278485    113546.46   -36692.578     2751.208   -39443.786    1486.6013 
  193950    230.31893    172.31056    113460.58   -36718.988    2811.3689   -39530.357    1486.3673 
  194000    230.25661     236.4052    113647.68   -36700.565    2810.6083   -39511.173    1487.9065 
  194050    225.84118    -67.45854     113743.7   -36761.643    2756.7117   -39518.354     1489.571 
  194100    225.49013    141.09421    113635.63   -36753.391    2752.4266   -39505.818     1488.905 
  194150     228.0786   -187.20745    113609.59   -36682.264    2784.0226   -39466.287    1488.6236 
  194200    226.48033    81.456056    113625.35   -36710.631    2764.5134   -39475.145    1489.8985 
  194250    229.09481   -182.15531    113542.24   -36741.103    2796.4268    -39537.53    1489.1014 
  194300    228.71654   -31.513024    113549.63   -36729.157    2791.8095   -39520.966     1489.649 
  194350    227.44749   -102.52002    113680.83   -36735.506     2776.319   -39511.825    1491.2276 
  194400    226.36023   -26.398335    113726.66   -36752.461    2763.0474   -39515.509    1492.1032 
  194450    224.74645    299.52173    113714.58   -36737.428     2743.349   -39480.777    1492.5297 
  194500     225.8532    2.7127411    113743.57   -36702.317    2756.8583   -39459.175    1493.2375 
  194550    223.45406    99.280367     113894.5   -36725.455    2727.5735   -39453.029     1494.244 
  194600    233.05666   -261.43518     113748.5   -36627.543    2844.7868    -39472.33     1492.709 
  194650    231.94665    26.579974    113688.36    -36630.99    2831.2375   -39462.228     1491.732 
  194700     230.1182    51.011071    113741.33   -36611.694    2808.9187   -39420.613    1492.1769 
  194750    229.69377   -56.849849    113752.48   -36620.596    2803.7379   -39424.334    1493.4386 
  194800    229.78651    8.3693053    113778.28   -36610.426    2804.8701   -39415.296    1493.9695 
  194850    226.07829   -60.204398    113737.72     -36596.8    2759.6059   -39356.406     1492.777 
  194900    229.84416   -49.712797    113815.43   -36546.854    2805.5737   -39352.428     1494.018 
  194950    230.14424   0.23575234    113976.29   -36543.905    2809.2366   -39353.142     1495.966 
  195000     234.3043   -371.62402    114014.71   -36590.422     2860.016   -39450.438     1496.552 
  195050    232.17279   -277.58131    114037.32    -36534.52    2833.9979   -39368.518      1497.18 
  195100    232.35711    13.137147    114117.51   -36530.771    2836.2479   -39367.019    1499.1322 
  195150    230.84503    143.31603    113989.88   -36577.654    2817.7907   -39395.445    1498.6877 
  195200    230.23993    321.97315    113914.01   -36598.958    2810.4047   -39409.363    1498.6206 
  195250    229.76035    78.034793    114066.28   -36588.439    2804.5507    -39392.99     1499.704 
  195300    231.37594    64.695643    114236.57   -36563.944    2824.2713   -39388.215    1502.3349 
  195350    228.87136   -278.70214    114186.86   -36597.707    2793.6993   -39391.406    1502.4101 
  195400    230.37655    -435.2721    113727.93   -36639.461    2812.0722   -39451.533    1498.0504 
  195450    229.99236    29.913231    113673.92   -36627.445    2807.3827   -39434.828    1497.3171 
  195500    223.49076   -19.618282    113827.51   -36680.316    2728.0215   -39408.337    1499.0486 
  195550    229.77487    96.126105    113739.88   -36621.216    2804.7279   -39425.944    1497.8992 
  195600    225.77302    235.88514    113910.08   -36663.234    2755.8796   -39419.113    1499.2651 
  195650    228.10218   -335.47536    113791.13   -36645.754    2784.3103   -39430.065    1499.0987 
  195700    227.94101   -158.84138     113797.9   -36661.111     2782.343   -39443.454    1499.3855 
  195750    229.33715    276.35462    113869.76   -36640.599    2799.3849   -39439.984    1500.5105 
  195800    231.11212   -173.18563    114042.94   -36594.293     2821.051   -39415.344    1501.5112 
  195850    226.27245    -70.46197    114163.17   -36613.882    2761.9759   -39375.858     1502.712 
  195900    230.68548   -129.31416    114102.05   -36596.405    2815.8432   -39412.249    1502.6371 
  195950    234.06485    194.35779    113986.14   -36563.512    2857.0932   -39420.605    1501.9379 
  196000    233.05282    144.94591    113762.19    -36553.96    2844.7399     -39398.7    1500.8254 
  196050    229.55001   -31.608442    113768.56   -36628.175    2801.9831   -39430.158    1501.8418 
  196100    229.03387    255.09409    113708.49   -36691.212     2795.683   -39486.895    1501.9986 
  196150    222.67695    261.63028    113775.28   -36746.881    2718.0878   -39464.969    1503.6434 
  196200    219.46322     205.2814    113577.42    -36729.47    2678.8596    -39408.33    1501.1889 
  196250    229.89948   -72.584953    113831.59   -36701.696     2806.249   -39507.945      1503.21 
  196300     226.0259   -16.943178    113882.73   -36651.259    2758.9665   -39410.225    1505.3087 
  196350    227.92807   -47.151755    113683.65   -36678.244     2782.185   -39460.429    1503.5325 
  196400    230.22839   -99.229029    113474.62   -36648.558    2810.2637   -39458.822    1501.2111 
  196450    230.13822   -73.327718    113562.39    -36670.29    2809.1631   -39479.453    1502.4778 
  196500    227.07843    484.73513    113689.35    -36691.64     2771.814   -39463.454    1502.9918 
  196550    223.58223    13.895079    113576.49   -36636.666    2729.1379   -39365.803    1502.9825 
  196600    229.86064   -286.57967    113576.56   -36645.709    2805.7748   -39451.483    1503.9322 
  196650    232.58021   -162.49184    113674.21    -36623.44    2838.9711   -39462.411    1505.0439 
  196700    224.99998    47.875209    113487.28   -36690.451    2746.4437   -39436.895    1503.4411 
  196750    231.88508    -15.67756    113583.92   -36645.422    2830.4861   -39475.908    1504.3884 
  196800    228.93684    340.32297    113744.43   -36638.236    2794.4986   -39432.734    1506.0614 
  196850    230.92785   -115.42968    113774.72   -36628.773    2818.8016   -39447.575     1506.435 
  196900    225.90062   -35.177816    113683.26   -36654.453    2757.4373   -39411.891    1505.4813 
  196950    229.28785   -58.273278    113783.44   -36664.962    2798.7832   -39463.745    1506.4892 
  197000    228.18445    12.926817    113828.03   -36663.853    2785.3146   -39449.167    1507.3125 
  197050    229.87886   -155.80064    113774.21   -36689.337    2805.9973   -39495.334    1506.6175 
  197100    225.26676   -6.8665903    113918.39     -36710.7    2749.7001     -39460.4    1508.5402 
  197150     227.2386    219.53603    113804.12   -36702.776    2773.7691   -39476.545    1507.8177 
  197200    227.14946   -107.73792    113940.05   -36717.461     2772.681   -39490.142    1509.7102 
  197250    228.23855    -32.50695    113821.21    -36698.56     2785.975   -39484.535    1509.1287 
  197300     225.0557     138.6799    113875.57   -36722.035    2747.1238   -39469.159    1509.7699 
  197350    226.65051    257.31475     113911.4   -36695.434    2766.5906   -39462.024    1510.7222 
  197400    224.91577   -77.455311    113862.05    -36706.54    2745.4157   -39451.956    1510.9479 
  197450    226.74323   -157.92717    113919.02   -36694.885    2767.7224   -39462.607    1510.8018 
  197500    232.99184   -139.08826    113751.05   -36668.935    2843.9955   -39512.931     1510.096 
  197550    227.30448    130.54318    113907.06   -36617.501    2774.5733   -39392.074    1511.9959 
  197600    232.72864    162.07979    113870.07   -36614.166    2840.7828   -39454.948    1512.0679 
  197650    233.25544    204.73665    113943.31   -36567.777    2847.2132   -39414.991      1513.53 
  197700    229.75578    361.56021    114294.89   -36595.242    2804.4949   -39399.737     1517.217 
  197750    232.32509    80.439563    114232.83    -36614.81     2835.857   -39450.667    1517.7042 
  197800    227.57628   -124.91108    114197.94   -36619.741     2777.891   -39397.632    1517.6861 
  197850    225.37212    110.72751    114250.21   -36649.093    2750.9861   -39400.079    1519.0839 
  197900    226.75825   -71.712877    114279.94   -36602.381    2767.9058   -39370.287    1519.9049 
  197950    232.48672    74.591375    114356.07   -36579.286    2837.8299   -39417.116    1520.8082 
  198000    231.38929   -167.45046    114327.55    -36615.81    2824.4342   -39440.245     1520.602 
  198050    229.19232   -247.46149    114387.76   -36585.738     2797.617   -39383.355     1521.906 
  198100    232.93375    -82.78035    114353.68   -36594.414    2843.2866     -39437.7    1522.4855 
  198150    229.55391    83.248703    114167.22   -36619.879    2802.0308    -39421.91    1521.1543 
  198200    232.10684   -84.514827    114105.45   -36608.935     2833.193   -39442.128    1520.7583 
  198250    225.33176   -44.317293    114152.15   -36606.128    2750.4934   -39356.622    1520.9194 
  198300    231.08068     38.08049    114060.54   -36618.766    2820.6672   -39439.433    1519.7535 
  198350    227.50621    37.705555    113927.93    -36671.78    2777.0357   -39448.815    1518.9052 
  198400    224.47336    134.77463    113815.85   -36743.536    2740.0155   -39483.552    1517.9103 
  198450    227.18881    81.392509    113864.87   -36699.465    2773.1614   -39472.626    1518.2475 
  198500    227.74506   -111.20998    113905.57   -36713.852    2779.9513   -39493.803    1519.4037 
  198550    226.53701   -19.073491    113896.79   -36668.982    2765.2052   -39434.188     1518.937 
  198600    225.67855    110.71977    114057.77   -36685.982    2754.7265   -39440.709    1519.7906 
  198650    224.34098    346.18697    114196.77   -36637.427    2738.3996   -39375.827    1521.7495 
  198700    224.90357    195.46313    114076.69     -36631.4    2745.2668   -39376.667    1521.0959 
  198750    229.19848   -128.61867    114034.81   -36603.937    2797.6923   -39401.629    1520.7728 
  198800    234.04763    39.227825     113977.4   -36610.987     2856.883    -39467.87    1520.8657 
  198850    228.94236    41.439052    114072.45   -36631.038    2794.5659   -39425.603    1522.4666 
  198900    232.80358   -216.27126    114000.77   -36640.659    2841.6976   -39482.356    1522.4515 
  198950    230.14115    255.85977    113985.55   -36620.614    2809.1988   -39429.813    1522.5984 
  199000     232.3214    92.287631    113881.42   -36611.459    2835.8119   -39447.271    1522.5765 
  199050    229.18148   -56.637763    113949.45   -36642.051    2797.4848   -39439.536    1523.9503 
  199100    230.09418    340.08736    114021.07    -36634.73    2808.6255   -39443.356    1524.9503 
  199150    228.45394    209.14169    114171.88   -36645.492     2788.604   -39434.096    1526.7794 
  199200    230.27651   -127.34958    114184.02   -36667.653    2810.8511   -39478.504    1528.1218 
  199250      228.652     131.8128     114238.7   -36660.748    2791.0216   -39451.769    1528.5996 
  199300      229.604   -188.95418     114004.7   -36648.988    2802.6422    -39451.63    1526.9667 
  199350    232.95465    102.48703    114017.07   -36570.337    2843.5416   -39413.879    1526.8749 
  199400    232.94941   -22.993549     114056.6   -36548.328    2843.4777   -39391.805    1527.2845 
  199450    229.78516    41.593937    113939.34   -36592.269    2804.8535   -39397.123    1526.3941 
  199500    234.67116       38.936    114121.69   -36537.184    2864.4941   -39401.678    1527.8134 
  199550     229.8401    72.638984    114006.68   -36586.932    2805.5242   -39392.456    1526.5368 
  199600    235.46152   -273.07881    113884.58   -36583.474    2874.1415   -39457.615    1525.8948 
  199650    230.06513   -313.71669     113956.6   -36560.288     2808.271   -39368.559    1527.1648 
  199700    234.26513   -69.001423    114082.89   -36550.126    2859.5379   -39409.664    1528.5593 
  199750    229.86015   -24.277941       114086   -36548.948    2805.7689   -39354.717    1528.6056 
  199800    232.80683    -72.74739    114272.43   -36516.834    2841.7373   -39358.571    1530.1617 
  199850    230.65772   -60.731112    114189.41   -36580.823    2815.5043   -39396.328    1529.1241 
  199900    230.17805   -39.178217    114117.13   -36647.943    2809.6494   -39457.592    1528.6603 
  199950    226.59295      166.178    114071.06    -36638.97    2765.8881   -39404.858    1528.7171 
  200000    234.29063   -7.8105696    114322.96   -36595.979    2859.8492   -39455.828    1530.6517 
Loop time of 317.629 on 12 procs for 200000 steps with 4096 atoms

Performance: 272.016 ns/day, 0.088 hours/ns, 629.666 timesteps/s
99.8% CPU use with 12 MPI tasks x no OpenMP threads

MPI task timing breakdown:
Section |  min time  |  avg time  |  max time  |%varavg| %total
---------------------------------------------------------------
Pair    | 281.31     | 283.41     | 286.6      |  10.2 | 89.23
Neigh   | 6.7375     | 6.7712     | 6.8117     |   0.7 |  2.13
Comm    | 18.638     | 21.587     | 23.861     |  35.9 |  6.80
Output  | 0.34484    | 0.36849    | 0.61888    |  12.4 |  0.12
Modify  | 3.9398     | 4.1995     | 4.3906     |   7.7 |  1.32
Other   |            | 1.289      |            |       |  0.41

Nlocal:    341.333 ave 353 max 335 min
Histogram: 2 2 1 3 0 2 1 0 0 1
Nghost:    992.417 ave 1008 max 980 min
Histogram: 1 2 0 2 3 2 0 1 0 1
Neighs:    0 ave 0 max 0 min
Histogram: 12 0 0 0 0 0 0 0 0 0
FullNghs:  10696.8 ave 11097 max 10391 min
Histogram: 2 1 1 1 2 1 2 1 0 1

Total # of neighbors = 128362
Ave neighs/atom = 31.3384
Neighbor list builds = 12379
Dangerous builds = 0

undump              1
unfix               2
unfix               3
unfix               4




################################################
#######         Run Simulation         #########
################################################

reset_timestep      0
log                 log.run_${NAME}
log                 log.run_ice_230K_1atm_ML
