
# Set production fixes - Nose/Hoover
#
fix                 2 all nph iso ${PRES} ${PRES} ${PCOUPL}
fix                 2 all nph iso 1 ${PRES} ${PCOUPL}
fix                 2 all nph iso 1 1 ${PCOUPL}
fix                 2 all nph iso 1 1 10000.0
fix                 3 all temp/csvr ${TEMP} ${TEMP} ${TCOUPL} 837492
fix                 3 all temp/csvr 230 ${TEMP} ${TCOUPL} 837492
fix                 3 all temp/csvr 230 230 ${TCOUPL} 837492
fix                 3 all temp/csvr 230 230 5000.0 837492

# Define Order parameter
#
compute             2 all orientorder/atom nnn NULL cutoff 3.5
thermo              1000
thermo_style        custom step temp press vol etotal ke pe c_1[4]

# Run 5ns simulation
dump		    1 all custom 1000 prod.${NAME}.dump id type x y z vx vy vz c_2[*]
dump		    1 all custom 1000 prod.ice_230K_1atm_ML.dump id type x y z vx vy vz c_2[*]
run                 2000000
Neighbor list info ...
  update every 1 steps, delay 0 steps, check yes
  max neighbors/atom: 2000, page size: 100000
  master list distance cutoff = 6.00329
  ghost atom cutoff = 6.00329
  binsize = 3.00165, bins = 17 17 17
  2 neighbor lists, perpetual/occasional/extra = 1 1 0
  (1) pair sw, perpetual
      attributes: full, newton on
      pair build: full/bin/atomonly
      stencil: full/bin/3d
      bin: standard
  (2) compute orientorder/atom, occasional, copy from (1)
      attributes: full, newton on
      pair build: copy
      stencil: none
      bin: none
Per MPI rank memory allocation (min/avg/max) = 5.766 | 5.766 | 5.766 Mbytes
Step Temp Press Volume TotEng KinEng PotEng c_1[4] 
       0    234.29063   -6.9310667    114322.96   -36595.984    2859.8492   -39455.833    1530.6517 
    1000    231.96079   -188.89822    114236.63   -36644.652    2831.4101   -39476.062    1535.5504 
    2000    231.41681    235.20037    113924.65   -36645.043    2824.7701   -39469.813    1540.3159 
    3000    225.14838   -328.85402    113819.84   -36696.402     2748.255   -39444.657    1547.8565 
    4000    230.43506   -407.54054    114282.63   -36646.131    2812.7864   -39458.917    1558.9267 
    5000    229.28217    310.47527    113595.48   -36620.332    2798.7138   -39419.046    1560.7536 
    6000    230.63978    490.01393    114177.16   -36544.539    2815.2854   -39359.825    1573.5549 
    7000    228.10797    452.02284    114581.78   -36567.821     2784.381   -39352.202    1585.9387 
    8000    234.32572    52.752005    114225.72   -36532.828    2860.2775   -39393.106    1593.0932 
    9000    233.59854    136.46655    114196.52   -36485.886    2851.4013   -39337.287    1601.8969 
   10000    233.41977   -233.20112    114301.97   -36500.861    2849.2191    -39350.08     1611.139 
   11000    233.42433    21.748775    114509.02   -36538.479    2849.2747   -39387.754    1619.0489 
   12000    228.29986   -585.91039    113964.05   -36585.188    2786.7234   -39371.912    1621.3972 
   13000    233.50209   -501.94503     114180.1   -36554.174    2850.2239   -39404.398    1628.4355 
   14000    233.87735    383.73491    113524.24   -36546.153    2854.8044   -39400.957    1630.4799 
   15000    233.00211   -155.43428    113954.91   -36615.992     2844.121   -39460.113    1643.7143 
   16000    229.35592   -43.141109     113926.3   -36658.221     2799.614   -39457.835    1652.4015 
   17000    228.18233    28.582157    114105.29   -36605.713    2785.2887   -39391.002    1663.4378 
   18000     225.6897   -121.37272    114254.28   -36688.782    2754.8626   -39443.645     1671.565 
   19000    227.71891    171.91223    113597.24   -36680.908     2779.632    -39460.54    1672.9412 
   20000    228.75527    75.591933    114031.75    -36677.92    2792.2823   -39470.202    1686.8754 
   21000    226.22101     19.92188    114065.62   -36671.172     2761.348    -39432.52     1697.802 
   22000    232.93677    165.44871    113946.77   -36601.972    2843.3234   -39445.295    1698.4132 
   23000    232.24027    -292.9635    113923.77     -36598.6    2834.8216   -39433.422    1707.4831 
   24000    229.82763    286.78814    114060.06   -36589.465    2805.3719   -39394.837    1711.2223 
   25000    236.33356    -238.2246     113905.8   -36537.716     2884.786   -39422.502    1713.2721 
   26000    232.01715   -155.09072    114331.51   -36580.734    2832.0982   -39412.832    1722.4416 
   27000    228.10425    296.93824    113715.39   -36639.084    2784.3356    -39423.42    1718.6381 
   28000    232.01311    189.44639    114180.17   -36593.888    2832.0488   -39425.937    1730.6159 
   29000    228.55132    389.01316    113784.65   -36655.869    2789.7928   -39445.662    1737.2437 
   30000    225.59262   -219.48118    113880.92   -36596.964    2753.6777   -39350.642    1747.5676 
   31000    235.14525   -388.43035    113775.22   -36562.393     2870.281   -39432.674    1753.0973 
   32000    231.36188     229.7271    113853.26   -36563.789    2824.0996   -39387.888    1760.6572 
   33000    232.48122   -240.50749    114601.03   -36564.427    2837.7628    -39402.19    1774.9681 
   34000      230.272   -14.628745     114173.3   -36520.196     2810.796   -39330.992     1779.504 
   35000    227.59414    65.714808    114138.86   -36624.628     2778.109   -39402.738    1786.7716 
   36000    229.27389   -142.62463    114265.66   -36600.537    2798.6127    -39399.15    1796.0995 
   37000    228.42696   -427.37773    113691.05   -36635.379    2788.2747   -39423.654    1799.5454 
   38000    226.80455    28.994221    113989.86    -36631.98     2768.471   -39400.451    1810.5576 
   39000     229.2124   -375.38668    114091.61   -36660.754    2797.8621   -39458.616     1823.561 
   40000    227.97023   -561.74461    113552.84   -36730.461    2782.6997    -39513.16     1824.685 
   41000    229.24893    436.65905    113398.88   -36720.958    2798.3081   -39519.266     1829.329 
   42000    228.24061    310.83811    113790.28   -36696.675    2786.0002   -39482.675    1841.0925 
   43000    225.58209   -9.1398165    113661.26   -36736.043     2753.549   -39489.592    1849.8953 
   44000    225.69898   -599.65469    114136.25   -36728.879    2754.9759   -39483.855      1862.07 
   45000    229.95902   -13.084959    113816.81   -36689.274    2806.9757    -39496.25    1869.4633 
   46000     226.2256   -84.918464    113784.95   -36712.454     2761.404   -39473.858    1879.7135 
   47000    225.95269   -92.414143    113918.14    -36677.04    2758.0727   -39435.113    1891.6004 
   48000    229.48058   -426.91568    113965.18   -36550.282    2801.1357   -39351.417     1897.209 
   49000    235.54728    17.564497    113840.12   -36506.815    2875.1884   -39382.003    1903.8488 
   50000    232.41238    992.63154    113975.41    -36537.53    2836.9225   -39374.452    1912.7654 
   51000    234.50063    339.16785    113749.04   -36543.353    2862.4125   -39405.765    1912.8721 
   52000    233.89497     557.3341    114187.59   -36497.682    2855.0195   -39352.701    1922.7801 
   53000    232.35655    518.07147     114106.6    -36499.86    2836.2409   -39336.101    1929.9861 
   54000    234.60599    694.78184    113606.48   -36539.354    2863.6986   -39403.052    1930.5442 
   55000    234.97826    318.20401    113979.21   -36518.195    2868.2427   -39386.438    1942.3019 
   56000    236.11761    203.98001     114210.5   -36547.205      2882.15   -39429.355    1952.7428 
   57000    229.59713   -17.522281    113775.93   -36531.122    2802.5584   -39333.681    1954.4849 
   58000    231.13144    424.36458     114071.6   -36584.938    2821.2868   -39406.225    1966.1585 
   59000    227.76494   -136.65696    113840.41   -36637.332    2780.1939   -39417.526    1971.8586 
   60000    230.91271    242.63924    114175.81   -36578.469    2818.6169   -39397.086    1982.6299 
   61000    232.76379    312.58164    113992.52   -36546.877    2841.2119   -39388.089    1990.1803 
   62000     233.4004   -1.7778392    114295.58   -36554.263    2848.9827   -39403.246    2000.8886 
   63000     230.7265   -133.36681    114641.27   -36506.779    2816.3439   -39323.123    2013.5607 
   64000    233.99746     209.7208    114439.97   -36480.113    2856.2706   -39336.383    2018.3513 
   65000    236.35412   -294.67949    114262.85   -36519.244    2885.0369   -39404.281    2025.3331 
   66000    230.30243    269.38923    113874.35   -36545.475    2811.1675   -39356.643    2028.2419 
   67000    230.26833   -122.93991     114215.6   -36586.828    2810.7513   -39397.579     2038.992 
   68000    232.28528    282.76894    113686.54     -36558.4     2835.371   -39393.771    2036.7488 
   69000    232.06037   -26.584883    114514.75   -36564.901    2832.6257   -39397.527    2056.9887 
   70000    232.87198    89.343243    114154.93   -36553.453    2842.5325   -39395.986     2061.612 
   71000    230.31791    420.77203    113737.19   -36588.468    2811.3565   -39399.825     2063.163 
   72000    229.46046    216.80695    114174.67   -36590.204      2800.89   -39391.094    2081.2877 
   73000    228.39165      458.208    114194.91   -36627.237    2787.8438   -39415.081    2091.9377 
   74000    227.14368    491.42403    113906.52   -36662.669    2772.6106    -39435.28    2093.5947 
   75000    229.57753    447.33569    113515.23   -36647.085    2802.3191   -39449.404     2093.799 
   76000    225.89271    339.95672    113876.61   -36589.682    2757.3407   -39347.023    2104.3566 
   77000    228.06909    9.5067998    114100.32   -36565.348    2783.9065   -39349.254    2113.2136 
   78000    232.44246    492.56319    113949.27   -36602.922    2837.2896   -39440.212    2117.4224 
   79000    234.70056    147.44655    113642.73   -36611.066     2864.853   -39475.919    2122.7153 
   80000     228.8379    255.89339     114067.9   -36573.033    2793.2908   -39366.324    2133.9499 
   81000    230.18416   -456.43913    114159.21   -36527.855    2809.7239   -39337.579     2142.803 
   82000    234.95566   -80.815732    113852.25   -36481.912    2867.9667   -39349.879    2145.1702 
   83000    231.70743    309.56862    114065.63   -36565.261    2828.3175   -39393.578     2154.766 
   84000    233.93842    136.98918     114176.5   -36597.026      2855.55   -39452.576     2164.734 
   85000    229.03642    471.67861    114084.82    -36568.01    2795.7141   -39363.724    2171.8428 
   86000    231.40706   -116.65981     114425.8   -36502.922    2824.6511   -39327.573    2184.9026 
   87000    228.72348    624.26631    114071.57   -36539.814    2791.8942   -39331.708    2190.3484 
   88000    230.20358     367.7323    114035.14   -36516.833    2809.9609   -39326.793    2195.1953 
   89000      229.875   -559.93462    114538.23   -36545.102    2805.9502   -39351.052    2208.7396 
   90000    230.52225    67.580569    114316.84   -36545.367    2813.8507   -39359.217    2218.8655 
   91000    229.74313    361.94779     114103.6   -36610.185    2804.3404   -39414.525    2222.8648 
   92000     232.3419    48.944952    114198.85   -36617.743    2836.0622   -39453.805    2228.5693 
   93000    232.97998   -344.79636    113954.67   -36575.772    2843.8508   -39419.623    2232.0474 
   94000    230.10933   -91.493068    114152.64   -36562.423    2808.8104   -39371.233    2243.3346 
   95000    226.08784   -179.23165    114116.39   -36657.327    2759.7225   -39417.049    2249.6365 
   96000    231.90699    316.35391    113880.71   -36612.636    2830.7534   -39443.389    2252.8909 
   97000    229.72162   -60.632915    113370.72   -36678.198    2804.0779   -39482.276    2252.4362 
   98000    229.84214    314.11896    113493.95    -36602.72    2805.5491   -39408.269    2258.6862 
   99000    235.27108    293.78886    113677.95   -36554.486     2871.817   -39426.303    2271.3193 
  100000    226.46009   -115.73301     113549.2       -36686    2764.2663   -39450.266    2275.6217 
  101000    228.43076    425.18238    114059.03   -36628.836    2788.3211   -39417.157     2291.162 
  102000    227.95376   -64.131507    114445.84   -36587.253    2782.4987   -39369.751    2303.7118 
  103000    233.12687   -20.815806    114072.43   -36544.077    2845.6439   -39389.721     2304.919 
  104000    237.85071     464.5338    113688.04   -36556.607    2903.3049   -39459.912    2307.3751 
  105000    227.14085   -181.43352    113921.64   -36604.394     2772.576    -39376.97     2320.901 
  106000    231.33205   -383.64562    114077.47   -36573.054    2823.7355    -39396.79    2329.2083 
  107000    234.06662   -347.52883    113889.98   -36550.862    2857.1149   -39407.977     2338.767 
  108000    227.32605   -40.589443     114199.2   -36525.062    2774.8366   -39299.899    2349.3497 
  109000    230.76751    28.710173    114101.04   -36563.175    2816.8445    -39380.02    2351.5494 
  110000    233.47034    368.94132    114162.32   -36517.339    2849.8363   -39367.176    2360.3677 
  111000    230.08299    127.51461    113704.14   -36602.552    2808.4889   -39411.041    2362.9469 
  112000    225.77277   -106.03848    113851.82   -36688.664    2755.8766    -39444.54    2373.8395 
  113000    232.02544    -365.5937    113754.88   -36613.417    2832.1993   -39445.617    2378.9629 
  114000    231.01339   -357.08889    114129.72   -36614.624    2819.8458    -39434.47    2393.7339 
  115000    234.14417   -76.275756    114534.44   -36552.326    2858.0614   -39410.387    2406.2599 
  116000    228.37728   -454.48682    114473.77   -36574.357    2787.6683   -39362.025    2415.0826 
  117000     226.7765    304.51726     113998.7   -36615.013    2768.1286   -39383.142    2415.0258 
  118000    224.77547   -840.58381    114374.46   -36561.405    2743.7032   -39305.108    2425.9302 
  119000    229.35852   -254.22786       113729   -36678.179    2799.6457   -39477.825    2425.2233 
  120000    229.71063   -226.81673    114224.24   -36682.452    2803.9438   -39486.396    2440.4309 
  121000    231.51047    124.04032    113689.85   -36676.642    2825.9133   -39502.555    2439.5996 
  122000    229.13528     817.7284    113776.98   -36648.588    2796.9209   -39445.509    2442.8978 
  123000    232.67077    54.344549    113968.45   -36551.322    2840.0764   -39391.398    2449.7158 
  124000    224.38034    244.67249    114282.47   -36599.394    2738.8801   -39338.274    2461.4294 
  125000    231.18467    183.26107    114075.95   -36638.097    2821.9365   -39460.033    2471.2571 
  126000    228.71292   -301.88306    114101.93    -36657.68    2791.7653   -39449.445    2475.5001 
  127000    222.51051    444.01863    113903.95   -36674.575    2716.0561   -39390.631    2485.7492 
  128000    231.21656    472.22193    113439.48   -36686.762    2822.3258   -39509.088    2482.9282 
  129000    227.70092   -275.15935    113724.16   -36757.288    2779.4124   -39536.701    2488.8912 
  130000    223.48081   -62.831854    113836.62   -36740.931       2727.9   -39468.831    2496.8346 
  131000     227.8383     179.2651    113517.87   -36744.952    2781.0893   -39526.041    2502.5668 
  132000    229.40927    16.692551    113691.78   -36664.431    2800.2652   -39464.696    2515.5039 
  133000    231.55873     -97.0116    113832.28   -36618.701    2826.5024   -39445.203    2524.3322 
  134000    230.83755   -250.36516    113874.21   -36557.768    2817.6995   -39375.468     2536.621 
  135000    228.86248   -240.61353    113822.15   -36649.019    2793.5908    -39442.61    2544.5729 
  136000    226.64563   -46.182008    114199.26   -36702.487    2766.5311   -39469.019    2553.9411 
  137000     229.5966   -300.69741    114191.75   -36639.014    2802.5519   -39441.566    2557.5596 
  138000    227.25392    -145.0333    114212.06   -36620.639    2773.9561   -39394.595    2566.0396 
  139000    227.02344     78.00348    114190.73   -36602.913    2771.1429   -39374.056    2569.5739 
  140000    232.34881     84.78714    114044.51   -36554.116    2836.1466   -39390.263    2573.3312 
  141000      234.144    174.45596    113830.69   -36625.241    2858.0593     -39483.3    2577.5513 
  142000    227.49168   -197.86447    114123.23   -36617.908    2776.8584   -39394.766     2594.187 
  143000     223.4111   -563.65307    113931.44   -36659.252    2727.0491   -39386.301    2596.4244 
  144000    232.98717     648.1882    113675.58   -36612.496    2843.9385   -39456.435    2598.3544 
  145000    231.79277   -286.74575    114036.43   -36591.361    2829.3593   -39420.721    2613.9869 
  146000    227.12964    337.10178     113686.3   -36626.085    2772.4391   -39398.524    2617.8826 
  147000    229.88912   -263.65507    114099.97   -36547.094    2806.1225   -39353.216    2629.2806 
  148000    227.10954   -200.08615    114467.34   -36593.808    2772.1938   -39366.002    2639.8872 
  149000    223.12286   -126.07123    113630.45   -36644.007    2723.5308   -39367.538    2634.6816 
  150000    228.51002   -86.357518    114098.65   -36632.339    2789.2886   -39421.628    2654.2172 
  151000    228.31566    741.54426    113922.56   -36614.032    2786.9162   -39400.948    2662.5096 
  152000    231.50205    107.19345    114312.49   -36532.453    2825.8106   -39358.264    2680.9605 
  153000    229.97928   -341.31171    114167.47   -36553.924     2807.223   -39361.147    2688.9008 
  154000    224.61986    1.3659806    114348.62   -36601.418    2741.8037   -39343.222    2701.0968 
  155000    232.62376    128.05954    113923.56   -36571.307    2839.5027   -39410.809    2702.7745 
  156000    230.06102    457.18237    113920.97   -36611.147    2808.2208   -39419.367    2708.0645 
  157000    231.94482   -508.48496     113852.1   -36693.221    2831.2152   -39524.437    2710.6287 
  158000    225.43156   -336.32392     113608.2   -36758.828    2751.7117    -39510.54    2714.9591 
  159000    231.01299   -11.608384     113818.3   -36672.213     2819.841   -39492.054    2723.4736 
  160000    228.13076     24.42788    113817.13   -36635.162    2784.6592   -39419.821    2729.7362 
  161000     226.5192    439.63721    113729.17   -36654.417    2764.9878   -39419.404    2734.7008 
  162000    227.34549    434.87558    113567.27   -36683.762    2775.0738   -39458.836    2738.8028 
  163000    230.12583    352.09238    113642.97   -36646.375    2809.0118   -39455.387    2745.3431 
  164000    228.14355   -350.86727    114082.71   -36677.243    2784.8154   -39462.059    2756.8507 
  165000    229.02219    -230.9253    114295.82    -36652.32    2795.5404    -39447.86    2767.3855 
  166000    233.55356    31.057429    114158.25   -36591.613    2850.8522   -39442.466    2776.0932 
  167000    228.75996   -116.56095    114012.96   -36653.512    2792.3395   -39445.851    2779.8519 
  168000    223.73976   -454.86079     114398.6   -36681.313    2731.0608   -39412.374    2795.0831 
  169000    230.19191   -422.53203    113905.74   -36672.335    2809.8185   -39482.153    2793.8834 
  170000    231.16272   -111.35246     113615.4   -36714.033    2821.6686   -39535.702    2793.7052 
  171000    225.54845   -154.27713     114221.1    -36703.79    2753.1385   -39456.928    2811.6714 
  172000     225.3678   -26.389412    113956.12   -36684.117    2750.9334    -39435.05    2815.7721 
  173000    229.13398    390.04927     113737.7   -36676.913     2796.905   -39473.818    2818.6044 
  174000    230.32186    104.53525    113657.66   -36640.716    2811.4047   -39452.121    2823.2936 
  175000    228.13906   -494.22366    113970.15   -36631.786    2784.7606   -39416.546    2831.6773 
  176000     229.7482   -142.05497    113974.08   -36633.729    2804.4024   -39438.131    2839.4749 
  177000    227.70638    183.81176    114247.37   -36600.106    2779.4791   -39379.585    2851.8067 
  178000    231.42603   -590.11421    113948.72   -36616.126    2824.8827   -39441.009    2855.7701 
  179000    230.43967    355.70697    113859.83   -36586.497    2812.8428    -39399.34    2865.7275 
  180000    224.75669   -368.37924    114520.98   -36591.963    2743.4739   -39335.437    2886.0897 
  181000    230.74772     73.32181    114242.28   -36581.466    2816.6029   -39398.069    2892.9484 
  182000    234.82966    682.94333     113961.1   -36594.469    2866.4288   -39460.897    2890.2725 
  183000    233.87261    27.257058    114370.76   -36551.682    2854.7466   -39406.429    2901.3467 
  184000    233.47492    281.39002    113919.77   -36618.261    2849.8923   -39468.153    2902.7089 
  185000    227.16469    118.69361    114172.59   -36647.188     2772.867   -39420.055    2918.1165 
  186000    231.89473   -376.01287    113688.25   -36646.404    2830.6039   -39477.008    2920.9304 
  187000    234.33184   -31.305447    113734.23   -36602.477    2860.3521   -39462.829    2922.2021 
  188000    228.51544    37.520182    113788.92   -36634.605    2789.3548    -39423.96    2932.6231 
  189000    229.20226   -591.37874    114372.11   -36611.787    2797.7384   -39409.526    2948.1105 
  190000    229.05112    232.03183    114503.89    -36635.98    2795.8935   -39431.873    2964.4395 
  191000     230.1032    817.87445    114076.85   -36600.068    2808.7357   -39408.804    2967.7528 
  192000    228.56206   -846.67952    114168.37   -36623.767    2789.9238   -39413.691    2977.5905 
  193000    230.34392    456.91004     113866.3   -36599.477     2811.674   -39411.151    2982.9456 
  194000    226.06306   -242.86861    114125.66   -36634.718    2759.4201   -39394.138    2997.8078 
  195000    230.86807    67.099178    113835.13   -36598.458    2818.0719    -39416.53    3001.1234 
  196000     228.9636   -65.046631    114145.24   -36608.187    2794.8252   -39403.013    3009.2597 
  197000    227.98364    308.92418    114100.93   -36628.844    2782.8635   -39411.707    3017.4923 
  198000     233.1465   -227.49395    114113.76   -36596.755    2845.8834   -39442.639    3027.1021 
  199000    229.84288   -434.53265    113906.72   -36568.616     2805.558   -39374.174    3028.7104 
  200000    233.48403     139.5779    114253.98    -36589.97    2850.0035   -39439.974    3045.8763 
  201000    226.60511    125.33596    114253.87   -36602.662    2766.0364   -39368.699    3044.8424 
  202000    229.97952    19.598265    114328.03    -36556.56     2807.226   -39363.785    3051.1191 
  203000    228.26173    584.45582    114170.09   -36621.591    2786.2579   -39407.849    3054.4826 
  204000    229.56414   -85.146582    113866.22    -36640.36    2802.1557   -39442.515    3055.3968 
  205000    228.90067   -254.12161    114282.47   -36635.157    2794.0571   -39429.214    3072.1437 
  206000    230.21225    92.787483    113382.06   -36633.185    2810.0667   -39443.252    3067.6683 
  207000    232.63052    -111.5492    114125.04   -36566.149    2839.5851   -39405.734    3092.5347 
  208000    229.91902   -253.04946    113634.34   -36622.732    2806.4875    -39429.22     3090.682 
  209000    227.79908    503.87491    113626.36    -36693.37    2780.6106    -39473.98    3094.7578 
  210000    230.68653   -155.55803    114596.93   -36614.695     2815.856   -39430.552    3126.8181 
  211000    228.08742    267.88155    113860.04   -36653.997    2784.1302   -39438.127    3124.7531 
  212000    227.09256    116.12568    113924.23   -36678.625    2771.9866   -39450.612    3131.8159 
  213000    225.37715    319.94113    114023.15   -36682.171    2751.0475   -39433.218    3143.4441 
  214000    229.44562   -479.23566    114044.29   -36600.482     2800.709   -39401.191    3153.4775 
  215000    227.27339    41.208155    114621.88   -36568.523    2774.1939   -39342.717    3166.6088 
  216000    234.75041    381.87724    114274.69   -36535.532    2865.4615   -39400.994    3163.6449 
  217000    227.56466    410.72464     113861.2   -36567.339    2777.7492   -39345.089    3160.8807 
  218000    227.75433   -1024.2336    114288.16   -36623.848    2780.0644   -39403.913    3173.4632 
  219000    230.63654    -452.1456     113552.7   -36625.481    2815.2458   -39440.727    3164.1371 
  220000    226.57546    179.82463    113796.76   -36710.535    2765.6746    -39476.21    3175.3719 
  221000    223.07869    -312.5778    114046.31   -36671.045    2722.9915   -39394.037    3190.7779 
  222000    226.15119   -536.71233    114215.39   -36684.199    2760.4957   -39444.694    3197.5425 
  223000    229.28225    -271.7744    113715.25   -36687.995    2798.7148   -39486.709    3197.5867 
  224000    228.95863   -205.35351    113848.33   -36644.913    2794.7646   -39439.678    3204.1779 
  225000    230.89639    285.81066    113773.26   -36652.242    2818.4176    -39470.66    3208.5464 
  226000    229.89872       403.82    114102.17   -36638.388    2806.2396   -39444.628    3221.7362 
  227000     231.4074     128.6169       114643   -36559.175    2824.6553    -39383.83    3241.8378 
  228000    226.77654    210.29239    113905.89   -36592.186    2768.1291   -39360.315    3236.5669 
  229000    228.41536   -256.74631    113928.33   -36580.005    2788.1331   -39368.138    3245.4524 
  230000    226.62419    94.360266    114579.79   -36579.298    2766.2693   -39345.567    3270.5341 
  231000    230.61976    101.56344    114259.75   -36560.857    2815.0411   -39375.898     3272.903 
  232000    229.89623    -535.6278    114482.63   -36575.837    2806.2093   -39382.046    3289.1264 
  233000    229.19971   -87.498589     114128.2   -36646.986    2797.7072   -39444.694    3290.5827 
  234000    226.16815    -138.0059    114192.36   -36659.247    2760.7028    -39419.95    3297.8368 
  235000    230.57673    450.11822    114081.03   -36600.311    2814.5158   -39414.826     3301.844 
  236000    229.97914   -576.50908    114048.09   -36616.229    2807.2213    -39423.45    3307.8217 
  237000    231.92139   -377.75394    114039.91   -36611.448    2830.9293   -39442.377    3318.4877 
  238000    228.59592    600.62697     113902.3   -36595.171    2790.3372   -39385.508    3318.4746 
  239000     230.4661    582.76003    113987.84   -36601.696    2813.1653   -39414.861     3330.888 
  240000    227.33742   -133.39398    113712.58   -36698.356    2774.9754   -39473.332    3334.4942 
  241000    227.36832    95.122466     114281.2   -36614.929    2775.3526   -39390.282    3353.4623 
  242000     229.0403   -79.032405     113939.6   -36601.102    2795.7615   -39396.863    3355.4674 
  243000    227.99005    77.876667    113659.79   -36673.786    2782.9417   -39456.728    3360.8943 
  244000    225.99171   -163.19945    114039.26   -36667.335    2758.5491   -39425.885    3377.5818 
  245000    229.03975    151.34156    113747.02   -36609.859    2795.7547   -39405.614    3374.1875 
  246000    232.94649   -662.34126    113804.34   -36626.942     2843.442   -39470.384    3384.7637 
  247000    238.32969    77.538321     113828.8   -36568.312    2909.1516   -39477.463    3389.9081 
  248000    237.62728    111.19916    113871.89   -36541.371    2900.5777   -39441.948    3398.6294 
  249000    231.05383    357.17074    113947.94   -36546.486    2820.3394   -39366.825    3407.8353 
  250000    231.07031    56.512123    114138.55   -36563.536    2820.5406   -39384.076    3422.6105 
  251000    233.05036   -676.70135    114357.19   -36589.331    2844.7099   -39434.041    3431.8143 
  252000    230.87759    -206.6026    114428.82   -36576.204    2818.1882   -39394.392    3438.7165 
  253000    231.64573    170.34281    114351.55    -36637.34    2827.5644   -39464.904    3443.2264 
  254000    229.74996   -66.982189    114067.51   -36662.746    2804.4239    -39467.17    3442.9541 
  255000    230.06153   -332.03862    113959.16    -36658.45     2808.227   -39466.677    3449.2357 
  256000    229.40831    632.24915    114030.84   -36615.604    2800.2535   -39415.858    3460.3908 
  257000      227.499    215.16152     113940.9   -36669.039    2776.9477   -39445.987    3459.3333 
  258000    232.02992    60.993839    114162.54   -36616.841     2832.254   -39449.095     3472.415 
  259000    231.06832    -65.30693    113497.88   -36632.287    2820.5164   -39452.804    3464.3296 
  260000    232.78034    4.1418021    114033.17   -36554.118    2841.4139   -39395.532    3484.6591 
  261000    230.95673    284.50332    113681.73   -36590.313    2819.1542   -39409.467    3484.5223 
  262000    229.56371    252.45573    113837.68   -36622.214    2802.1504   -39424.364      3496.51 
  263000    226.40437   -49.492677     114345.8   -36598.672    2763.5862   -39362.258    3514.3486 
  264000    230.99517   -12.632044    114144.32   -36592.002    2819.6235   -39411.625    3516.2323 
  265000    230.18543    1174.2978    113536.99    -36576.73    2809.7394   -39386.469    3512.2195 
  266000    231.98402    218.43152    113604.47   -36555.822    2831.6937   -39387.516    3523.3838 
  267000     227.5043   -125.08545    114203.51    -36617.23    2777.0123   -39394.243    3542.5728 
  268000     233.4396   -292.24228    114093.07   -36583.805    2849.4611   -39433.266    3550.4707 
  269000    228.69144    165.68868    113700.12   -36672.738    2791.5031   -39464.241    3548.9356 
  270000    226.72129    -237.6893    114044.76   -36670.769    2767.4547   -39438.224    3568.8142 
  271000    226.98836    252.18076    113921.39    -36675.71    2770.7146   -39446.425    3583.2844 
  272000      229.835   -365.75731    114033.18   -36654.158    2805.4619    -39459.62     3593.332 
  273000    226.85316    154.45831    113928.28   -36688.249    2769.0643   -39457.313    3604.5868 
  274000    231.45751   -376.64136    113945.03   -36652.375    2825.2669   -39477.641    3613.7674 
  275000    231.69665    465.78374    114035.55   -36583.488     2828.186   -39411.674    3628.8603 
  276000    230.08019    480.53176    114351.41   -36565.888    2808.4548   -39374.342    3644.8095 
  277000    232.99218    36.726545    114357.88   -36565.559    2843.9997   -39409.559    3651.9778 
  278000    232.25424    132.17182     113850.5   -36590.839    2834.9921   -39425.831    3650.2084 
  279000    231.79417    81.781517    113478.27   -36658.133    2829.3763   -39487.509    3647.6149 
  280000    227.03515   -106.95654    113938.03   -36614.025    2771.2858   -39385.311      3669.07 
  281000    228.62773   -36.349139    114194.88   -36648.852    2790.7255   -39439.578    3679.6278 
  282000    232.49025   -286.13055    113812.96   -36584.232     2837.873   -39422.105    3682.0379 
  283000     230.5487   -88.563516    114207.94    -36566.85    2814.1736   -39381.024    3698.1937 
  284000    231.96395    71.689029    113993.57   -36587.547    2831.4488   -39418.995     3704.108 
  285000    226.05124   -583.99242    114232.62   -36698.314    2759.2757    -39457.59    3718.9028 
  286000    227.33347    20.718417    113904.04    -36633.04    2774.9271   -39407.967    3719.3903 
  287000    227.96103    173.23488    113932.82   -36616.791    2782.5875   -39399.378     3728.336 
  288000    226.79074    154.67408    113896.03   -36623.007    2768.3024   -39391.309    3731.4058 
  289000    228.40966    213.80464    114320.46   -36538.469    2788.0636   -39326.533    3743.6688 
  290000     235.0097    184.29546     113956.9   -36582.776    2868.6264   -39451.403    3740.1282 
  291000    235.60572   -229.76872    113762.76   -36544.803    2875.9016   -39420.705    3742.4113 
  292000    229.31493    108.83219       113790   -36579.849    2799.1137   -39378.963     3748.457 
  293000    227.71499   -78.448092    114039.82   -36571.453    2779.5841   -39351.037    3760.0761 
  294000    231.12366    99.433605    115034.58   -36464.943    2821.1918   -39286.135    3791.1514 
  295000    228.12221   -84.835027    114384.05   -36538.344    2784.5548   -39322.899    3788.8265 
  296000    229.78534    -51.83126    114087.98   -36615.758    2804.8557   -39420.614    3785.4112 
  297000    232.83987   -338.28347    113844.15     -36554.1    2842.1406   -39396.241    3788.4643 
  298000    225.83887   -202.01197    114054.33   -36621.897    2756.6834    -39378.58    3805.6278 
  299000    232.38859   -295.33225    113859.12   -36622.388    2836.6321    -39459.02     3805.593 
  300000    232.02418    185.37638    113787.08   -36540.946    2832.1839    -39373.13    3810.7492 
  301000    233.99826    221.98015    114198.36   -36547.774    2856.2804   -39404.054    3828.0848 
  302000    232.41993    517.27918    114501.64    -36544.96    2837.0146   -39381.975    3847.7038 
  303000    229.56044   -174.54124    113937.75   -36618.356    2802.1105   -39420.467     3837.835 
  304000    236.79504    266.87451    113599.68   -36539.534     2890.419   -39429.953    3837.3625 
  305000     231.3797   -189.23809    114023.46   -36620.767    2824.3171   -39445.084    3856.9907 
  306000    225.45052   -616.35929    113875.08   -36692.669    2751.9431   -39444.612    3857.8861 
  307000    226.91604   -28.557947    114463.18   -36621.697    2769.8319   -39391.529    3882.2935 
  308000    227.76742   -235.70097    114116.69   -36666.593    2780.2241   -39446.817    3884.6981 
  309000    230.08724    473.93603    114320.21   -36555.428    2808.5408   -39363.969    3896.0176 
  310000    236.47091    733.66031    113876.04   -36536.397    2886.4626    -39422.86    3893.6509 
  311000    227.45576    -152.2234    114394.08   -36549.612    2776.4199   -39326.032    3909.1345 
  312000    231.87002     391.0758    113921.57   -36586.199    2830.3022   -39416.502    3899.9984 
  313000    228.81045   -642.28946    114425.23   -36627.879    2792.9558   -39420.835    3919.6868 
  314000    232.54766    668.78839     113724.5   -36630.642    2838.5738   -39469.216     3916.161 
  315000    227.74631     149.2613    114021.09   -36629.541    2779.9664   -39409.507    3934.0575 
  316000     226.7907   -50.861222    113511.19   -36739.854    2768.3019   -39508.156    3930.6519 
  317000    228.25509    568.41805    113775.36   -36703.863    2786.1768    -39490.04    3944.4448 
  318000    229.69701     477.2408     113869.4   -36669.241    2803.7775   -39473.018    3949.8482 
  319000    228.65416   -22.482811    113682.85   -36689.961    2791.0481   -39481.009    3951.9789 
  320000    224.90702   -89.387768    113901.98   -36727.226    2745.3089   -39472.535    3966.6478 
  321000    226.59627   -479.51875    114101.66   -36724.954    2765.9286   -39490.883    3987.7497 
  322000    227.69208   -206.60416    113910.81   -36689.391    2779.3045   -39468.696    3993.0751 
  323000     228.3241    33.146667    114151.85   -36657.846    2787.0192   -39444.865    4003.2646 
  324000    231.47306   -356.77903    113860.56   -36654.802    2825.4568   -39480.259    4003.3594 
  325000    228.56713    11.822138     113749.6   -36666.847    2789.9858   -39456.832    4007.5295 
  326000    231.66535   -104.58293    114258.97   -36562.218    2827.8039   -39390.022    4026.2634 
  327000    230.27901    55.162215    113690.88   -36575.686    2810.8817   -39386.568    4017.6301 
  328000    232.96107    343.79526    114117.84   -36550.973      2843.62   -39394.593    4037.8276 
  329000    229.64529    484.40872    114017.62   -36596.128    2803.1462   -39399.275    4046.5117 
  330000    230.13302     265.5202    114299.86   -36565.419    2809.0996   -39374.519    4058.8937 
  331000    233.17189   -236.10094    114181.51   -36535.011    2846.1933   -39381.204    4066.5214 
  332000    231.80648   -394.69543    114617.87   -36522.367    2829.5266   -39351.893    4080.1387 
  333000    230.48914   -466.10398     114096.1   -36594.051    2813.4465   -39407.498     4069.506 
  334000     224.5258     534.4884    113932.61   -36626.178    2740.6556   -39366.833    4068.5992 
  335000    226.17803    736.11379    114064.98   -36640.206    2760.8234    -39401.03    4075.6427 
  336000    230.66479    14.512411    113976.82   -36616.588    2815.5906   -39432.179    4081.7122 
  337000    230.45417    478.35329    113640.14   -36655.009    2813.0197   -39468.028    4076.0587 
  338000    227.98682    17.667294    113433.52   -36755.314    2782.9023   -39538.216    4077.1436 
  339000    230.67058    17.336708    113650.42   -36698.019    2815.6613   -39513.681    4087.9974 
  340000    231.99806     43.45015    113921.23   -36636.737    2831.8651   -39468.602     4101.286 
  341000    225.45997   -151.09321    114415.88   -36646.392    2752.0585   -39398.451    4120.8945 
  342000    223.96722    492.02292    114061.01   -36674.328    2733.8374   -39408.165    4115.8863 
  343000    227.36862   -319.97177     114191.6   -36684.656    2775.3562   -39460.012    4122.2236 
  344000    225.34668    580.42349     113795.2   -36669.775    2750.6756   -39420.451    4123.2518 
  345000    226.91084   -881.89278    114059.74   -36716.229    2769.7684   -39485.998    4135.9407 
  346000    228.57272   -1038.0702    113610.97   -36757.252     2790.054   -39547.306    4128.4312 
  347000    226.50249    92.735789    113483.95   -36771.116    2764.7838   -39535.899    4132.4226 
  348000    224.01577   -324.92092    113912.31   -36681.419    2734.4299   -39415.849     4152.274 
  349000    230.62955    563.91253    113743.34    -36710.38    2815.1605    -39525.54    4157.6516 
  350000    225.26902   -298.45528     114131.1   -36694.722    2749.7276    -39444.45    4178.1809 
  351000    226.67629   -162.37394    114016.21   -36694.272    2766.9054   -39461.178    4185.6203 
  352000    229.94889   -89.369468    114138.07   -36639.358     2806.852    -39446.21    4191.7887 
  353000    229.83331   -1.7981284    114679.11   -36636.846    2805.4412   -39442.287    4211.4941 
  354000    231.76263   -744.71437    114263.25   -36629.455    2828.9914   -39458.446     4211.167 
  355000    229.59804   -108.31061    113968.56   -36648.044    2802.5694   -39450.613    4208.5527 
  356000    227.61861    191.58558    114000.74   -36637.128    2778.4077   -39415.536    4218.1298 
  357000    226.41338     450.7271     114223.4   -36669.704    2763.6961     -39433.4    4230.9704 
  358000    230.30358   -153.08327    113886.88   -36636.101    2811.1815   -39447.282    4230.6335 
  359000    230.14616   -10.315437    113845.12   -36588.793    2809.2601   -39398.054    4233.9557 
  360000    232.97271    32.261932    113716.57   -36690.259    2843.7621   -39534.021    4235.8596 
  361000     228.1222   -636.83386    114431.26   -36645.168    2784.5547   -39429.723    4264.0673 
  362000    227.25887    174.18526    114474.28   -36618.633    2774.0166   -39392.649    4276.5267 
  363000    229.76029    23.305733    114413.99     -36633.7    2804.5499    -39438.25    4276.8356 
  364000    229.33217   -484.45318    113686.13    -36638.68    2799.3241   -39438.004    4266.0147 
  365000    230.30484    -441.0041    114067.17   -36687.041     2811.197   -39498.238    4282.6387 
  366000    231.70552   -486.42994    114135.08   -36627.007    2828.2942   -39455.301    4289.8106 
  367000    225.37669   -510.96385    113791.84   -36716.608    2751.0418    -39467.65    4291.9275 
  368000    224.21574    27.636982       114025   -36703.516    2736.8708   -39440.387    4298.4151 
  369000    231.67032    223.54013     113373.3   -36714.073    2827.8646   -39541.937    4287.3127 
  370000    229.59152    220.37793    113496.84    -36635.63    2802.4898    -39438.12    4303.4135 
  371000     224.8545    470.27771    113883.17   -36678.207    2744.6678   -39422.874    4316.8671 
  372000    227.50458     608.5748    113312.39   -36684.256    2777.0158   -39461.272    4308.1814 
  373000     226.5733   -469.05089    114172.53    -36655.26    2765.6482   -39420.908    4339.8973 
  374000    229.41794   -303.93202    114098.14   -36614.822    2800.3711   -39415.193     4343.645 
  375000    231.54657    186.47922    113797.37   -36598.222     2826.354   -39424.576    4341.1834 
  376000    231.15009   -109.20493    113844.25   -36555.724    2821.5144   -39377.238    4352.0326 
  377000    232.67073   -275.77345    114609.33   -36534.556     2840.076   -39374.632    4375.5083 
  378000    229.96264   -123.71396     113746.8    -36640.46    2807.0199    -39447.48    4365.3993 
  379000    234.20005   -55.629277    114353.15   -36580.123    2858.7436   -39438.867    4391.5824 
  380000    231.30727    619.57444    113981.37   -36579.079    2823.4331   -39402.512    4387.8797 
  381000    230.77375   -765.94517    114282.45   -36635.019    2816.9206    -39451.94    4403.4178 
  382000    230.16296   -142.58483     113750.9   -36672.265    2809.4651    -39481.73    4395.0473 
  383000     232.6878     86.33749    113766.69   -36647.765    2840.2843   -39488.049    4395.8731 
  384000    231.83708    352.80797    113796.84   -36572.726    2829.9001   -39402.626    4399.6824 
  385000    227.24011   -639.21813    114493.69   -36619.035    2773.7876   -39392.823    4423.0956 
  386000    229.37574     23.94253    113856.94   -36622.332     2799.856   -39422.188    4412.1603 
  387000    232.58959   -334.13707    114092.69   -36604.916    2839.0855   -39444.001    4425.0452 
  388000     233.0736    310.99009    113706.69   -36580.609    2844.9935   -39425.602    4424.4362 
  389000     230.3817    37.267478    114265.71   -36628.709    2812.1352   -39440.844    4447.2172 
  390000    227.63576    308.27998    113885.63   -36603.133     2778.617    -39381.75    4449.3795 
  391000    229.42862   -324.54076    114243.63   -36634.084    2800.5014   -39434.585    4463.2193 
  392000    228.07691   -369.02036    114341.25   -36632.905    2784.0019   -39416.907    4474.1411 
  393000     233.4823    347.07697    113800.48   -36554.702    2849.9824   -39404.684     4471.685 
  394000      236.293    68.098911    114122.47   -36492.044     2884.291   -39376.335    4493.3067 
  395000    227.03496   -689.44716    114257.77   -36599.019    2771.2834   -39370.303    4502.0056 
  396000    228.47072   -1042.6943    114756.58   -36593.163    2788.8089   -39381.971    4523.6739 
  397000    227.05636   -595.42213    114344.96   -36626.999    2771.5447   -39398.544    4519.7148 
  398000    228.06959    492.68478       113700   -36611.119    2783.9125   -39395.032    4520.1739 
  399000    227.06672    370.74822    114324.74   -36605.998    2771.6711    -39377.67    4548.6191 
  400000    226.57313   -409.25263    114319.35   -36679.935    2765.6461   -39445.581    4560.1103 
  401000    229.99034   -100.80158    113918.13   -36600.997    2807.3581   -39408.355    4556.8239 
  402000    233.41532    -295.2794    113912.44   -36649.376    2849.1648   -39498.541    4562.7809 
  403000    227.37245    538.24727     113285.3   -36720.757     2775.403    -39496.16    4547.3783 
  404000     226.6955    -394.7848    113777.39   -36653.469    2767.1398   -39420.609    4570.8626 
  405000    229.21525   -122.68458    114572.66   -36580.205    2797.8969   -39378.102     4602.995 
  406000    226.92639    11.268253    114163.83   -36634.635    2769.9582   -39404.593    4598.3027 
  407000    225.86071    509.62616    113560.39   -36676.683      2756.95   -39433.633    4581.0195 
  408000    231.13735   -623.23584    114391.01    -36551.84    2821.3589   -39373.199    4610.9977 
  409000    227.30473   -12.854334    114126.93    -36613.82    2774.5764   -39388.396     4601.347 
  410000    232.40342    471.90867    113774.05   -36575.908    2836.8131   -39412.721    4602.6879 
  411000    228.99474    243.15498    113938.74   -36591.588    2795.2054   -39386.794     4617.896 
  412000    229.86769    322.23635    113762.11   -36617.375    2805.8609   -39423.236    4619.8695 
  413000     229.7264    287.94532    114306.85   -36614.028    2804.1362   -39418.164    4637.4831 
  414000    227.56725    288.27262    113748.32   -36631.195    2777.7808   -39408.976    4627.0819 
  415000    231.29341    53.315877    113869.97   -36594.847    2823.2638   -39418.111    4638.3144 
  416000    228.65389   -47.238979    114273.35   -36623.983    2791.0447   -39415.028    4658.7321 
  417000    227.27201    501.96622    113946.77   -36622.005     2774.177   -39396.182    4655.2099 
  418000    232.37676    254.34439    113883.36   -36644.596    2836.4876   -39481.084    4663.4618 
  419000    224.85514   -111.51622    114324.96   -36673.995    2744.6757   -39418.671     4686.066 
  420000    227.69534   -37.728717    113956.49   -36678.909    2779.3443   -39458.254    4679.7903 
  421000    231.22271    -11.30974    113868.69   -36599.561    2822.4008   -39421.962     4680.607 
  422000    226.69672   -400.74961    114266.98   -36626.753    2767.1547   -39393.907     4696.952 
  423000    233.16901   -594.28156    114020.98    -36583.89    2846.1582   -39430.048    4699.2379 
  424000    232.74498    -169.3818    114406.04   -36555.663    2840.9823   -39396.646    4718.0385 
  425000     231.4025    869.12199    114202.87   -36514.637    2824.5954   -39339.232    4719.2237 
  426000    233.50887    143.01171     114326.9   -36470.905    2850.3067   -39321.211     4728.792 
  427000    229.69599    550.36963     114103.9   -36590.386     2803.765   -39394.151    4731.9867 
  428000    230.14604   -336.34921     114457.1   -36582.886    2809.2586   -39392.145    4750.4847 
  429000    235.88033    -223.9742    113951.96   -36523.177    2879.2537    -39402.43    4740.3733 
  430000    232.51823   -20.065377     114325.5   -36518.985    2838.2145     -39357.2    4761.0979 
  431000    228.03016   -104.57992    114139.64   -36541.167    2783.4312   -39324.598    4758.7095 
  432000    234.65619    359.30003     113976.9   -36502.939    2864.3113   -39367.251    4762.3553 
  433000    230.88987   -652.86536    114397.16    -36530.21    2818.3381   -39348.548    4783.2086 
  434000    229.61344    156.59102    114530.36   -36530.972    2802.7575   -39333.729    4792.9896 
  435000    232.83418   -90.193365    114062.85   -36505.603    2842.0711   -39347.674    4786.9672 
  436000    229.81681     59.84721    113911.74   -36573.524    2805.2399   -39378.764    4787.2222 
  437000    229.43964     -334.607    113648.81    -36668.49     2800.636   -39469.126    4784.2441 
  438000    229.29414   -238.71572    113736.03   -36653.531    2798.8599   -39452.391    4791.3612 
  439000    232.57234   -89.837308    113840.24   -36617.845     2838.875    -39456.72    4807.7337 
  440000    229.15817   -28.860092     113939.9    -36637.73    2797.2002    -39434.93    4826.8928 
  441000    227.59651   -246.57876    114168.65   -36643.908    2778.1379   -39422.046    4842.9325 
  442000    231.95722   -206.89813    113623.64   -36645.528    2831.3666   -39476.894    4833.3551 
  443000    227.73685   -33.769176    114137.79   -36577.917    2779.8511   -39357.768    4855.2783 
  444000    231.91673    277.91377    114040.96   -36562.408    2830.8723   -39393.281    4864.4014 
  445000    231.83148   -443.65007    114432.28   -36496.515    2829.8318   -39326.347    4882.9324 
  446000    235.35996   -190.38438    114345.34   -36499.215    2872.9018   -39372.117    4895.6407 
  447000    232.25913    56.965392    113893.33   -36584.877    2835.0518   -39419.929    4897.0257 
  448000    231.99154    -61.76623    113807.26    -36560.63    2831.7855   -39392.416    4905.8373 
  449000    225.59316   -53.537965    114108.05   -36617.428    2753.6842   -39371.112    4922.7709 
  450000    233.19589   -354.48421    114049.68   -36601.376    2846.4864   -39447.863    4930.5726 
  451000    228.96968    135.54647    114478.01   -36607.819    2794.8994   -39402.718    4947.4799 
  452000    228.57634   -424.89881    114507.77   -36583.625    2790.0981   -39373.724    4946.2851 
  453000    224.91694    384.52038    114483.87    -36595.22      2745.43    -39340.65    4953.2669 
  454000    227.71238   -365.31793    114484.19   -36620.532    2779.5523   -39400.084     4962.316 
  455000    228.18623   -329.16886    114842.21   -36591.487    2785.3363   -39376.823    4978.0185 
  456000    233.81694    -50.94419     113879.6   -36537.086    2854.0671   -39391.153    4958.8389 
  457000    232.83613    521.93557    113622.45   -36539.185    2842.0949    -39381.28    4965.0051 
  458000    231.04297   -328.54246    114499.51   -36543.849    2820.2069   -39364.056    4995.5393 
  459000    230.49465    -366.7117    114775.45     -36519.3    2813.5138   -39332.814    5007.5498 
  460000    237.37318   -331.81373    113742.94   -36553.258    2897.4761   -39450.734    4985.5265 
  461000    228.41828    260.59071    113989.38   -36562.144    2788.1688   -39350.313    5001.6328 
  462000    229.38287   -346.40434     114721.5   -36616.402     2799.943   -39416.345    5031.9443 
  463000    234.59551    302.66442    114269.59   -36524.511    2863.5707   -39388.082    5028.4759 
  464000    232.51828   -69.259144    113778.62   -36600.513    2838.2151   -39438.728    5016.0708 
  465000    233.14074    105.55882    114481.98   -36507.525    2845.8131   -39353.338    5044.4433 
  466000    229.43177   -192.23338    113896.12   -36597.891    2800.5398    -39398.43     5034.319 
  467000    227.15228    335.73496    113482.51   -36652.707    2772.7155   -39425.423    5028.6481 
  468000    227.85114    249.44678    113876.96   -36629.058     2781.246   -39410.304    5045.2674 
  469000    226.35334    421.83054    114576.29   -36649.916    2762.9633    -39412.88    5067.5376 
  470000    227.99699   -102.59818    114134.16    -36623.47    2783.0264   -39406.497    5065.2708 
  471000    228.12139   -208.15071    113992.46   -36595.209    2784.5448   -39379.754    5073.4391 
  472000    227.41221   -254.10524    114167.18    -36584.79    2775.8883   -39360.679    5089.5338 
  473000    230.03801   -357.85812    114118.37   -36616.835      2807.94   -39424.775    5098.5884 
  474000    230.46026    106.81103    113957.95   -36638.893    2813.0941   -39451.987    5096.4392 
  475000    227.96644    138.70292    113928.38   -36677.679    2782.6535   -39460.333    5101.8647 
  476000    222.43482   -390.34889    114515.84   -36667.168    2715.1323     -39382.3     5129.072 
  477000      228.023   -71.203761    114287.23   -36667.837    2783.3438    -39451.18    5135.2818 
  478000    227.70962     404.0295    113778.64   -36670.808    2779.5186   -39450.327    5125.6846 
  479000    228.02563    332.77198    113855.59   -36642.255     2783.376   -39425.631    5132.5742 
  480000    230.27546   -171.79086    114052.09   -36649.515    2810.8384   -39460.353    5141.8985 
  481000    230.16577    391.56371    113930.75   -36610.446    2809.4995   -39419.946    5149.1591 
  482000    226.07253    386.72791    114116.55    -36665.69    2759.5356   -39425.226    5169.9211 
  483000    231.08996    414.23668    113471.41   -36577.053    2820.7805   -39397.833    5156.3984 
  484000    229.75417    88.599261    113794.35   -36605.145    2804.4752    -39409.62    5172.4461 
  485000    229.72026    349.23222    113815.52   -36634.138    2804.0613   -39438.199    5181.0252 
  486000    225.22656    1.0758626    114316.43   -36648.076    2749.2094   -39397.285    5205.7491 
  487000    226.41827    286.14859    114152.74   -36630.977    2763.7559   -39394.733    5209.7224 
  488000    229.01786    221.87893    114420.08   -36543.246    2795.4875   -39338.733    5221.4584 
  489000    230.41406   -477.51131    114549.58   -36533.415    2812.5302   -39345.945     5232.986 
  490000    230.65142    773.27629    113973.47   -36583.648    2815.4275   -39399.075    5225.4536 
  491000    230.71721   -412.78976    114068.71   -36625.228    2816.2306   -39441.459    5238.3498 
  492000    230.11111   -529.02335    113729.58   -36675.577    2808.8323   -39484.409    5238.1312 
  493000    230.77286    362.55107    113715.73   -36692.156    2816.9098   -39509.065    5252.7827 
  494000    228.31813   -321.64845    114409.96   -36660.148    2786.9463   -39447.095    5275.8801 
  495000    225.12387   -325.10754    113944.96   -36630.864    2747.9559    -39378.82    5271.4146 
  496000    230.59859    419.90597    113464.22   -36720.261    2814.7826   -39535.044    5264.5979 
  497000     226.7255    363.27798    113229.31   -36754.936     2767.506   -39522.442    5269.1347 
  498000    230.31904   -207.45474     114177.8   -36660.605    2811.3703   -39471.975    5303.5673 
  499000    221.26744    44.129858    114242.82   -36658.969    2700.8826   -39359.851    5314.8136 
  500000    229.45667    443.78516    114022.66   -36667.573    2800.8438   -39468.417    5312.2728 
  501000    232.80578   -381.42588    114247.94   -36539.251    2841.7244   -39380.975    5324.4581 
  502000    233.27505   -62.607653       113743    -36555.14    2847.4525   -39402.593      5318.15 
  503000     229.8597     19.26258    113935.69   -36565.614    2805.7634   -39371.378    5336.8586 
  504000    231.16323    17.844198    113785.48   -36546.106    2821.6748    -39367.78    5343.8326 
  505000    234.14127    247.80619    114034.09   -36582.746     2858.026   -39440.772    5360.7826 
  506000    228.34854    12.142152    113705.99   -36647.809    2787.3175   -39435.126    5360.0643 
  507000    228.25708    278.39945    113983.77    -36638.35    2786.2012   -39424.551    5369.0502 
  508000    228.10127   -299.14633    113928.55   -36734.475    2784.2992   -39518.774    5374.3859 
  509000    228.88073    211.39942    113688.26   -36682.348    2793.8137   -39476.162    5372.8898 
  510000    230.59103   -95.920213     114244.2   -36609.775    2814.6903   -39424.466    5396.7385 
  511000    232.06698    26.853081    113972.84   -36647.748    2832.7064   -39480.455    5391.3016 
  512000    230.17187   -297.58443    114121.22   -36592.742    2809.5739   -39402.316    5405.6684 
  513000    229.42008   -107.84649    114523.09   -36566.613    2800.3972    -39367.01    5423.6601 
  514000    233.87885    23.869539    114093.08   -36553.783    2854.8229   -39408.606    5422.2438 
  515000    234.39868    -743.7047    113926.85   -36599.201    2861.1681   -39460.369    5429.2367 
  516000    233.38093    49.099119    114088.72   -36562.408    2848.7449   -39411.153    5436.1211 
  517000    227.11278    152.10948    113941.87   -36630.776    2772.2333   -39403.009    5437.9669 
  518000    227.55156   -250.99599    114196.58   -36668.012    2777.5893   -39445.602    5452.6083 
  519000    228.38509   -186.81381    114257.03   -36617.182    2787.7637   -39404.946    5457.3732 
  520000    231.04792    112.35406    114311.51   -36578.255    2820.2673   -39398.522    5471.7034 
  521000    232.92269    399.51906    113835.41   -36593.568    2843.1515   -39436.719    5463.6637 
  522000    229.93956     443.1427    113984.19   -36641.731    2806.7382   -39448.469    5479.6281 
  523000    227.27018    632.21843    113729.93   -36675.027    2774.1546   -39449.182    5475.8683 
  524000    227.15875    428.74467    113651.74   -36725.249    2772.7944   -39498.044    5482.4247 
  525000    226.22675   -478.82488    114013.12   -36661.112    2761.4181    -39422.53    5497.3053 
  526000    228.52302    874.21752    113963.99   -36574.507    2789.4474   -39363.954    5508.0323 
  527000    230.45536    508.13965    113795.33   -36573.401    2813.0342   -39386.435    5502.0267 
  528000    232.70079    63.593384    113762.71   -36549.988    2840.4429   -39390.431    5513.9182 
  529000    231.67884   -11.988061    113927.24   -36624.202    2827.9685    -39452.17    5524.1684 
  530000    230.46183    31.030884    114426.31   -36536.217    2813.1132    -39349.33    5543.9579 
  531000    232.74281   -460.18174    114049.29   -36495.863    2840.9559   -39336.819    5539.4877 
  532000    231.94799    320.25802     114276.5   -36476.283    2831.2539   -39307.537    5564.9367 
  533000    238.34738   -219.27436    114491.51   -36487.156    2909.3675   -39396.524    5583.4901 
  534000     237.7255     279.0854    114232.16   -36427.881    2901.7766   -39329.658    5578.1109 
  535000    234.30324   -29.562865    113713.88    -36524.37    2860.0031   -39384.373    5568.2756 
  536000    226.81217   -282.06756    114675.78   -36543.397     2768.564   -39311.961     5603.639 
  537000    234.09533   -6.6872354     114324.4   -36536.881    2857.4653   -39394.346    5605.1889 
  538000    233.69861   -385.81678    115066.58   -36488.374    2852.6227   -39340.997    5629.9704 
  539000    231.65893    143.89117    113706.18   -36505.427    2827.7255   -39333.152    5590.6667 
  540000    230.86528   -22.752652    114164.41   -36628.767    2818.0379   -39446.805    5612.2181 
  541000    229.28103   -417.43089    114166.33   -36560.113    2798.6999   -39358.813    5615.1699 
  542000    234.97961   -193.51142     114175.3   -36529.109    2868.2591   -39397.368    5620.0366 
  543000    233.91424    69.768477    114411.87   -36569.896    2855.2548   -39425.151    5637.7562 
  544000    229.06562   -120.86342    114021.54   -36625.514    2796.0705   -39421.584    5631.5608 
  545000    229.25341   -30.245505    113976.19     -36605.4    2798.3628   -39403.762    5631.7386 
  546000    229.03798    510.84994    114088.58   -36608.138    2795.7331   -39403.871    5644.3508 
  547000    231.87357    370.33105    113979.42   -36588.334    2830.3456   -39418.679    5648.9259 
  548000    229.73823   -215.89458    114629.15   -36579.986    2804.2806   -39384.266    5682.5239 
  549000    237.89054    37.212424    113665.55   -36498.458    2903.7912   -39402.249     5662.332 
  550000    230.07448   -416.47285    114865.96   -36530.827    2808.3851   -39339.212    5704.7268 
  551000    230.42452    -671.0629    114162.98   -36564.547    2812.6579   -39377.205    5690.0743 
  552000    232.72524     338.0984    114460.87   -36545.241    2840.7414   -39385.983    5707.9875 
  553000    229.57748    255.93709    114011.32   -36618.658    2802.3185   -39420.976      5706.31 
  554000     232.2674    507.50624     114091.2   -36593.681    2835.1527   -39428.834    5719.5319 
  555000    229.50255   -354.05851    114267.01   -36533.627    2801.4038    -39335.03    5732.8389 
  556000    235.13713    490.77699    114642.48   -36431.552    2870.1818   -39301.734    5752.9179 
  557000    232.27737   -25.331952     114166.7    -36464.43    2835.2745   -39299.705    5748.0284 
  558000    230.74178   -755.63718    114924.43   -36490.542    2816.5304   -39307.073    5785.0282 
  559000    231.05182    502.08412    114183.33    -36530.17    2820.3149   -39350.485    5763.1743 
  560000    228.82941    31.558385    113655.45   -36595.197    2793.1873   -39388.384    5753.4859 
  561000    226.25777   -402.97849    114325.98   -36643.877    2761.7968   -39405.673    5782.1589 
  562000    228.78915   -200.60911    113763.69    -36667.98    2792.6959   -39460.676    5770.1748 
  563000    230.14076    102.66049     113552.2   -36654.226    2809.1941    -39463.42    5760.2504 
  564000    231.43922    279.05808     114124.5   -36628.231    2825.0437   -39453.275    5789.7927 
  565000    224.87112    255.36987    114475.53   -36594.526    2744.8707   -39339.397    5807.4953 
  566000    231.40926   -423.37087    114134.03   -36544.001     2824.678   -39368.679    5801.7695 
  567000    233.95953    401.38218    114343.21    -36553.44    2855.8076   -39409.247    5817.3069 
  568000    231.75974   -312.23983     114433.1   -36572.291     2828.956   -39401.247    5830.3755 
  569000    231.90371    79.195242     113971.4   -36535.543    2830.7134   -39366.256    5822.3982 
  570000    230.95401    62.428891    114204.02   -36580.568     2819.121   -39399.689    5840.8329 
  571000    232.77415    -443.0745    114648.02   -36518.952    2841.3384    -39360.29    5864.8361 
  572000     233.0864    438.75288    114089.92   -36526.256    2845.1499   -39371.406    5853.7104 
  573000    231.14138    389.18221    114528.04   -36544.894    2821.4081   -39366.302    5879.0253 
  574000    233.29687    379.18644    113471.92    -36641.82    2847.7189   -39489.539    5851.0101 
  575000     228.1712   -243.43412    113919.81   -36630.263    2785.1529   -39415.416    5869.5995 
  576000    231.62195    -203.1589    113989.31   -36632.723    2827.2741   -39459.997    5882.7344 
  577000    229.32359  -0.23399412    113917.54   -36641.929    2799.2195   -39441.148    5893.9099 
  578000     233.9919    -29.30781    114241.46   -36538.882    2856.2028   -39395.085      5918.12 
  579000    233.41243   -762.91401    114407.71   -36540.191    2849.1295   -39389.321    5933.2399 
  580000    237.49369    119.09834    114715.46   -36436.118    2898.9471   -39335.065      5955.03 
  581000     227.7155    157.92828    114323.89   -36510.271    2779.5904   -39289.861     5948.109 
  582000    233.47588   -317.41324    114192.25   -36541.985     2849.904   -39391.889    5954.5691 
  583000    228.31769    549.29073    113696.84   -36642.771     2786.941   -39429.712    5939.8124 
  584000    231.31979     84.07083    113944.95   -36577.937    2823.5858   -39401.523    5959.9364 
  585000    230.94872    416.64459    114150.83   -36556.007    2819.0564   -39375.063    5973.4687 
  586000     228.3528    635.10521    113780.55    -36548.37    2787.3696   -39335.739    5973.9563 
  587000    230.10807    173.43371    113930.17   -36592.017    2808.7951   -39400.812    5994.3964 
  588000    229.14488     164.5049    113796.99   -36623.437     2797.038   -39420.475    5997.3326 
  589000    231.69719   -273.34138    114145.35   -36599.736    2828.1925   -39427.928    6019.8403 
  590000    233.36356    272.49919    113556.64   -36598.084     2848.533   -39446.617    6006.0971 
  591000    231.15446  -0.97054374    113847.88   -36603.115    2821.5677   -39424.683    6024.1263 
  592000    230.38381   -111.95008    113864.05   -36587.402    2812.1609   -39399.563     6034.253 
  593000    226.70465    530.72793    113752.03   -36624.556    2767.2515   -39391.807    6037.5083 
  594000    226.98438    25.959328    113986.75   -36661.458     2770.666   -39432.124    6062.0746 
  595000     231.3921   -320.59196    114361.15   -36586.867    2824.4685   -39411.335    6090.8603 
  596000    229.51612   -117.75007    114005.38   -36560.228    2801.5695   -39361.797    6087.7325 
  597000    232.10289   -192.93223    114084.57   -36561.382    2833.1448   -39394.526    6091.9412 
  598000    231.05197    130.77735    114184.37   -36570.131    2820.3167   -39390.448    6101.5402 
  599000    234.87401    168.67909    113798.61   -36580.187    2866.9701   -39447.157    6094.1986 
  600000    233.43374    134.41989    113625.14   -36620.652    2849.3896   -39470.041    6097.5547 
  601000    226.53326    427.62802       113964   -36635.253    2765.1595   -39400.413    6121.6392 
  602000    222.97722     -132.281    113899.74   -36631.895     2721.753   -39353.648    6128.2128 
  603000    233.40675    324.69036    113894.01   -36514.791    2849.0602   -39363.851    6140.0474 
  604000    232.01398    436.89381    113921.49   -36557.832    2832.0594   -39389.892     6145.587 
  605000    232.40233   -53.713764    113891.84   -36588.066    2836.7998   -39424.865    6153.1114 
  606000    227.50528    142.34653    113520.16   -36675.068    2777.0244   -39452.092    6143.0696 
  607000    230.55561    335.80393    113805.62   -36644.601    2814.2579   -39458.859    6161.8912 
  608000    225.83508   -150.61413    114383.89   -36699.381    2756.6372   -39456.018    6187.7646 
  609000     231.9082    316.13658    113368.95   -36702.711    2830.7682   -39533.479     6166.052 
  610000    229.37709   -384.24975    113961.11   -36684.005    2799.8724   -39483.877     6195.923 
  611000    228.96548    432.96302    114045.82   -36607.094    2794.8482   -39401.942    6209.3408 
  612000    231.82726   -134.45467    113632.06   -36571.789    2829.7802   -39401.569    6198.9996 
  613000    229.16811    60.998115    114285.41   -36578.431    2797.3216   -39375.752    6222.0457 
  614000    232.56447   -224.28712    114465.39   -36465.696    2838.7789   -39304.475    6233.5373 
  615000    232.89675     67.66453    114047.72   -36486.225    2842.8349   -39329.059    6233.3016 
  616000    235.46054   -129.82885    114556.15    -36438.79    2874.1295    -39312.92    6257.1468 
  617000    230.92694    129.69968    114345.58   -36489.013    2818.7906   -39307.804    6257.6478 
  618000    232.66437   -591.09813    114747.34   -36498.432    2839.9983    -39338.43     6280.451 
  619000    228.95479   -168.18903    114481.64   -36546.176    2794.7177   -39340.894    6283.6191 
  620000    233.91751   -75.354174    114102.49   -36601.713    2855.2947   -39457.007    6275.7396 
  621000    232.08192    84.066775    114165.29   -36588.804    2832.8887   -39421.693    6283.9294 
  622000    233.49048    361.17367    113893.11   -36595.122    2850.0822   -39445.204    6283.5198 
  623000    230.46267   -528.29215     113798.9   -36642.463    2813.1234   -39455.587    6288.0177 
  624000    226.19719   -379.83037     114171.3   -36653.374    2761.0573   -39414.431    6309.0741 
  625000    228.25594    761.18592     114126.7   -36647.852    2786.1872   -39434.039    6311.8612 
  626000    228.50263    220.06427    114095.13   -36648.816    2789.1985   -39438.015    6319.4058 
  627000    227.60532    148.34077    114163.31   -36710.193    2778.2455   -39488.439    6328.8725 
  628000    223.98875   -536.39167    114031.81   -36748.093    2734.1001   -39482.193     6333.899 
  629000    227.39863    254.99197    113734.67   -36744.072    2775.7225   -39519.795    6339.2585 
  630000    221.72686    428.96652    113651.29   -36750.324    2706.4906   -39456.815    6337.7236 
  631000    231.41825    86.952919    114219.63   -36681.459    2824.7877   -39506.247    6362.5187 
  632000    226.93728   -182.25769    113802.16   -36696.769    2770.0911    -39466.86    6349.6434 
  633000    226.55055   -130.06451    113823.08   -36707.279    2765.3705    -39472.65    6356.3006 
  634000    227.22463   -13.406737    114382.66   -36627.054    2773.5986   -39400.652    6374.1218 
  635000    229.85872    378.80443    113665.11   -36679.183    2805.7514   -39484.934    6352.6264 
  636000    234.13952    712.69048    113761.94   -36609.835    2858.0047   -39467.839    6361.6786 
  637000    230.85676    11.055401    114075.15   -36545.362    2817.9339   -39363.296    6384.7238 
  638000    229.08062    316.54768    114112.42   -36569.169    2796.2536   -39365.423    6393.0985 
  639000    225.87065    -443.3691    114469.99   -36638.722    2757.0714   -39395.794    6415.8863 
  640000    231.48762    190.81438    114340.52   -36575.044    2825.6345   -39400.678    6426.1761 
  641000    228.63104   -411.41433    114121.97   -36572.193    2790.7659   -39362.959    6420.5376 
  642000    228.25355    215.42567    113705.03   -36625.829    2786.1581   -39411.987    6406.0645 
  643000    232.06095    130.25497    113728.92   -36612.958    2832.6327   -39445.591    6417.9173 
  644000    225.57968   -37.148269    113991.32   -36665.562    2753.5196   -39419.082    6429.3433 
  645000     230.0007    375.85302    113634.03   -36632.633    2807.4845   -39440.117    6422.1155 
  646000    227.60293    -63.14825    113779.65   -36641.591    2778.2163   -39419.808    6434.3299 
  647000    225.17662   -62.945486    114378.82   -36623.244    2748.5997   -39371.844    6466.1669 
  648000    226.92866    344.55922    113856.08   -36572.039    2769.9858   -39342.025    6455.1396 
  649000    231.11964   -548.85059    114196.79   -36563.023    2821.1428   -39384.166    6476.0193 
  650000     231.2457    294.21036       113825   -36714.719    2822.6815     -39537.4     6469.409 
  651000    229.18887    32.508505     114205.6   -36658.746     2797.575   -39456.321    6491.6308 
  652000    224.75696     74.56145    114281.43   -36711.269    2743.4772   -39454.747    6503.8287 
  653000    229.41343   -219.33727    114507.71   -36615.072    2800.3161   -39415.388    6516.4508 
  654000    233.91426    79.112806    113990.12   -36541.961    2855.2551   -39397.216    6498.0551 
  655000     230.2291    240.34503    114213.06   -36570.289    2810.2724   -39380.561    6513.0207 
  656000    232.16677    6.9110473    114284.84   -36571.873    2833.9244   -39405.798    6522.0533 
  657000    231.96822    -189.8914    113888.74   -36603.484    2831.5009   -39434.985    6514.8051 
  658000    230.84335    229.75176    113929.83   -36655.316    2817.7702   -39473.086    6529.8055 
  659000    229.09277   -380.81507    113819.97   -36641.411    2796.4019   -39437.813    6530.7013 
  660000    231.63133    50.070774    114145.92   -36601.653    2827.3886   -39429.042    6557.4904 
  661000    239.12297    147.64712    114071.74   -36528.265    2918.8347     -39447.1    6560.7087 
  662000    229.61761   -219.22775    114575.41   -36535.796    2802.8083   -39338.605    6597.1676 
  663000    234.34115   -27.714147    114405.81   -36505.794    2860.4658    -39366.26    6601.1646 
  664000    227.72087    204.57383     114055.6    -36603.61     2779.656   -39383.266    6594.1672 
  665000    229.46534    155.08253    113914.03   -36594.059    2800.9497   -39395.009    6586.3688 
  666000     232.1565    355.57526    114226.01   -36521.993    2833.7991   -39355.792    6605.7457 
  667000     232.5018   -225.89159    114303.03   -36594.405    2838.0139   -39432.419    6619.6161 
  668000    232.21163   -84.235059    114630.88   -36556.085     2834.472   -39390.557    6644.1389 
  669000    233.24877    148.90632    114138.09   -36569.126    2847.1318   -39416.258    6634.0844 
  670000    232.40297   -61.609038    113657.68   -36636.916    2836.8077   -39473.723     6621.025 
  671000    230.36252   -71.596363    113593.08   -36630.175     2811.901   -39442.076    6625.7501 
  672000    233.59133     560.8291    113471.99   -36638.572    2851.3132   -39489.885    6629.5272 
  673000    230.86369   -330.01707    113656.68   -36629.115    2818.0185   -39447.133    6647.1825 
  674000    228.48922   -76.373979    114171.45   -36623.578    2789.0348   -39412.613    6677.3609 
  675000    227.53323   -288.95295    114034.39   -36689.601    2777.3655   -39466.966    6681.3539 
  676000    228.86535   -200.34624    113769.02   -36685.805     2793.626    -39479.43    6678.4011 
  677000    230.50089   -156.79891    113673.49    -36672.88      2813.59    -39486.47    6681.8141 
  678000     224.5088   0.21897239    114155.27   -36705.804    2740.4481   -39446.252    6706.4927 
  679000     223.2549    6.6544764     113853.6   -36686.407    2725.1424   -39411.549    6701.7571 
  680000    223.49327   -352.57349    113425.96   -36670.992    2728.0521   -39399.044    6692.7933 
  681000    232.30542    376.94884    113799.34   -36603.557    2835.6168   -39439.174    6716.5708 
  682000    232.23266   -211.78219    114231.87   -36554.151    2834.7288    -39388.88    6741.8324 
  683000    228.44618   -186.36016    114592.95   -36529.825    2788.5094   -39318.334    6762.9881 
  684000     232.8362    19.475091    114023.39   -36544.996    2842.0958   -39387.092    6742.9922 
  685000    227.88994   -269.65926    113905.27   -36573.299    2781.7197   -39355.019    6738.2544 
  686000    229.72415    22.243564    114203.37   -36565.617    2804.1087   -39369.725    6761.0296 
  687000    231.50462    347.34122    114017.02   -36591.687    2825.8419   -39417.529     6762.697 
  688000    229.29872   -41.457392    114600.58   -36583.357    2798.9158   -39382.273    6796.3792 
  689000    229.90573   -53.741293       114051    -36596.81    2806.3253   -39403.136    6777.5072 
  690000    230.99499   -272.09291    114172.13   -36605.772    2819.6212   -39425.393    6790.8218 
  691000    231.25151    28.672221    114355.11   -36522.661    2822.7524   -39345.413    6803.9735 
  692000    230.16785   -102.51887    113859.33   -36590.816    2809.5248   -39400.341    6797.8154 
  693000    231.04039    -479.2601    113980.87   -36629.165    2820.1754    -39449.34    6811.7228 
  694000    228.42202   -488.58657    114308.29   -36659.587    2788.2145   -39447.801    6829.1526 
  695000    226.62754    246.91495    113867.04    -36694.05    2766.3103   -39460.361    6823.8665 
  696000    230.23937    594.30366    113615.57   -36623.585    2810.3978   -39433.983    6820.7496 
  697000    227.71126   -266.06046    113865.27   -36617.736    2779.5386   -39397.275    6844.0443 
  698000    231.30122    16.372028    113884.13   -36614.393    2823.3592   -39437.753    6849.0746 
  699000    230.88148   -597.93735    113669.04   -36683.037    2818.2356   -39501.273    6848.0996 
  700000    231.15127    11.934934    113933.43   -36619.678    2821.5288   -39441.207    6861.0638 
  701000    230.26148    17.278423    113661.31   -36625.061    2810.6677   -39435.729    6851.5836 
  702000    232.08259    225.17571    113232.33   -36680.922     2832.897   -39513.818    6846.6411 
  703000    230.40857    589.52549    113948.34   -36636.065    2812.4631   -39448.528    6879.9496 
  704000    231.42213    109.08786    113504.96   -36595.606    2824.8351   -39420.441    6874.0941 
  705000    227.37935   -249.74233    113800.02   -36644.483    2775.4872    -39419.97    6896.6222 
  706000    228.42872   -401.23098    113556.85    -36744.04    2788.2963   -39532.336    6885.8935 
  707000    232.15953    147.57167    113729.66   -36728.397    2833.8361   -39562.233    6899.1402 
  708000    224.60238    380.23388    114032.08   -36720.162    2741.5904   -39461.752    6922.6614 
  709000    227.76048   -101.51771    113581.87   -36649.255    2780.1394   -39429.394    6913.5766 
  710000    228.31147   -773.30016    114288.67   -36661.875    2786.8651   -39448.741    6942.9251 
  711000    228.34334    71.783566    113745.76   -36710.382     2787.254   -39497.636    6925.7116 
  712000    226.84264   -450.57979    113927.47   -36671.696     2768.936   -39440.632    6938.0785 
  713000    232.33917    430.15342    113625.86   -36677.146    2836.0288   -39513.175    6934.6352 
  714000    226.55597   -315.46264    113846.92   -36668.055    2765.4366   -39433.492    6954.5605 
  715000    235.03273   -64.841804    114044.25   -36665.241    2868.9075   -39534.149     6972.394 
  716000    227.56237    28.247566    114205.53   -36609.661    2777.7212   -39387.382    6987.5171 
  717000    228.11079   -598.71462    114460.24   -36594.694    2784.4155    -39379.11    7004.2025 
  718000    229.34925   -34.259831    113789.78   -36616.544    2799.5326   -39416.076    6992.1562 
  719000    228.49398    40.968624    114037.96   -36595.674    2789.0928   -39384.767    7005.2728 
  720000     230.4548    359.56498     114209.2   -36551.993    2813.0274    -39365.02    7022.3645 
  721000    232.68653    118.80942    114495.48   -36541.507    2840.2689   -39381.776    7037.0846 
  722000    225.24516   -144.33703    114312.78   -36611.865    2749.4364   -39361.302    7035.7404 
  723000     229.2195   -99.136476    113913.06   -36631.254    2797.9489   -39429.203    7032.4285 
  724000    227.23671    611.20301    114531.53   -36594.679    2773.7461   -39368.425    7067.3934 
  725000    229.73383    172.14977    114043.73   -36579.518     2804.227   -39383.744    7055.4032 
  726000    231.71429    12.089226     114443.8   -36561.938    2828.4013   -39390.339    7073.4283 
  727000    235.26997    522.79021    113933.53   -36515.348    2871.8034   -39387.151    7066.0579 
  728000    230.68838    179.98908    114906.31   -36532.004    2815.8786   -39347.882    7112.2541 
  729000    230.30271    554.61746    114473.16   -36562.654     2811.171   -39373.825     7102.326 
  730000     234.5569    86.457286    113906.78   -36562.064    2863.0994   -39425.164    7088.7121 
  731000    233.20544   -282.81649    113529.37    -36614.19    2846.6029   -39460.793    7075.8046 
  732000    231.69507   -82.047455    114438.21   -36619.635    2828.1667   -39447.801    7120.1972 
  733000    234.16004   -101.65434    114071.71   -36576.254    2858.2551   -39434.509    7115.8607 
  734000    229.06963    126.48067    114373.27   -36551.719    2796.1195   -39347.839    7142.5462 
  735000    235.14248   -711.70749    113358.84   -36661.474    2870.2472   -39531.721    7114.4719 
  736000    230.07041    209.90898     113640.1    -36618.15    2808.3354   -39426.486    7133.8455 
  737000    228.64887    506.20895    113714.51   -36608.962    2790.9835   -39399.946    7140.0775 
  738000    230.17829    167.57729    114240.68   -36566.118    2809.6522    -39375.77    7177.5405 
  739000     228.8198   -316.48889    114248.29   -36571.072    2793.0699   -39364.142    7192.2156 
  740000    230.61289   -139.12467    114107.72   -36578.217    2814.9571   -39393.174    7204.9667 
  741000    231.02731   -141.64581    114255.64   -36558.582    2820.0157   -39378.597    7216.7075 
  742000    235.97398    31.637267    113857.18   -36567.111    2880.3969   -39447.508    7207.3912 
  743000    230.02709   0.19635616    113886.96   -36630.543    2807.8067    -39438.35    7217.7771 
  744000    236.87187   -37.497099    113746.74   -36659.985    2891.3569   -39551.342    7218.8095 
  745000      228.611    103.94637    113910.88   -36613.793    2790.5212   -39404.314    7240.3856 
  746000    226.90928    152.62846    114169.32   -36654.728    2769.7493   -39424.477    7258.3085 
  747000    230.42694    456.94603    113571.38   -36608.107    2812.6873   -39420.795    7235.9418 
  748000    229.20717   -321.99294    114585.75   -36555.488    2797.7983   -39353.287     7282.634 
  749000    235.48819    463.04419    114214.14   -36466.025    2874.4671   -39340.492    7275.2938 
  750000    235.45429   -168.33611    115072.07   -36442.072    2874.0533   -39316.125    7309.8452 
  751000    234.89199   -128.10689    114039.03   -36534.067    2867.1896   -39401.257    7277.6427 
  752000    229.36356    123.60658    113919.42   -36569.125    2799.7072   -39368.832    7281.1371 
  753000    233.04654    157.40407       114198   -36558.354    2844.6633   -39403.018    7300.3109 
  754000    230.86253    -408.2162    114147.68   -36572.254    2818.0043   -39390.258     7310.461 
  755000     226.5366    39.596468    114371.05   -36600.641    2765.2003   -39365.841    7328.8867 
  756000    220.78188   -170.47616    114411.59   -36645.863    2694.9557   -39340.819    7336.9929 
  757000    226.47254   -416.45586    113918.99   -36641.147    2764.4182   -39405.566     7315.451 
  758000    228.26919   -116.94962     113931.5   -36664.278     2786.349   -39450.627    7322.2208 
  759000    230.16992   -358.13452    113443.43   -36665.778      2809.55   -39475.328    7306.3627 
  760000    230.17057     65.96389    114159.37   -36618.003     2809.558   -39427.561    7348.2224 
  761000    235.60531   -298.14492    114069.39   -36483.694    2875.8967   -39359.591    7356.7826 
  762000    231.13877    210.58566    114421.47   -36502.852    2821.3762   -39324.228     7376.416 
  763000    233.46435     469.2513     114706.2   -36439.146    2849.7633   -39288.909    7396.3089 
  764000    236.95526     582.9151    114153.19   -36431.339    2892.3747   -39323.714    7374.6978 
  765000    235.12449   -151.45983    114269.79    -36461.62    2870.0276   -39331.647    7392.5946 
  766000    235.65142    211.93395    114802.18   -36446.885    2876.4595   -39323.344     7416.883 
  767000    233.99906     6.759642    113915.09   -36528.907    2856.2901   -39385.197    7385.5394 
  768000    229.86847   -236.54573    114190.83   -36554.232    2805.8705   -39360.103    7402.0935 
  769000     226.2537    335.50968     113974.6   -36590.962     2761.747   -39352.709    7398.7807 
  770000    227.33028    118.04513    114017.32   -36588.374    2774.8882   -39363.262    7410.2451 
  771000    234.68385    -336.2842     114538.7   -36562.809     2864.649   -39427.458     7439.096 
  772000     230.1744   -29.195532    114292.65    -36591.16    2809.6047   -39400.765    7432.4171 
  773000     237.8351    74.672365    114247.27   -36531.727    2903.1144   -39434.842      7434.85 
  774000    234.38286    236.55372    113767.84   -36523.748     2860.975   -39384.723    7427.2106 
  775000    235.57002    94.743266    114291.48   -36480.906     2875.466   -39356.372    7456.1229 
[...]
 1815000    233.44051   -7.5825588    113989.61   -36521.749    2849.4722   -39371.221    15665.925 
 1816000    237.16794   -10.238035    114000.65   -36541.028    2894.9708   -39435.999    15671.974 
 1817000    235.26474    -81.74859    114074.43   -36586.058    2871.7395   -39457.797     15676.36 
 1818000    235.25079   -258.12582    114667.05   -36505.013    2871.5693   -39376.583    15737.441 
 1819000     232.7238    1165.4546    113612.78   -36600.056    2840.7238    -39440.78    15643.157 
 1820000    233.60234    184.41297    114400.68   -36535.941    2851.4476   -39387.389    15717.866 
 1821000    229.21602   -346.52305    114740.02   -36557.991    2797.9063   -39355.897    15760.847 
 1822000    231.59007    -178.8901    114440.15   -36532.318    2826.8851   -39359.204     15738.31 
 1823000    232.28616   -426.71823    114929.42   -36528.472    2835.3817   -39363.854    15779.962 
 1824000    229.66317   -832.63278    114078.12   -36538.493    2803.3644   -39341.858    15707.246 
 1825000    229.88658   -33.794695    113968.05   -36605.807    2806.0915   -39411.899    15694.411 
 1826000    231.64979   -205.07996    113936.91    -36657.74     2827.614   -39485.354    15688.724 
 1827000    226.45225    49.766503    113680.51   -36701.271    2764.1707   -39465.442    15674.327 
 1828000     227.0892    534.81201    113535.58   -36713.264    2771.9455   -39485.209    15663.684 
 1829000    230.79731    39.921135    114105.97    -36592.82    2817.2083   -39410.028    15718.879 
 1830000    227.40382     78.40544    114295.14   -36644.231    2775.7858   -39420.017    15753.461 
 1831000    226.73478    339.01164    114036.14   -36634.142    2767.6193   -39401.762    15735.398 
 1832000    232.98817    176.13052    113568.75   -36643.876    2843.9508   -39487.827    15704.495 
 1833000    229.11188   -359.19577    114261.61   -36631.115    2796.6352    -39427.75    15769.545 
 1834000    231.01277    88.283805    113782.96   -36609.055    2819.8382   -39428.894    15740.855 
 1835000    225.88246      173.937    114263.32   -36618.479    2757.2156   -39375.695     15782.22 
 1836000    231.34485   -531.62621    114380.35   -36588.056    2823.8917   -39411.948     15809.21 
 1837000    234.09122    -175.6943    113940.11   -36598.479    2857.4151   -39455.894    15780.437 
 1838000    230.00094    172.68705    113984.49    -36551.08    2807.4875   -39358.567    15795.685 
 1839000    232.90008   -364.94825    113867.44   -36606.424    2842.8756   -39449.299    15798.297 
 1840000    232.78193   -19.712372    113891.21   -36591.261    2841.4333   -39432.694    15800.071 
 1841000    224.55348    529.39992    114509.82   -36599.348    2740.9935   -39340.341    15865.543 
 1842000    231.67015   -402.38937    114386.71   -36598.037    2827.8625     -39425.9    15861.233 
 1843000    231.62526   -222.44047    114376.62   -36554.839    2827.3145   -39382.153     15859.81 
 1844000    230.40793   -14.371576    114203.64   -36522.762    2812.4553   -39335.218    15848.071 
 1845000    231.57361    374.41072    113985.25   -36593.496    2826.6841    -39420.18    15841.825 
 1846000    230.49056   -57.627849    113787.58   -36639.957     2813.464   -39453.421    15835.896 
 1847000    235.55885    -572.2557    114208.59   -36597.661    2875.3295   -39472.991    15887.395 
 1848000    225.68792   -422.22183    114579.48   -36524.646    2754.8409   -39279.487    15920.526 
 1849000    233.23808   -199.60352    114541.44   -36477.046    2847.0013   -39324.047    15924.474 
 1850000    228.17884   -216.81557    114517.22   -36555.687    2785.2461   -39340.933     15929.54 
 1851000    227.27524   -248.29306    114118.85   -36615.939    2774.2164   -39390.156    15900.723 
 1852000    227.71158   -310.33833    114061.29   -36593.551    2779.5426   -39373.094    15904.307 
 1853000    235.76807   -152.51167       114158   -36529.214    2877.8834   -39407.097    15926.216 
 1854000    232.99156    272.48781    114086.96   -36522.206    2843.9922   -39366.199    15921.618 
 1855000    231.74486    132.00461    114252.77   -36523.526    2828.7745     -39352.3    15943.382 
 1856000    227.95015    114.40335     113638.4   -36660.309    2782.4546   -39442.763      15902.4 
 1857000     233.0916   -343.83834    113757.52    -36634.39    2845.2133   -39479.603    15923.092 
 1858000    231.82936    27.447148    114061.46   -36633.072    2829.8059   -39462.878    15964.295 
 1859000    230.52327    90.830116    114701.58   -36528.598    2813.8632   -39342.461    16031.224 
 1860000    228.17986    4.1081266    113904.82    -36589.02    2785.2586   -39374.278    15961.756 
 1861000    230.91497   -287.23746    113861.85   -36683.948    2818.6445   -39502.593    15959.029 
 1862000    234.04983    479.93262    113939.04   -36615.097    2856.9099   -39472.007    15980.302 
 1863000    232.02014    36.558392    113732.74   -36633.456    2832.1346   -39465.591    15970.081 
 1864000    230.36269   -774.17015    114610.66   -36545.965     2811.903   -39357.868    16063.709 
 1865000    233.19798    197.76324       114055   -36550.996    2846.5118   -39397.507    16023.056 
 1866000    229.39747    314.88371    114035.37   -36620.794    2800.1212   -39420.916    16035.283 
 1867000    233.54012    500.53552    113793.75    -36597.23    2850.6881   -39447.918    16002.157 
 1868000     227.7756   -367.01649    114430.16   -36541.846     2780.324    -39322.17    16062.794 
 1869000    231.00899   -653.69431    114588.79   -36566.863    2819.7921   -39386.655    16072.104 
 1870000    224.64281   -141.73506    114396.99   -36599.582    2742.0839   -39341.665    16063.729 
 1871000     230.8011     158.4546    113958.17   -36656.195    2817.2545    -39473.45    16032.323 
 1872000     230.1899    331.55808    113761.14   -36610.032    2809.7939   -39419.826    16027.419 
 1873000    229.05405     199.7469    114204.21   -36592.716    2795.9293   -39388.646    16068.331 
 1874000     231.7031   -92.054474    113854.32   -36611.005    2828.2647    -39439.27    16046.398 
 1875000    230.81235    311.28939     113525.9    -36623.68    2817.3918   -39441.072    16027.095 
 1876000    230.78817   -170.09195    114090.11    -36547.86    2817.0967   -39364.956    16083.447 
 1877000    232.33816    241.94919    114439.01   -36502.671    2836.0165   -39338.687    16130.968 
 1878000    232.33084    -104.3163    114292.12   -36523.913    2835.9272    -39359.84    16121.131 
 1879000    230.52575   -80.362762    114311.62    -36524.23    2813.8935   -39338.124    16128.471 
 1880000    237.90494    5.8186535    114436.23   -36427.069     2903.967   -39331.036    16152.403 
 1881000    234.28394    542.60752    114392.95    -36533.41    2859.7675   -39393.177    16162.121 
 1882000    228.64841   -69.146804    114547.85   -36527.803    2790.9779    -39318.78     16186.88 
 1883000    231.17144    294.97309    114294.68   -36559.532    2821.7751   -39381.307    16178.504 
 1884000    230.55108   -410.72765    114427.87    -36538.44    2814.2027   -39352.643     16202.13 
 1885000    226.26074   -615.42376     113838.7   -36654.348    2761.8329   -39416.181    16144.295 
 1886000     233.3025   -207.89215    113936.91   -36586.981    2847.7877   -39434.769     16173.29 
 1887000    227.87941   -148.93705    114346.24   -36575.135    2781.5912   -39356.726    16223.997 
 1888000    230.45959   -189.30627     114196.6   -36602.103    2813.0859   -39415.189    16222.091 
 1889000    233.83696    350.03081    114214.58    -36603.43    2854.3114   -39457.741    16231.131 
 1890000     223.5883    766.95914    113907.67   -36705.571    2729.2121   -39434.783    16205.737 
 1891000    228.15457    223.77894    114029.07    -36659.97    2784.9498    -39444.92    16213.777 
 1892000    230.61277   -210.82334    113563.76   -36717.429    2814.9557   -39532.385    16170.241 
 1893000    226.83888   -434.13217    114146.58   -36668.013      2768.89   -39436.903    16250.996 
 1894000    229.58052    720.86885     113770.2   -36617.698    2802.3556   -39420.053    16226.451 
 1895000     232.1064    354.73076    113936.58   -36545.623    2833.1875   -39378.811    16250.327 
 1896000    229.98978    267.77801    114349.51   -36537.917    2807.3512   -39345.269    16310.986 
 1897000    231.07814   -114.22554    114577.22   -36587.604    2820.6362    -39408.24    16339.865 
 1898000    226.53963   -199.22576    114321.44   -36573.467    2765.2372   -39338.704    16325.601 
 1899000    231.91067    285.16686    113793.04   -36630.447    2830.7983   -39461.246    16277.351 
 1900000    229.21887   -314.94912    113607.32   -36650.999    2797.9411    -39448.94    16272.364 
 1901000    229.83859   -545.77628    114059.98   -36629.546    2805.5058   -39435.051    16320.916 
 1902000    224.76513     181.7918    114124.82   -36637.735     2743.577   -39381.312    16333.739 
 1903000     232.9784   -70.500413    113973.38    -36592.24    2843.8315   -39436.072    16330.145 
 1904000    228.12482   -35.877823    114619.88   -36558.026    2784.5867   -39342.613    16404.164 
 1905000    227.70429    423.45556    113893.15    -36606.28    2779.4535   -39385.734    16335.742 
 1906000    227.72425   -334.24424    114167.07   -36643.002    2779.6972   -39422.699    16376.783 
 1907000     228.9556    471.78704    113803.52   -36635.166    2794.7275   -39429.894    16338.986 
 1908000    230.31291    266.11994    113900.31   -36600.945    2811.2954    -39412.24    16359.017 
 1909000    228.86773   -8.2916617    113995.87   -36655.329     2793.655   -39448.984     16369.42 
 1910000     233.8165    440.01439    113799.58   -36636.453    2854.0617   -39490.514    16348.288 
 1911000    227.16028    100.24728    114195.87    -36644.66    2772.8132   -39417.473    16395.709 
 1912000    227.88691   -319.17568    113937.58   -36602.867    2781.6827   -39384.549    16376.069 
 1913000    228.37793    385.33442    113649.01   -36664.566    2787.6763   -39452.243    16364.156 
 1914000    231.16198   -147.78734    113681.81   -36694.798    2821.6596   -39516.457    16370.471 
 1915000    230.55742    16.234571    113679.41   -36669.775    2814.2801   -39484.055    16376.097 
 1916000    225.88168    433.22319    113573.01    -36702.16     2757.206   -39459.366    16369.942 
 1917000    230.85899    304.35646    113683.17   -36654.145    2817.9611   -39472.106    16392.033 
 1918000    228.88367   -38.662436    113903.03       -36621    2793.8496   -39414.849    16422.011 
 1919000    230.44589      -43.498    114031.37    -36590.28    2812.9187   -39403.199    16436.997 
 1920000    232.03284    116.27236    114197.61   -36604.966    2832.2896   -39437.256    16466.909 
 1921000    232.92108   -586.41595    114376.36   -36573.393    2843.1318   -39416.525    16488.529 
 1922000    227.47291   -414.94951    114080.15   -36597.513    2776.6292   -39374.142    16478.269 
 1923000    226.47853   -304.17996    114355.61    -36591.79    2764.4914   -39356.282     16513.74 
 1924000    227.15865    892.72497    113975.54   -36604.264    2772.7932   -39377.057    16474.596 
 1925000    230.57361    401.99813    114179.11    -36561.94    2814.4776   -39376.417    16508.212 
 1926000    236.79376    112.92267    113811.68   -36601.716    2890.4034   -39492.119    16484.924 
 1927000    234.77819    579.87586    113284.73   -36639.808    2865.8005   -39505.608    16431.798 
 1928000    231.68757   -283.91961    113674.46   -36655.756    2828.0751   -39483.832    16476.575 
 1929000    228.28013    156.93732    114108.35   -36611.763    2786.4824   -39398.245    16519.968 
 1930000    229.11727    283.81799    113904.67   -36605.365     2796.701   -39402.066     16498.31 
 1931000    229.60555    211.63027    114086.86   -36560.353    2802.6612   -39363.014    16518.893 
 1932000    228.02032    513.74896    114051.55   -36578.431    2783.3111   -39361.742    16532.254 
 1933000    229.80619    653.47112    113406.89   -36633.948    2805.1102   -39439.058    16481.627 
 1934000     229.7685    170.40554    114134.67   -36609.996    2804.6502   -39414.647    16556.063 
 1935000    229.31084   -11.178389    113878.78   -36608.764    2799.0638   -39407.828    16551.914 
 1936000     235.3862     632.8754    113839.04   -36505.589    2873.2221   -39378.811    16554.525 
 1937000    233.55673    82.046534    114163.61   -36543.894    2850.8909   -39394.785    16596.136 
 1938000    231.03576   -5.5053651     114350.9   -36538.034    2820.1189   -39358.153    16630.839 
 1939000    228.70724   -26.633098    113982.38    -36607.71    2791.6959   -39399.406    16594.341 
 1940000    227.80875    -198.3571    114366.82   -36651.505    2780.7287   -39432.234    16637.821 
 1941000    228.02119   -36.656226    114497.74   -36654.815    2783.3217   -39438.137    16666.388 
 1942000    226.35672    263.24905    113691.35   -36625.474    2763.0045   -39388.478    16600.377 
 1943000    230.82419   -316.12578    114025.94   -36567.234    2817.5363    -39384.77    16635.565 
 1944000    232.07206   -308.54865    113695.53   -36569.252    2832.7683   -39402.021    16613.313 
 1945000    229.89991   -394.55094    114273.56   -36542.622    2806.2543   -39348.876    16680.331 
 1946000    232.30961    205.31174    113997.23   -36556.012     2835.668    -39391.68     16665.66 
 1947000    231.07219    239.95876    114189.97   -36586.358    2820.5636   -39406.921    16699.284 
 1948000    231.64403   -130.95557    113834.15   -36611.616    2827.5436   -39439.159    16677.117 
 1949000    227.48995    293.17029    113696.89   -36634.589    2776.8372   -39411.426    16666.739 
 1950000    224.70523   -119.72427    114404.56   -36634.976    2742.8457   -39377.822     16754.35 
 1951000    230.79591    -214.1415    114062.06   -36613.645    2817.1911   -39430.836     16726.64 
 1952000    230.69837   -271.56262    113678.05   -36605.007    2816.0006   -39421.007     16698.39 
 1953000    232.04204   -435.48724     113870.5   -36652.038    2832.4019    -39484.44    16726.887 
 1954000    228.40991    133.29174    113768.85   -36685.138    2788.0666   -39473.204    16725.646 
 1955000     228.1215     288.8265    113967.18    -36626.96    2784.5462   -39411.507    16765.063 
 1956000    231.08808   -195.18411    114405.63   -36598.001    2820.7575   -39418.759    16817.936 
 1957000    230.45257   -8.9535695    114119.03   -36660.059    2813.0002   -39473.059    16794.077 
 1958000    227.74617    406.45383    113429.69   -36687.149    2779.9647   -39467.114    16734.348 
 1959000    228.28778    35.956121    114188.59    -36615.54    2786.5759   -39402.116    16808.153 
 1960000    233.80478    164.01616    113870.18   -36572.103    2853.9187   -39426.021     16769.49 
 1961000    232.20499   -452.86066    114018.62   -36543.974     2834.391   -39378.365    16802.101 
 1962000    229.28746   -81.889559     113998.5   -36596.232    2798.7783    -39395.01    16807.685 
 1963000    235.68967   -166.71022     114233.2   -36488.997    2876.9264   -39365.923    16834.726 
 1964000    229.04769   -279.01066    114774.56   -36488.331    2795.8517   -39284.182    16900.974 
 1965000    226.58836   -630.20278    114743.03    -36533.36     2765.832   -39299.192    16900.095 
 1966000    231.66377   -693.37074    114495.84   -36550.753    2827.7846   -39378.537    16884.013 
 1967000    223.72039    47.003993    114403.77   -36655.212    2730.8243   -39386.037    16878.065 
 1968000    226.62516    302.86168    113727.76   -36659.308    2766.2812   -39425.589    16815.372 
 1969000    236.33038   -42.331039    113696.52   -36610.833    2884.7472    -39495.58    16818.965 
 1970000    228.93637   -34.422766    113733.39   -36615.329    2794.4929   -39409.822     16829.07 
 1971000     230.7229   -349.91564     113511.7   -36653.499    2816.2999   -39469.799    16806.128 
 1972000     231.9549    99.040058    113939.95    -36570.91    2831.3382   -39402.248    16855.228 
 1973000    226.89408    -75.14514    114146.14   -36588.531    2769.5638   -39358.094    16875.011 
 1974000    231.63547    318.51825    114164.22   -36570.363    2827.4391   -39397.802    16890.636 
 1975000    230.97156   -304.48279    113829.13    -36582.85    2819.3352   -39402.185    16866.156 
 1976000    228.77643    402.97672    113949.95   -36584.188    2792.5406   -39376.728    16886.931 
 1977000    228.31422    552.77456    114074.46   -36627.607    2786.8987   -39414.506    16914.818 
 1978000    234.92737    100.10113    114217.25   -36508.957    2867.6215   -39376.579    16953.368 
 1979000    234.66161    -124.0587    113542.86    -36574.79    2864.3775   -39439.168    16895.666 
 1980000    232.22407   -123.96648    114111.32   -36569.837    2834.6238   -39404.461     16962.63 
 1981000    232.32798    124.31241    113530.96   -36621.061    2835.8922   -39456.953    16916.644 
 1982000    231.57707    346.99149    113625.16   -36621.235    2826.7263   -39447.962     16938.14 
 1983000    232.23202    594.95822    113762.59   -36600.382    2834.7209   -39435.103    16967.255 
 1984000    229.19808   -167.40838    114431.66    -36547.76    2797.6873   -39345.448    17047.875 
 1985000    227.34794    488.06643    114388.64   -36573.873    2775.1038   -39348.977    17042.863 
 1986000     232.9163   -51.697234    113839.99   -36567.098    2843.0735   -39410.171    16981.048 
 1987000    232.27893   -281.46466    114467.49   -36530.537    2835.2935   -39365.831    17040.746 
 1988000    227.92859   -76.277632    114475.74   -36559.087    2782.1914   -39341.279    17056.385 
 1989000    227.01464     395.1758    114535.83    -36609.43    2771.0354   -39380.466    17069.905 
 1990000    229.15567    128.53175    113873.21     -36696.6    2797.1697   -39493.769    17008.677 
 1991000    229.29868     323.6159    113282.85    -36698.69    2798.9153   -39497.605    16963.805 
 1992000     230.5715    55.216757    114146.16   -36639.553    2814.4519   -39454.005    17059.345 
 1993000    230.31538   -384.08056     114192.4   -36608.779    2811.3256   -39420.104    17067.874 
 1994000    232.40477   -27.910561    114260.39    -36578.81    2836.8296    -39415.64    17079.956 
 1995000    230.95619    22.250657    113665.67    -36633.94    2819.1476   -39453.088    17026.057 
 1996000    229.77534    97.946078    114172.36   -36625.511    2804.7336   -39430.245    17084.504 
 1997000    226.78348    303.64695    114224.94   -36682.093    2768.2137   -39450.306    17098.946 
 1998000    229.98572   -581.13166    114072.93   -36669.264    2807.3016   -39476.565    17086.056 
 1999000    234.25898   -297.93519    113490.04    -36656.73    2859.4629   -39516.193     17037.14 
 2000000     226.5865    408.94476    113861.52   -36665.594    2765.8094   -39431.404    17083.459 
Loop time of 3225.77 on 12 procs for 2000000 steps with 4096 atoms

Performance: 267.843 ns/day, 0.090 hours/ns, 620.007 timesteps/s
99.8% CPU use with 12 MPI tasks x no OpenMP threads

MPI task timing breakdown:
Section |  min time  |  avg time  |  max time  |%varavg| %total
---------------------------------------------------------------
Pair    | 2826.8     | 2848.9     | 2884.5     |  34.0 | 88.32
Neigh   | 67.467     | 67.889     | 68.665     |   4.3 |  2.10
Comm    | 186.25     | 221.31     | 243.74     | 120.7 |  6.86
Output  | 14.487     | 14.506     | 14.711     |   1.6 |  0.45
Modify  | 61.45      | 62.611     | 63.929     |   9.7 |  1.94
Other   |            | 10.52      |            |       |  0.33

Nlocal:    341.333 ave 349 max 327 min
Histogram: 1 0 0 2 0 1 0 4 2 2
Nghost:    987.667 ave 1000 max 980 min
Histogram: 3 1 2 0 0 3 1 0 1 1
Neighs:    0 ave 0 max 0 min
Histogram: 12 0 0 0 0 0 0 0 0 0
FullNghs:  10778.3 ave 11039 max 10226 min
Histogram: 1 0 1 0 0 0 3 2 4 1

Total # of neighbors = 129340
Ave neighs/atom = 31.5771
Neighbor list builds = 123248
Dangerous builds = 0

Total wall time: 0:59:03
