
# Define the lattice
#
variable	    lattice_constant equal 6.36339
lattice		    diamond ${lattice_constant}
lattice		    diamond 6.36339
Lattice spacing in x,y,z = 6.36339 6.36339 6.36339

# Define region
# multiples of lattice spacing
#
region 		    simbox block 0 8 0 8 0 8

# Create Atoms
#
create_box          1 simbox
Created orthogonal box = (0 0 0) to (50.9071 50.9071 50.9071)
  2 by 2 by 3 MPI processor grid
create_atoms        1 box
Created 4096 atoms
  create_atoms CPU = 0.000318289 secs
mass                1 18.015

# Define potential
#
pair_style          sw
pair_coeff          * * MLmW_metal.sw WT
Reading potential file MLmW_metal.sw with DATE: 2019-02-27

# Add velocity/set timestep
#
velocity            all create ${TEMP} 120598 rot yes dist gaussian
velocity            all create 230 120598 rot yes dist gaussian
timestep            0.005

# Define output
#
compute	            1 all msd
thermo              50
thermo_style        custom step temp press vol etotal ke pe c_1[4]

# Neighbor lists
#
neigh_modify        delay 0 every 1 check yes

# Set fixes
#
fix                 1 all momentum 10 linear 1 1 1 rescale
fix                 2 all npt temp ${TEMP} ${TEMP} ${TDAMP} iso ${PRES} ${PRES} ${PDAMP}
fix                 2 all npt temp 230 ${TEMP} ${TDAMP} iso ${PRES} ${PRES} ${PDAMP}
fix                 2 all npt temp 230 230 ${TDAMP} iso ${PRES} ${PRES} ${PDAMP}
fix                 2 all npt temp 230 230 1.000 iso ${PRES} ${PRES} ${PDAMP}
fix                 2 all npt temp 230 230 1.000 iso 1 ${PRES} ${PDAMP}
fix                 2 all npt temp 230 230 1.000 iso 1 1 ${PDAMP}
fix                 2 all npt temp 230 230 1.000 iso 1 1 2.500

# Run 0.5 ns equilibration
#
dump		    1 all custom 1000 eq.${NAME}.dump id type x y z vx vy vz
dump		    1 all custom 1000 eq.ice_230K_1atm_ML_metal.dump id type x y z vx vy vz
run                 100000
Neighbor list info ...
  update every 1 steps, delay 0 steps, check yes
  max neighbors/atom: 2000, page size: 100000
  master list distance cutoff = 6.00329
  ghost atom cutoff = 6.00329
  binsize = 3.00165, bins = 17 17 17
  1 neighbor lists, perpetual/occasional/extra = 1 0 0
  (1) pair sw, perpetual
      attributes: full, newton on
      pair build: full/bin/atomonly
      stencil: full/bin/3d
      bin: standard
Per MPI rank memory allocation (min/avg/max) = 4.742 | 4.742 | 4.742 Mbytes
Step Temp Press Volume TotEng KinEng PotEng c_1[4] 
       0          230    -901.3177    131927.58   -2032.8805    121.74367   -2154.6241            0 
      50    120.65635    415.10936    130379.56   -2031.3045    63.865855   -2095.1704  0.057496745 
     100     109.6142     829.0449    129910.66   -2028.9091     58.02102   -2086.9302  0.070737637 
     150    125.57786   -620.70584    131447.32   -2026.3346    66.470912   -2092.8055  0.054220664 
     200    122.61043   -196.22255    131025.05   -2023.3264    64.900191   -2088.2265  0.053270304 
     250     122.1694    532.05132    130249.84   -2019.8536    64.666742   -2084.5204  0.068135463 
     300    136.84712   -68.524382    130989.05   -2016.4038    72.435955   -2088.8398  0.054340607 
     350    139.21891   -265.31959    131242.44   -2012.5864    73.691393   -2086.2778  0.061528745 
     400    143.89769    430.50455    130545.87   -2008.6088     76.16797   -2084.7768  0.059320643 
     450    144.19283    128.25016    130823.95   -2004.5669    76.324189   -2080.8911  0.061506667 
     500    143.01493   -344.59277    131335.62   -2000.2708    75.700707   -2075.9715   0.06635786 
     550    146.85665    119.07105    130874.36   -1995.8993    77.734207   -2073.6335  0.072792107 
     600    156.39367    301.13316    130772.41   -1991.3863    82.782341   -2074.1686   0.06574416 
     650    158.48864   -145.38423    131313.35   -1986.7644    83.891253   -2070.6557  0.067623594 
     700    168.40192    27.823786    131147.88   -1982.0848    89.138555   -2071.2233  0.068392561 
     750     168.0495     292.8672    130861.04   -1977.2286    88.952012   -2066.1806  0.072970357 
     800    167.37024   -47.413803    131252.98   -1972.3856    88.592467    -2060.978  0.077342047 
     850    171.92167    -184.1458    131370.88   -1967.4713    91.001631   -2058.4729   0.08919018 
     900    182.98429    208.46421    131022.73   -1962.4998      96.8573   -2059.3571  0.080185283 
     950    186.98106    52.168282    131222.76   -1957.5315    98.972871   -2056.5044  0.075131778 
    1000     183.7536   -245.02659    131520.57   -1952.5487     97.26451   -2049.8132  0.094391496 
    1050    193.60707    89.631905    131231.54   -1947.5254    102.48015   -2050.0055  0.091717194 
    1100    197.33015    124.10312    131240.59   -1942.6101    104.45086    -2047.061  0.094983497 
    1150    202.92848   -92.270304    131557.43   -1937.7204    107.41416   -2045.1345  0.082770769 
    1200    213.57527   -7.3968917    131468.24   -1932.9735    113.04973   -2046.0232  0.084516321 
    1250    207.24603    119.01415       131325   -1928.2377    109.69953   -2037.9372    0.1059078 
    1300    207.31412   -74.463475    131541.06   -1923.6942    109.73557   -2033.4297   0.11145276 
    1350    215.54005   -102.45841    131634.07    -1919.314    114.08972   -2033.4037  0.097049304 
    1400    217.36445    41.601179    131486.21   -1915.1241    115.05542   -2030.1795  0.097152696 
    1450     220.9382    -1.653674    131577.99   -1911.1983    116.94707   -2028.1454   0.11297308 
    1500    224.45553   -38.674741    131693.83    -1907.502    118.80887   -2026.3108   0.11119725 
    1550    225.28624   -2.7678273    131604.02   -1904.1613    119.24858   -2023.4099   0.11073921 
    1600    226.13006   -28.486383    131624.14    -1901.158    119.69523   -2020.8532   0.11368243 
    1650    230.30236   -113.80967     131760.5   -1898.5751    121.90371   -2020.4789   0.10768911 
    1700    232.22581   -103.86944    131741.03   -1896.4489    122.92184   -2019.3707    0.1182525 
    1750     239.3689    83.283505    131606.24   -1894.8699    126.70282   -2021.5727   0.11935488 
    1800    243.56935    46.468698    131721.13   -1893.7965     128.9262   -2022.7227   0.10589033 
    1850    242.97072    11.548182    131818.77   -1893.3608    128.60933   -2021.9702    0.1010449 
    1900    247.94852    142.71906    131656.48   -1893.5985    131.24419   -2024.8427   0.10462727 
    1950    240.19144    88.857779    131645.16   -1894.4749     127.1382   -2021.6131   0.11482175 
    2000    238.70354   -45.718743    131790.15   -1895.8748    126.35063   -2022.2254   0.10983922 
    2050    240.11117    51.308464    131689.94   -1897.7165    127.09571   -2024.8122   0.10826577 
    2100    231.52241    98.992925    131545.84   -1899.8162    122.54951   -2022.3657   0.11220323 
    2150    231.33451   -12.641485    131689.67   -1902.0222    122.45005   -2024.4722  0.097346301 
    2200    226.90045   -149.96124    131774.06   -1904.2641    120.10301   -2024.3671   0.11169976 
    2250    222.59051    92.185735    131487.83   -1906.2808    117.82168   -2024.1024   0.11770008 
    2300    226.66913    41.312804    131547.94   -1908.0967    119.98057   -2028.0773   0.10670186 
    2350    226.35758   -149.39589    131785.52   -1909.5685    119.81566   -2029.3842  0.097457718 
    2400    226.09824     75.34034    131526.82   -1910.7241    119.67839   -2030.4025  0.099031363 
    2450    221.52466    148.13762    131411.76   -1911.5055     117.2575    -2028.763   0.11323596 
    2500    223.55983   -114.27596    131740.13   -1911.8216    118.33476   -2030.1564   0.10689572 
    2550    224.65019   -82.931527    131647.33   -1911.7456     118.9119   -2030.6575   0.10903573 
    2600    222.28961    271.64519     131302.5   -1911.1084     117.6624   -2028.7708  0.091467713 
    2650    224.62576   -144.10343    131700.57    -1910.245    118.89897    -2029.144   0.10819022 
    2700    225.87433   -159.95303    131788.48   -1908.9336    119.55987   -2028.4934   0.11444995 
    2750    229.02519    286.65992    131298.93   -1907.3595    121.22768   -2028.5871   0.10971264 
    2800    230.16293    43.892061    131538.62   -1905.6919    121.82991   -2027.5218  0.097004603 
    2850     225.7165   -389.28614    132004.84   -1903.9287    119.47632    -2023.405   0.10846054 
    2900    229.40998    104.78516    131450.68   -1902.2925    121.43136   -2023.7238    0.1171712 
    2950    228.54315    230.65005    131324.66   -1900.7236    120.97253   -2021.6961   0.12041933 
    3000    236.69445   -316.76494    132009.59    -1899.391    125.28718   -2024.6782   0.10813965 
    3050    231.85253   -102.29753    131755.44   -1898.3638    122.72425   -2021.0881   0.10961136 
    3100    238.12749    407.54813    131196.37    -1897.608    126.04571   -2023.6537   0.10833949 
    3150    233.43153   -188.29364    131844.53   -1897.3514    123.56005   -2020.9115   0.12003624 
    3200    235.69524   -321.24924     131997.3   -1897.3823    124.75827   -2022.1406   0.11782128 
    3250    238.77509    366.24334    131262.63   -1897.7761     126.3885   -2024.1646   0.10237166 
    3300    231.32723    48.740086    131582.89   -1898.6455     122.4462   -2021.0917   0.11459721 
    3350    236.48042   -332.76914    132034.13   -1899.7081    125.17388    -2024.882   0.10360758 
    3400    231.46952    142.78245    131469.24   -1901.1026    122.52152   -2023.6241   0.11483142 
    3450    234.76714    262.06515    131348.09   -1902.5538    124.26701   -2026.8208   0.10829186 
    3500    231.02362   -262.44702    131910.64   -1904.0562    122.28549   -2026.3417   0.11204426 
    3550     227.0238   -49.953104    131649.85   -1905.4752     120.1683   -2025.6435   0.10306732 
    3600    226.17542    244.67629    131313.19   -1906.7624    119.71924   -2026.4817   0.10318483 
    3650    225.52675    -130.4875    131707.99   -1907.9176    119.37588   -2027.2935   0.11376476 
    3700    223.30324   -166.71959    131728.46   -1908.7798    118.19894   -2026.9787   0.11146618 
    3750    227.70267     147.5631    131374.08   -1909.3794    120.52765   -2029.9071   0.10575599 
    3800    226.68778    33.943535       131536   -1909.6519    119.99044   -2029.6423  0.098828965 
    3850    229.04881   -147.90051     131741.9   -1909.6284    121.24019   -2030.8686  0.099922055 
    3900    222.63496    50.668633    131507.32   -1909.2799     117.8452   -2027.1251   0.11628387 
    3950    229.63868    128.32793    131446.98   -1908.6269    121.55241   -2030.1793   0.11063455 
    4000    230.52477    -29.94405    131676.63   -1907.6531    122.02144   -2029.6746  0.093644814 
    4050    229.70388   -84.316803     131664.4   -1906.5551    121.58693    -2028.142    0.1008696 
    4100    226.72897    94.577168     131499.2   -1905.2558    120.01225    -2025.268   0.11316021 
    4150    230.45238   -6.6085682    131619.01   -1903.9557    121.98312   -2025.9388   0.11783356 
    4200    232.62779   -61.085349    131718.47   -1902.6241    123.13461   -2025.7587   0.10188472 
    4250    235.36972     49.28678    131611.82   -1901.4128    124.58597   -2025.9988   0.10123033 
    4300     234.0074    72.805768    131589.92   -1900.3939    123.86486   -2024.2588   0.10769405 
    4350      237.521   -56.264716    131721.36   -1899.6125    125.72469   -2025.3372   0.10987661 
    4400        236.2   -42.217527    131680.87   -1899.0775    125.02545   -2024.1029   0.11915516 
    4450    235.76186    98.663311     131544.2   -1898.7566    124.79354   -2023.5501   0.10347543 
    4500    232.71707   -44.407935    131684.92   -1898.8093    123.18187   -2021.9912   0.10780232 
    4550    232.55592   -81.670816    131722.05   -1899.1676    123.09657   -2022.2641   0.11112001 
    4600    230.59868    56.753063    131552.73   -1899.8199    122.06056   -2021.8804   0.12034406 
    4650    234.78972    59.305322     131578.2   -1900.6863    124.27896   -2024.9652   0.10739622 
    4700    231.01008   -89.613101    131752.36   -1901.7188    122.27832   -2023.9971   0.10491162 
    4750    230.22633   -9.8024239    131582.15   -1902.9176    121.86347   -2024.7811   0.11232236 
    4800    227.98533    59.987742    131500.94   -1904.0931    120.67726   -2024.7703   0.10741495 
    4850    229.07057   -100.43389    131736.44   -1905.2399     121.2517   -2026.4916   0.10512724 
    4900    227.74378   -81.177219    131643.02   -1906.3418    120.54941   -2026.8912   0.11658794 
    4950    228.31611    171.85766    131415.13   -1907.1886    120.85235   -2028.0409   0.10305804 
    5000    230.00569   -59.007416    131672.03   -1907.9023    121.74668    -2029.649  0.095481528 
    5050     224.3497   -135.25948     131733.4   -1908.3954    118.75285   -2027.1482   0.10868071 
    5100      225.063     166.1658    131388.67   -1908.6276    119.13041    -2027.758   0.11125813 
    5150     224.5309    48.073221    131537.43   -1908.5985    118.84876   -2027.4473   0.11084061 
    5200    227.19107   -145.62367    131796.54   -1908.2414    120.25685   -2028.4982  0.096950279 
    5250    227.75491     63.41689    131484.54    -1907.728    120.55529   -2028.2833   0.10206751 
    5300    227.04674    135.52421    131417.57   -1906.9534    120.18045   -2027.1338   0.10755924 
    5350    226.15517   -230.60688    131814.97   -1906.0242    119.70852   -2025.7327   0.11967438 
    5400    230.23649   -13.953818    131623.28   -1904.9393    121.86885   -2026.8081   0.10554848 
    5450    234.76216    185.45806    131390.74   -1903.8115    124.26437   -2028.0758  0.096008621 
    5500    227.95875   -156.72957    131769.47   -1902.7718    120.66319    -2023.435   0.11017139 
    5550    227.65892   -153.18476       131776   -1901.7708    120.50449   -2022.2753   0.11974078 
    5600    232.43625    224.59582    131367.33   -1900.8946    123.03322   -2023.9278   0.11349698 
    5650    232.23504   -28.704727     131651.7   -1900.2365    122.92672   -2023.1632   0.10897434 
    5700    234.68795   -204.21542    131914.57   -1899.7479    124.22509    -2023.973   0.10275737 
    5750    237.67273    174.56432     131451.8   -1899.5837      125.805   -2025.3887   0.10990037 
    5800    232.81139    172.22396    131468.86   -1899.6298    123.23179   -2022.8616   0.11598136 
    5850     235.3138   -240.58121    131933.18   -1899.9311    124.55637   -2024.4874   0.11112436 
    5900    236.26093    25.970249    131623.59   -1900.4877    125.05771   -2025.5454   0.10052749 
    5950    228.59827    231.05794    131347.99   -1901.2154    121.00171   -2022.2171   0.11016645 
    6000    229.55281   -154.75738    131797.81   -1902.1371    121.50696   -2023.6441   0.11276001 
    6050     232.8222   -143.17273     131786.5   -1903.1446    123.23751   -2026.3821   0.11028026 
    6100    229.25666    265.98815       131313   -1904.1276     121.3502   -2025.4778   0.10846596 
    6150    225.07574   -33.129138    131608.28   -1905.1472    119.13715   -2024.2843   0.11432056 
    6200    231.36237   -206.34348    131848.93   -1906.0197     122.4648   -2028.4845   0.10060027 
    6250     227.7888    173.52915    131409.76   -1906.7826    120.57323   -2027.3558   0.10572267 
    6300    229.59583    154.63941    131414.82   -1907.3996    121.52973   -2028.9294    0.1110378 
    6350    226.25996   -251.03732    131861.31   -1907.7697    119.76399   -2027.5337   0.11086733 
    6400    229.99621    7.1975313     131573.6   -1907.9423    121.74166    -2029.684  0.099776141 
    6450    229.19813    302.38995    131254.19   -1907.8534    121.31922   -2029.1726   0.10258692 
    6500    222.94824   -218.19607    131792.61    -1907.618    118.01103    -2025.629   0.11211518 
    6550    223.90654   -212.73376     131831.1   -1907.1119    118.51828   -2025.6302   0.11110651 
    6600    225.98551    349.33112    131184.76   -1906.4058    119.61872   -2026.0246   0.11378819 
    6650    229.40608    55.097984    131557.07    -1905.637     121.4293   -2027.0663   0.10058799 
    6700    229.88803    -461.1816    132130.34   -1904.6672     121.6844   -2026.3516    0.1022764 
    6750    226.39731    227.23502    131330.67   -1903.7717    119.83669   -2023.6084   0.11786563 
    6800    226.88555    331.61181    131213.09   -1902.8325    120.09513   -2022.9276   0.12230182 
    6850    232.53639   -473.19865    132158.21   -1901.9365    123.08623   -2025.0228   0.10027068 
    6900    233.82388   -122.04427    131756.27   -1901.2766    123.76772   -2025.0443   0.10483709 
    6950    233.01875    567.01541     131025.4   -1900.5845    123.34155    -2023.926   0.11044368 
    7000    230.39082   -218.66172    131868.47   -1900.3333    121.95054   -2022.2838   0.11820052 
    7050    236.31847   -327.15631    132045.02   -1900.1142    125.08816   -2025.2024    0.1057947 
    7100     234.7496    411.47024    131209.49   -1900.1469    124.25773   -2024.4047   0.10661611 
    7150    235.85976    69.445249    131533.99   -1900.5292    124.84536   -2025.3746   0.10673291 
    7200    229.75983   -397.05964    132056.55   -1900.9715    121.61654   -2022.5881    0.1114822 
    7250    229.95653    85.146385    131485.69   -1901.7061    121.72066   -2023.4267   0.12035779 
    7300    230.55196    251.22656     131343.1    -1902.434    122.03583   -2024.4699   0.10522652 
    7350    230.27556   -245.53621    131904.14   -1903.3343    121.88953   -2025.2238   0.10452186 
    7400    233.31019   -64.563106    131697.31   -1904.2597    123.49582   -2027.7555   0.10613973 
    7450    231.34675     268.4022    131308.17   -1905.0979    122.45653   -2027.5544   0.10819554 
    7500    228.11146   -124.89526    131701.68   -1905.9102    120.74402   -2026.6542    0.1085498 
    7550     222.9453   -170.78404    131815.25   -1906.5351    118.00947   -2024.5446   0.10955059 
    7600    228.11781    223.14648    131389.06   -1907.0522    120.74739   -2027.7996   0.10284712 
    7650    227.46178    64.043773    131549.97    -1907.426    120.40013   -2027.8261   0.10243845 
    7700    227.29314   -185.29404    131826.43   -1907.5574    120.31087   -2027.8683   0.10293391 
    7750    227.43003    68.549669    131495.88   -1907.5432    120.38333   -2027.9266   0.11343774 
    7800    226.05897    147.74237    131422.85    -1907.262     119.6576   -2026.9196   0.10707468 
    7850    229.48693   -165.16397    131797.27   -1906.8079    121.47209     -2028.28  0.099936805 
    7900    227.67323   -40.442842    131647.15   -1906.2071    120.51206   -2026.7192   0.10554771 
    7950    230.21932    233.15367     131362.4   -1905.4409    121.85976   -2027.3007   0.10565467 
    8000    228.03776    -88.42078    131700.75   -1904.6635    120.70501   -2025.3685   0.11542284 
    8050    229.88617   -128.19057    131762.38   -1903.7918    121.68341   -2025.4752   0.10322642 
    8100    228.69962    128.39053    131442.43   -1902.9516    121.05535    -2024.007    0.1046263 
    8150    229.99681    14.638338    131595.24   -1902.2028    121.74198   -2023.9448   0.10936796 
    8200    226.70028    -207.8992    131831.51   -1901.5426    119.99706   -2021.5396   0.12131796 
    8250    236.94315     98.99867    131512.72   -1901.0478    125.41882   -2026.4666   0.10862907 
    8300    231.31764    103.52903    131511.88   -1900.6536    122.44112   -2023.0947   0.10354072 
    8350    228.91933   -220.40581    131831.07   -1900.5295    121.17165   -2021.7011   0.10957713 
    8400    227.92688   -10.538596    131634.06   -1900.5811    120.64632   -2021.2275   0.11628134 
    8450    235.00172    192.09751    131445.53   -1900.8152    124.39118   -2025.2064   0.11055595 
    8500    234.84384   -51.916456    131755.79   -1901.2457    124.30761   -2025.5533   0.10546747 
    8550     236.3451    -72.23071    131759.22   -1901.8169    125.10226   -2026.9191  0.097105685 
    8600    230.88392    161.53346    131456.82   -1902.5201    122.21155   -2024.7316   0.10730595 
    8650    228.66633    16.047572    131611.13   -1903.3295    121.03773   -2024.3673   0.11469009 
    8700    228.96966   -158.90198    131803.02     -1904.14    121.19829   -2025.3383   0.10678272 
    8750    231.57721     96.31934    131522.14   -1904.9492    122.57851   -2027.5277   0.10166442 
    8800    228.79378    111.01967    131483.31   -1905.6872    121.10519   -2026.7924   0.10629277 
    8850    222.67655    -145.5046    131782.67    -1906.302    117.86722   -2024.1693    0.1081708 
    8900    227.59151   -24.467862    131633.65   -1906.8137    120.46881   -2027.2825   0.10535958 
    8950    228.59135    171.42547    131390.78   -1907.1408    120.99804   -2028.1389   0.10848465 
    9000    228.48824   -64.049311    131685.75   -1907.2866    120.94346   -2028.2301   0.10551038 
    9050    227.25392   -143.48651    131773.16   -1907.2142    120.29011   -2027.5043  0.098492821 
    9100    227.60454    174.74717    131386.92   -1906.9941     120.4757   -2027.4698   0.10708338 
    9150    224.43003    47.721428    131524.48   -1906.5931    118.79537   -2025.3885   0.11211728 
    9200    225.02258   -256.15131    131918.72   -1906.0019    119.10902    -2025.111   0.10825542 
    9250    229.35603    138.63061    131491.44   -1905.3393     121.4028   -2026.7421   0.10301505 
    9300     231.2811    311.29274    131291.74    -1904.549    122.42178   -2026.9708   0.10221962 
    9350    228.89799   -312.28443     131972.9   -1903.7845    121.16035   -2024.9448   0.10690895 
    9400    231.13835   -122.31608    131779.39    -1903.045    122.34622   -2025.3912   0.11317573 
    9450    229.99894    450.02977    131103.64   -1902.2586    121.74311   -2024.0017    0.1175559 
    9500    231.89134   -82.393658    131748.85   -1901.6926    122.74479   -2024.4374   0.09772324 
    9550    232.28421   -454.82436    132153.56   -1901.1574    122.95275   -2024.1101     0.103689 
    9600    233.12783    422.63341    131191.19   -1900.8419    123.39929   -2024.2412   0.11423145 
    9650    231.10637    191.88183     131386.4   -1900.7556    122.32929   -2023.0849   0.12097069 
    9700    231.96367   -495.62283    132186.35   -1900.7168    122.78308   -2023.4999   0.10441054 
    9750    230.58449    41.078866    131561.37   -1901.0124    122.05305   -2023.0655   0.10670235 
    9800    234.11512    425.77569    131160.04   -1901.3655    123.92188   -2025.2873   0.10928436 
    9850    229.84324   -285.60568    131932.83   -1901.9777    121.66069   -2023.6384   0.11581393 
    9900    231.50159   -211.71727    131821.69   -1902.6685    122.53849    -2025.207   0.11210644 
    9950    229.03217    339.73588    131202.97   -1903.3238    121.23138   -2024.5551   0.10681364 
   10000    228.07031   -36.343327    131653.89   -1904.1099    120.72225   -2024.8322   0.10299678 
   10050    227.38347   -330.55246    131935.09   -1904.8653    120.35869    -2025.224   0.11287016 
   10100    228.83849    206.20276    131346.87   -1905.5543    121.12886   -2026.6831   0.11248592 
   10150    228.62383     128.0401    131437.07   -1906.1239    121.01523   -2027.1392   0.10597153 
   10200    226.51953   -282.83468    131900.91   -1906.5681    119.90138   -2026.4695   0.10689157 
   10250    228.76769    84.805756    131531.59   -1906.8702    121.09138   -2027.9616   0.10137112 
   10300    229.26124    209.27975    131334.98    -1907.033    121.35263   -2028.3857    0.1101956 
   10350    226.08858   -142.37388    131769.06   -1906.9727    119.67327    -2026.646   0.10473182 
   10400    228.36106    -121.0185    131716.88   -1906.7963    120.87614   -2027.6725     0.111988 
   10450    233.99762    262.11734    131318.09    -1906.389    123.85969   -2030.2487   0.10051275 
   10500    226.79784   -41.022755    131629.66   -1905.8731     120.0487   -2025.9218   0.10653118 
   10550    228.90722   -213.82823    131814.07   -1905.2337    121.16523   -2026.3989   0.10730881 
   10600    229.49578    191.05525    131411.08   -1904.5112    121.47677    -2025.988   0.11136087 
   10650    231.49956    87.906884    131501.24   -1903.7857    122.53741   -2026.3232   0.11097497 
   10700    231.06229   -187.08432    131850.46   -1903.0277    122.30596   -2025.3336    0.1041978 
   10750    230.89531    22.902746    131593.31   -1902.3654    122.21757    -2024.583   0.10301674 
   10800    229.32981    175.01419    131420.04   -1901.7933    121.38892   -2023.1823   0.11380059 
   10850    231.49445   -132.20928    131764.89   -1901.3698    122.53471   -2023.9045   0.11739336 
   10900    232.09075   -94.069537    131719.23   -1901.0591    122.85035   -2023.9094    0.1082858 
   10950    233.87305     177.1872    131427.45      -1900.9    123.79375   -2024.6938   0.10079448 
   11000    232.81728   -28.741428    131667.41   -1900.9983    123.23491   -2024.2332   0.10846253 
   11050    232.35297    -162.5651    131804.68   -1901.2318    122.98914   -2024.2209   0.11809899 
   11100    233.66836    170.51171    131464.12   -1901.6096     123.6854    -2025.295   0.10723893 
   11150     233.8577    46.847048    131561.17   -1902.1593    123.78563   -2025.9449   0.10650802 
   11200    231.22193   -159.20845    131823.97   -1902.7836    122.39046    -2025.174    0.1014829 
   11250    231.54213    24.471834    131579.02   -1903.5211    122.55995    -2026.081   0.11219331 
   11300    230.78149    161.30241    131417.86    -1904.251    122.15733   -2026.4084   0.11502837 
   11350    228.58136    -105.4419    131753.93   -1904.9364    120.99275   -2025.9292   0.10555799 
   11400    230.33898   -88.312385    131725.13   -1905.5947     121.9231   -2027.5177   0.10174565 
   11450    226.99638    182.24924    131407.87    -1906.136    120.15379   -2026.2898   0.10611478 
   11500    228.21543   -10.877288    131613.45    -1906.601    120.79906   -2027.4001    0.1127818 
   11550    229.35521   -157.80604    131786.33   -1906.8553    121.40237   -2028.2577   0.10303909 
   11600    226.53144    113.55528    131485.79   -1906.9714    119.90769   -2026.8791   0.10573971 
   11650    227.07259    89.851374    131477.08    -1906.948    120.19413   -2027.1421   0.10857062 
   11700    226.28719   -179.14654    131791.47   -1906.7205     119.7784   -2026.4989   0.10483697 
   11750    229.18154    -21.84177    131619.24   -1906.3764    121.31044   -2027.6869   0.10724285 
   11800    227.31714    218.42256    131367.89   -1905.8399    120.32358   -2026.1635   0.11066927 
   11850    226.14367    -84.19214    131724.05   -1905.2251    119.70243   -2024.9275   0.10658789 
   11900    230.10255   -169.14547     131802.8   -1904.5694    121.79795   -2026.3673   0.10593025 
   11950    231.38805    261.94484    131337.66   -1903.8332    122.47839   -2026.3116   0.10526097 
   12000    231.89842    34.699574    131581.74   -1903.1736    122.74854   -2025.9222   0.10964748 
   12050    230.62823   -309.24685     131994.6   -1902.4904     122.0762   -2024.5666   0.10866231 
   12100    229.76837    185.57617    131435.29   -1901.9663    121.62106   -2023.5874   0.11233679 
   12150    231.56234    288.62078    131320.86   -1901.5039    122.57065   -2024.0746   0.10333808 
   12200    233.19515   -407.00696    132104.51   -1901.1906    123.43493   -2024.6255   0.10372656 
   12250    232.27344   -69.905683    131722.55   -1901.1244    122.94705   -2024.0714   0.11510263 
   12300    232.61399    498.85127    131095.13   -1901.0579    123.12731   -2024.1852   0.11494435 
   12350    234.50498   -163.32621     131883.2   -1901.2992    124.12824   -2025.4274   0.09747186 
   12400    228.48299    -385.3296    132079.86   -1901.6376    120.94069   -2022.5783   0.10518141 
   12450    230.61521    414.85995    131186.27   -1902.1095    122.06931   -2024.1788   0.11158146 
   12500    233.03876    91.600688    131526.25   -1902.7891    123.35215   -2026.1413   0.11445569 
   12550    225.49438   -409.37002    132117.35   -1903.3397    119.35875   -2022.6984   0.10300158 
   12600    229.03431    169.88176    131455.57   -1904.1029    121.23251   -2025.3354   0.10488954 
   12650    236.40121    319.90358    131273.39   -1904.7636    125.13196   -2029.8956   0.10060088 
   12700    228.39375   -331.15398    131962.11   -1905.3856    120.89344    -2026.279   0.11280436 
   12750    228.32144   -88.516849    131680.57   -1905.9291    120.85517   -2026.7843   0.11055133 
   12800    225.53212    309.52205    131238.95   -1906.2659    119.37873   -2025.6446   0.10400657 
   12850    226.52397   -131.11371    131747.36    -1906.573    119.90374   -2026.4768   0.10421371 
   12900    228.83667   -196.69454    131830.66    -1906.704    121.12789   -2027.8319   0.10629694 
   12950    229.22411    253.26105    131316.52   -1906.6769    121.33297   -2028.0098   0.10792401 
   13000    229.54345     56.06412    131548.14   -1906.5007    121.50201   -2028.0027    0.1038533 
   13050    221.82374   -278.78893    131891.75   -1906.1358    117.41581   -2023.5516   0.10923903 
   13100    230.22216    102.62036    131466.79   -1905.6856    121.86126   -2027.5469   0.10561499 
   13150    230.84838    184.47078    131410.69   -1905.0979    122.19273   -2027.2907   0.10611208 
   13200    232.27122   -190.05868    131834.19   -1904.4558    122.94587   -2027.4016   0.10454786 
   13250    229.99303   -69.419552    131657.68   -1903.8162    121.73998   -2025.5562   0.11347265 
   13300    229.23672    250.73841    131348.51   -1903.1097    121.33965   -2024.4494    0.1045956 
   13350     233.2886    -94.59853    131736.62   -1902.5542    123.48439   -2026.0386   0.10711241 
   13400    235.33854   -123.32299    131789.33   -1902.0238    124.56947   -2026.5933  0.099810798 
   13450     232.4248    201.70502    131408.08   -1901.6319    123.02717    -2024.659   0.11309959 
   13500    234.14365    60.980768    131571.96   -1901.3792    123.93699   -2025.3161   0.11115365 
   13550    232.25558   -216.86959    131872.55   -1901.2234    122.93759    -2024.161   0.10640665 
   13600    231.84663    92.343839     131540.2   -1901.2276    122.72113   -2023.9488   0.10242278 
   13650    231.90575    144.12982    131456.03   -1901.4299    122.75242   -2024.1823     0.110764 
   13700    230.67365   -170.55555    131801.69   -1901.7783    122.10024   -2023.8786   0.11493534 
   13750    229.69069   -11.293686    131665.06   -1902.2297    121.57994   -2023.8097   0.10645203 
   13800    232.91703    174.04918    131427.45   -1902.8195    123.28771   -2026.1073   0.10200724 
   13850    231.35194   -40.163967    131681.12   -1903.4937    122.45928    -2025.953   0.10279769 
   13900    229.62258    -140.6188    131740.44   -1904.1806    121.54389   -2025.7245   0.11010293 
   13950    231.33687    156.38483    131412.44   -1904.8101     122.4513   -2027.2614   0.10887001 
   14000      226.816    28.484831    131551.54   -1905.3686    120.05831   -2025.4269   0.10658821 
   14050    229.79503   -179.72232    131783.57   -1905.8368    121.63517    -2027.472  0.098229858 
   14100    224.61904    37.649803    131506.33   -1906.2105    118.89542   -2025.1059   0.11195796 
   14150    229.83575     166.2851    131397.13   -1906.4378    121.65672   -2028.0945   0.10992415 
   14200    230.26284    -99.76623    131732.37   -1906.5314     121.8828   -2028.4142   0.10198361 
   14250    231.45025    -45.53498     131650.5   -1906.4975    122.51132   -2029.0088  0.099498943 
   14300    227.94589     130.5977    131383.07    -1906.269    120.65638   -2026.9254    0.1106002 
   14350    224.34466   -59.727619     131637.4   -1905.8445    118.75018   -2024.5947    0.1080591 
   14400    228.73689   -194.27814    131799.35   -1905.2902    121.07508   -2026.3653   0.10668256 
   14450    226.58002    147.65779    131429.95   -1904.5667     119.9334   -2024.5001   0.10738742 
   14500    227.68383    98.921608    131488.47    -1903.811    120.51767   -2024.3286   0.10700923 
   14550     232.4765   -236.79388    131867.35   -1903.0867    123.05453   -2026.1412   0.10362728 
   14600    228.51386    41.070382    131574.99    -1902.434    120.95703    -2023.391   0.10766486 
   14650    231.35174    269.53555    131321.22   -1901.9285    122.45917   -2024.3877   0.11285423 
   14700    232.85433   -201.96636    131863.88   -1901.5976    123.25452   -2024.8521    0.1068612 
   14750    236.17293   -162.89867    131842.46    -1901.397    125.01112   -2026.4081   0.10315237 
   14800    237.17974    392.80702    131207.04   -1901.3126    125.54405   -2026.8567   0.10541443 
   14850    233.31953   -12.341734    131663.83   -1901.4643    123.50076   -2024.9651   0.10433161 
   14900    227.37161   -455.67143    132139.92   -1901.7007    120.35241   -2022.0532   0.11391945 
   14950    231.44244    311.42702    131268.51   -1902.2554    122.50718   -2024.7626   0.11015786 
   15000    231.13139    285.16566    131304.75   -1903.1104    122.34253   -2025.4529   0.10163399 
   15050     227.7406   -510.04818    132220.29    -1904.341    120.54772   -2024.8887   0.10171018 
   15100    225.16701    25.325297    131586.97   -1905.8557    119.18547   -2025.0412   0.11210153 
   15150    229.81794    517.75709    131022.36   -1906.8111     121.6473   -2028.4584   0.11232578 
   15200    229.53909   -304.22672    131949.11   -1907.4098     121.4997   -2028.9095   0.10103388 
   15250    226.15629   -288.50931    131922.58   -1907.5736    119.70911   -2027.2827  0.099696494 
   15300    223.99514    441.36691    131109.07   -1907.4567    118.56517   -2026.0218   0.10777036 
   15350    224.86424    4.8566122     131597.8   -1907.3245    119.02521   -2026.3498    0.1103879 
   15400    223.30336    -373.5494    132023.76   -1906.9107      118.199   -2025.1097   0.10737298 
   15450    227.85993    188.07376    131402.66   -1906.4302    120.61089   -2027.0411   0.09866307 
   15500    229.41003    210.37415    131416.92   -1905.8532    121.43139   -2027.2846   0.10054901 
   15550    229.58578   -288.29067    131946.56   -1905.2348    121.52441   -2026.7592   0.10906663 
   15600    228.93877    1.6873125    131626.79   -1904.5919    121.18194   -2025.7739   0.10664257 
   15650    229.79985      235.393     131377.3   -1903.9729    121.63772   -2025.6106   0.10483252 
   15700    234.84514    -137.8602    131816.53   -1903.4993     124.3083   -2027.8076   0.10141193 
   15750    231.21759   -109.69416    131794.68   -1903.0942    122.38816   -2025.4824   0.10505956 
   15800    236.05384    240.31628    131409.93   -1902.7967    124.94809   -2027.7448   0.10387347 
   15850     230.0932   -12.934189    131671.09    -1902.622      121.793    -2024.415   0.10759014 
   15900    230.17634   -178.37735       131865   -1902.5324    121.83701   -2024.3694   0.10551454 
   15950    236.87291    117.57034     131517.8   -1902.5699    125.38164   -2027.9516   0.10219782 
   16000    228.45371    95.276747    131549.34   -1902.6348    120.92518     -2023.56   0.10558482 
   16050    229.59741   -153.45164    131848.11    -1902.829    121.53057   -2024.3596    0.1032323 
   16100    232.57762    1.6263709    131636.63   -1903.1852    123.10805   -2026.2933   0.10914343 
   16150    229.85582    157.46046    131468.27   -1903.6287    121.66735    -2025.296   0.10712793 
   16200    229.65381   -112.64926    131773.34   -1904.4511    121.56042   -2026.0115   0.10201317 
   16250    229.68234   -87.379724    131731.37   -1905.8444    121.57552   -2027.4199  0.099116015 
   16300    226.12363    177.89738    131431.68   -1907.4564    119.69182   -2027.1482   0.10600248 
   16350    226.04333    12.231693    131610.74   -1908.6355    119.64932   -2028.2848   0.10738986 
   16400    227.57486   -140.68408    131774.57   -1909.1653    120.45999   -2029.6253   0.09861228 
   16450    227.78848    102.99709    131506.49    -1909.273    120.57307    -2029.846  0.095548442 
   16500    229.33392    61.016055    131519.74   -1909.1469     121.3911    -2030.538   0.10577475 
   16550    221.51188   -153.56319    131775.92   -1908.6866    117.25073   -2025.9373   0.10798402 
   16600    229.73192    -5.852658    131595.54   -1908.0908    121.60177   -2029.6926   0.10505464 
   16650    224.87543    155.69483    131449.59   -1907.2566    119.03113   -2026.2878   0.10159423 
   16700    229.46804   -88.663483    131740.87   -1906.4457    121.46209   -2027.9078  0.095804463 
   16750    226.83563   -111.53875    131734.94   -1905.6992     120.0687   -2025.7679   0.11052806 
   16800    226.44397    138.92207    131429.94   -1904.9967    119.86139   -2024.8581    0.1129189 
   16850    227.73455    2.3711012    131634.71   -1904.4215    120.54452    -2024.966   0.10437452 
   16900    228.13833   -214.05977    131863.12   -1903.9442    120.75825   -2024.7024  0.098613864 
   16950     229.9417    110.14362    131511.96   -1903.6083    121.71281   -2025.3211   0.10867582 
   17000    229.14997    162.26436    131473.12   -1903.3167    121.29373   -2024.6104   0.11004482 
   17050    234.50648    -227.7128    131887.07   -1903.1091    124.12904   -2027.2381   0.10398135 
   17100     229.5498    7.2792011    131648.13   -1902.9497    121.50537   -2024.4551   0.10515526 
   17150    229.44229    261.14462    131339.02    -1902.845    121.44846   -2024.2934   0.10668995 
   17200    231.21885   -166.54417    131837.14   -1902.8669    122.38883   -2025.2557   0.10443198 
   17250    230.26336   -193.85208    131880.76   -1902.9154    121.88307   -2024.7985   0.10667288 
   17300    233.60323    352.62265    131251.88   -1903.0589    123.65093   -2026.7098   0.11032485 
   17350    234.97499    58.100485     131598.8   -1903.4057    124.37703   -2027.7827   0.10294779 
   17400    229.25005   -448.64511    132132.85   -1903.8472     121.3467   -2025.1939   0.10403543 
   17450    229.19477    259.02803    131348.68   -1904.6992    121.31744   -2026.0167   0.10321726 
   17500    228.17416    319.66614     131252.6   -1905.7848    120.77722    -2026.562   0.10828237 
   17550     225.1866    -484.6296    132160.83   -1906.8357    119.19584   -2026.0315   0.10719066 
   17600    225.77853   -68.613263    131682.47   -1907.7435    119.50916   -2027.2526   0.10497189 
   17650     227.9413    528.50583     131029.4   -1908.1259    120.65396   -2028.7798  0.099608704 
   17700    223.81643    -242.1875    131902.51   -1908.4419    118.47058   -2026.9125   0.10186461 
   17750    224.24759   -319.46703     131974.8   -1908.3999     118.6988   -2027.0987   0.10895975 
   17800    225.91536    425.55442    131135.92    -1908.052    119.58159   -2027.6335   0.10852451 
   17850    228.94703    53.989453    131557.67   -1907.5804    121.18631   -2028.7667  0.099065549 
   17900    227.44925   -356.72843    132034.59    -1906.764     120.3935   -2027.1575  0.096457957 
   17950    225.51482    156.93377    131435.08   -1905.9533    119.36957   -2025.3229   0.11127264 
   18000    228.25225    236.03912    131389.65   -1905.0926    120.81855   -2025.9112   0.10917335 
   18050    231.42666   -267.06335    131922.72   -1904.3982    122.49883   -2026.8971   0.10419957 
   18100    231.83898   -21.442772    131669.98   -1903.9483    122.71708   -2026.6654  0.097275462 
   18150    226.82555    203.16906    131406.42   -1903.6534    120.06337   -2023.7168   0.10701462 
   18200    229.39589   -113.87295    131757.68   -1903.5384     121.4239   -2024.9623   0.11261797 
   18250    229.54968   -127.42918    131786.68   -1903.4235     121.5053   -2024.9288   0.10822245 
   18300    234.90602    173.38448     131439.5   -1903.3661    124.34052   -2027.7066  0.099931853 
   18350    231.14863   -1.9021798    131608.95   -1903.3968    122.35166   -2025.7485   0.10607976 
   18400    227.52405   -213.05094     131829.7   -1903.4342     120.4331   -2023.8673   0.11027464 
   18450    228.94251    59.582151    131540.19   -1903.5219    121.18392   -2024.7058   0.10974679 
   18500    235.14014    120.43342    131503.75   -1903.6471    124.46445   -2028.1116     0.104195 
   18550    232.28603   -171.71408    131823.67   -1903.8097    122.95371   -2026.7634   0.10388557 
   18600     227.3956   0.91622274    131652.35   -1904.0066    120.36511   -2024.3717   0.10355811 
   18650    227.58705    165.04005    131440.02   -1904.3181    120.46645   -2024.7845   0.10507717 
   18700    228.11608   -132.46768    131737.42   -1904.7857    120.74647   -2025.5322   0.10990733 
   18750    229.24251   -97.749589    131750.08    -1905.353    121.34271   -2026.6957   0.10351402 
   18800     230.3047    166.20475     131458.3   -1906.0735    121.90495   -2027.9784     0.104396 
   18850    229.85233    30.391038    131598.71   -1906.8772     121.6655   -2028.5427  0.099534739 
   18900    228.10514   -171.51985    131804.12   -1907.6272    120.74068   -2028.3679   0.10133225 
   18950    224.40388    87.170875    131516.56   -1908.2383    118.78153   -2027.0198   0.10679499 
   19000    223.48839    96.859843    131468.41    -1908.653    118.29694   -2026.9499    0.1095186 
   19050    227.04539   -161.97435    131785.62   -1908.8055    120.17973   -2028.9852  0.098141735 
   19100    227.39303   -34.195899    131656.84   -1908.6919    120.36375   -2029.0556   0.09707221 
   19150    226.50348    169.00631     131406.8   -1908.2724    119.89289   -2028.1652   0.10775601 
   19200    224.20869   -98.475348    131692.94   -1907.4648    118.67821    -2026.143   0.11251678 
   19250     227.9751   -110.49422    131779.17   -1906.2024    120.67185   -2026.8742  0.099614015 
   19300    231.41824    150.18885    131473.32   -1904.9107    122.49437    -2027.405   0.10055518 
   19350    232.81453     47.51089       131596   -1903.9508    123.23345   -2027.1842   0.10086343 
   19400    226.39899   -196.52765    131881.08   -1903.3525    119.83758   -2023.1901   0.11172498 
   19450    230.90234    89.673027    131551.95    -1903.038     122.2213   -2025.2593   0.10724976 
   19500    231.67975    165.90967     131455.5   -1902.8544    122.63279   -2025.4872   0.10255721 
   19550    226.88797    -217.4981    131884.82   -1902.7646    120.09641    -2022.861   0.10090732 
   19600    231.88407   -67.775824    131724.97   -1902.8143    122.74094   -2025.5552   0.10949846 
   19650    229.63775    271.07041    131353.02   -1902.8636    121.55192   -2024.4156   0.10996114 
   19700    228.53067   -93.840755    131764.47   -1903.0447    120.96592   -2024.0107    0.1033503 
   19750    230.70546   -215.38584    131928.87   -1903.2684    122.11708   -2025.3854  0.099418267 
   19800    231.79716    224.33121    131375.53   -1903.6246    122.69494   -2026.3195   0.10717318 
   19850    229.40472    109.49077    131525.13   -1904.0621    121.42857   -2025.4907   0.10558767 
   19900    230.29604   -329.71193    132026.04   -1904.5583    121.90037   -2026.4586   0.10344284 
   19950    226.51901     101.5083    131530.54   -1905.2011    119.90111   -2025.1023   0.10560929 
   20000    231.28853    360.46883    131277.51   -1905.8508    122.42571   -2028.2765  0.099482866 
   20050    227.10411   -317.63926    132001.37   -1906.5662    120.21082    -2026.777   0.10386166 
   20100    225.39634   -131.53376    131796.92   -1907.2381    119.30685    -2026.545   0.10222898 
   20150    227.01811    421.20201    131161.09   -1907.7399    120.16529   -2027.9052   0.10588238 
   20200    226.10685    -77.09143    131734.05   -1908.2606    119.68294   -2027.9435   0.10185606 
   20250    220.92989   -381.93427    132043.64   -1908.5055    116.94267   -2025.4482   0.10469831 
   20300    225.94728    336.19798    131251.29   -1908.6066    119.59848   -2028.2051  0.098064903 
   20350    225.55855    138.69561    131450.71    -1908.475    119.39272   -2027.8677     0.108402 
   20400    229.89719   -336.38793    132063.47   -1907.8283    121.68925   -2029.5176   0.10310023 
   20450    228.82958    75.738579    131549.07    -1906.728    121.12414   -2027.8522   0.10531412 
   20500    230.24403     317.4524    131302.57    -1905.223    121.87284   -2027.0958  0.096951246 
   20550    229.13576   -274.62615    131940.16   -1904.0595    121.28621   -2025.3457   0.10510871 
   20600    229.80253   -121.14083    131781.36   -1903.2561    121.63914   -2024.8952   0.11238464 
   20650     231.7051     256.1205    131369.76   -1902.6601    122.64621   -2025.3064   0.10923228 
   20700    230.01755   -60.403289    131720.82   -1902.3159    121.75296   -2024.0689   0.10248663 
   20750    229.64903   -161.79459    131860.15   -1902.0787    121.55789   -2023.6366   0.10075591 
   20800    233.35292    124.98285    131511.45   -1902.0283    123.51844   -2025.5467   0.11045083 
   20850     228.2896     71.60217    131569.46   -1902.0382    120.83832   -2022.8765   0.11368202 
   20900    229.64698   -161.73286    131801.49   -1902.2021    121.55681   -2023.7589     0.108437 
   20950    228.26893   -14.282449    131629.98   -1902.4792    120.82738   -2023.3066   0.10215701 
   21000    231.39291    117.13284    131516.21   -1902.9296    122.48096   -2025.4105   0.10726937 
   21050    232.99435   -103.85184     131714.2   -1903.5409    123.32864   -2026.8695   0.11053476 
   21100    225.15049   -62.050723    131688.64   -1904.2078    119.17672   -2023.3846   0.11058709 
   21150    229.42914    127.01106    131507.78   -1904.9471     121.4415   -2026.3886  0.099554526 
   21200    228.42054   -46.744834    131663.01   -1905.7245    120.90763   -2026.6321   0.10799777 
   21250    227.63777   -62.093603    131701.93   -1906.3569    120.49329   -2026.8502   0.10420556 
   21300    228.17469    76.156164    131521.15   -1906.8712    120.77749   -2027.6487   0.10797079 
   21350     224.9333    31.175183    131574.01   -1907.1825    119.06176   -2026.2443   0.10658163 
   21400    226.50743   -112.27218    131725.27   -1907.3289    119.89498   -2027.2239    0.1036827 
   21450    227.90772    34.710716    131562.36   -1907.2929    120.63618   -2027.9291   0.10353492 
   21500    225.73349    107.01309    131499.31   -1907.0214    119.48531   -2026.5067   0.10456467 
   21550    226.68951   -98.873066    131713.51   -1906.4208    119.99136   -2026.4122    0.1069564 
   21600    227.48041   -64.207039    131663.73   -1905.2304       120.41   -2025.6404   0.10953501 
   21650    229.42695    131.05149    131487.39   -1903.5012    121.44034   -2024.9416   0.10963866 
   21700    232.28197   -24.155512    131671.39    -1902.064    122.95156   -2025.0156   0.10443062 
   21750    231.66049   -111.00928    131768.13   -1901.2931     122.6226   -2023.9157   0.10500631 
   21800    235.81064    134.70909    131513.13   -1900.9938    124.81935   -2025.8131   0.11352544 
   21850    232.88445    74.841392    131569.78   -1900.9009    123.27047   -2024.1714   0.11301968 
   21900    236.12587   -141.26744    131812.29   -1900.9989    124.98622   -2025.9851   0.10199015 
   21950    233.19377    24.737855       131625   -1901.2503     123.4342   -2024.6845   0.10418732 
   22000    233.17858    163.14641    131468.35    -1901.689    123.42616   -2025.1152   0.10869995 
   22050    228.51869   -109.91582    131738.58   -1902.2669    120.95958   -2023.2265   0.11680839 
   22100    231.09235   -90.533926    131707.14   -1902.9456    122.32187   -2025.2674   0.10790211 
   22150    228.96899    160.87787    131449.91   -1903.6328    121.19793   -2024.8307   0.10290025 
   22200    231.66038    7.0786967    131628.84   -1904.3714    122.62254   -2026.9939   0.10326255 
   22250     229.2347   -157.48119    131781.85   -1905.0029    121.33858   -2026.3415   0.11185975 
   22300     229.2675    166.34405    131428.59   -1905.4819    121.35594   -2026.8379   0.11198873 
   22350    229.69235    83.169336    131496.43   -1905.8361    121.58082   -2027.4169   0.10346605 
   22400    225.50766   -269.20972    131880.01   -1906.0373    119.36578   -2025.4031   0.10289067 
   22450    226.22874    55.092023    131554.13    -1906.166    119.74747   -2025.9135    0.1103306 
   22500    225.45367    265.25529    131313.11    -1906.095     119.3372   -2025.4322   0.11092297 
   22550    228.63215   -217.73738    131844.57   -1905.9659    121.01963   -2026.9855   0.10481209 
   22600    225.77421   -173.69906    131805.95   -1905.6266    119.50687   -2025.1334   0.10548455 
   22650    225.97238    344.89465    131241.97   -1904.9927    119.61176   -2024.6045   0.10692507 
   22700    233.10252   -14.639582    131642.84   -1904.1026     123.3859   -2027.4885    0.1070478 
   22750    229.93787   -342.60467    132019.36   -1902.6518    121.71078   -2024.3625   0.10934464 
   22800    232.29742    257.78995    131381.08   -1901.2264    122.95974   -2024.1861   0.11122781 
   22850    234.86717    230.53036    131418.45   -1900.2759    124.31996   -2024.5959   0.10459886 
   22900     234.0545   -395.47677    132083.01   -1899.8516     123.8898   -2023.7414   0.11115518 
   22950    236.39561    32.029832    131645.86    -1899.794    125.12899    -2024.923   0.10377047 
   23000    232.36515    338.82054    131286.86   -1899.9151    122.99559   -2022.9107   0.11441019 
   23050    233.91017   -178.06466    131883.51   -1900.2944     123.8134   -2024.1078   0.11019628 
   23100    232.37582   -205.21311    131866.28   -1900.8047    123.00123    -2023.806   0.10814988 
   23150    232.33437    329.41093    131282.65   -1901.3767     122.9793    -2024.356   0.10144551 
   23200    229.28435   -22.527987    131670.26   -1902.1385    121.36486   -2023.5034    0.1114012 
   23250    231.36931   -273.11662    131959.58   -1902.8238    122.46847   -2025.2922   0.11281069 
   23300     233.2374    215.48879    131412.76   -1903.4603    123.45729   -2026.9176   0.10851888 
   23350     229.4693    160.59456    131473.79   -1903.9831    121.46276   -2025.4459  0.099943396 
   23400    230.95067   -276.44613    131953.48   -1904.4572    122.24688   -2026.7041    0.1038394 
   23450     225.5169    6.8508007    131600.12   -1904.8135    119.37067   -2024.1842   0.11193193 
   23500    226.85343    209.01228    131355.95   -1905.0289    120.07812   -2025.1071   0.11498556 
   23550    230.76789   -173.32177    131820.04   -1905.1933    122.15013   -2027.3434   0.10349545 
   23600    229.52688   -108.89592    131772.83   -1905.2524    121.49324   -2026.7456  0.098121013 
   23650     227.9676    185.56459    131378.87    -1905.264    120.66788   -2025.9318   0.11326538 
   23700    227.75478    4.3467918    131612.69   -1905.2005    120.55523   -2025.7558   0.11153768 
   23750    227.57466   -247.35311    131862.76   -1905.0495    120.45989   -2025.5094   0.10892288 
   23800     228.7661    108.25033    131496.06   -1904.7922    121.09054   -2025.8828   0.10122182 
   23850    228.20472     111.7671    131489.67   -1904.4477    120.79339   -2025.2411   0.10930518 
   23900    231.24742   -156.58004    131821.12   -1903.8802    122.40395   -2026.2842   0.10602811 
   23950    228.75463   -57.097881    131678.41   -1902.9064    121.08447   -2023.9908   0.11169119 
   24000    229.85416    152.28662    131431.08   -1901.4735    121.66647     -2023.14     0.111122 
   24050    232.94313   -97.374911    131751.04   -1900.0729    123.30153   -2023.3744   0.10903985 
   24100    232.28906   -149.05426    131827.47   -1899.1507    122.95531    -2022.106   0.10656281 
   24150    239.82592    158.42748    131481.72   -1898.7751    126.94473   -2025.7198   0.11230336 
   24200    237.35549     73.22642    131599.07   -1898.7351    125.63708   -2024.3722   0.10789915 
   24250     239.9355   -176.48183    131882.42   -1899.0011    127.00273   -2026.0038    0.1065115 
   24300    237.42162    88.425317    131589.16    -1899.505    125.67208   -2025.1771   0.10704083 
   24350    237.01931    195.73983    131474.39   -1900.1903    125.45913   -2025.6494   0.10525826 
   24400    233.02086   -139.64206    131836.62   -1900.9823    123.34267    -2024.325   0.10480018 
   24450    231.91241   -42.758081    131714.67   -1901.8012    122.75594   -2024.5572   0.11114089 
   24500    231.64669     190.0761    131408.26   -1902.4749     122.6153   -2025.0902   0.11261529 
   24550    229.10646   -29.672566    131701.62   -1903.0306     121.2707   -2024.3013   0.10131719 
   24600     233.3544   -161.28517    131830.61    -1903.508    123.51922   -2027.0272    0.1023535 
   24650    227.23656    206.44448    131413.42   -1903.8583    120.28092   -2024.1392    0.1112473 
   24700     229.4557    74.664806    131522.55   -1904.1963    121.45556   -2025.6519   0.11458454 
   24750    234.49641   -206.45161    131874.89   -1904.4188    124.12371   -2028.5426   0.10168912 
   24800     231.1485    37.115887     131556.2   -1904.6123    122.35159   -2026.9639   0.10260978 
   24850    228.75256    182.98215    131371.98   -1904.7522    121.08337   -2025.8355     0.109918 
   24900    225.49508   -198.21831    131838.84   -1904.8394    119.35912   -2024.1985   0.11337315 
   24950     227.4217   -154.48148    131751.13   -1904.9125    120.37892   -2025.2915   0.11098817 
   25000    229.97132    265.25209    131282.92   -1904.8712    121.72849   -2026.5997   0.10491215 
   25050    226.86423   -46.257343    131712.68   -1904.8118    120.08384   -2024.8957   0.10246714 
   25100    232.55746   -311.15887    131991.34   -1904.6758    123.09738   -2027.7732    0.1089255 
   25150    231.36641    350.01082    131249.26   -1904.3988    122.46693   -2026.8658   0.10903802 
   25200    231.68888    198.53844    131434.29   -1903.9387    122.63763   -2026.5763   0.10391112 
   25250    231.34351   -468.43995     132222.7   -1903.1517    122.45481   -2025.6065    0.1017029 
   25300    232.99913    116.77357    131508.02    -1902.388    123.33117   -2025.7192   0.10891235 
   25350    231.53382     519.1117    131086.72   -1901.4194    122.55555   -2023.9749   0.11217532 
   25400    229.41859   -436.16968    132151.34   -1900.7189    121.43591   -2022.1548   0.10911538 
   25450     234.3129   -252.61834    131930.88   -1900.2857    124.02657   -2024.3123   0.10971641 
   25500    234.19163     552.6161    131037.07    -1899.857    123.96238   -2023.8194   0.10932752 
   25550    230.68604   -102.07764    131773.61   -1899.9175     122.1068   -2022.0243   0.11025667 
   25600    233.55353   -426.20452     132132.4   -1900.0816    123.62463   -2023.7062   0.10879538 
   25650    230.22618    322.34829    131304.27   -1900.5405    121.86339   -2022.4039   0.11158356 
   25700    231.68504    121.80913    131449.89    -1901.367    122.63559   -2024.0026   0.11456967 
   25750     229.5268   -351.85627    132011.66   -1902.3056    121.49319   -2023.7988    0.1069764 
   25800    230.50391    55.858812    131561.92    -1903.412     122.0104   -2025.4224   0.10377096 
   25850     227.7246    223.12953    131338.55    -1904.285    120.53925   -2024.8243   0.11225127 
   25900    229.99593   -151.18596    131783.07   -1904.8943    121.74151   -2026.6358    0.1104479 
   25950    228.41776   -132.28467    131732.31   -1905.2558    120.90615    -2026.162   0.10860731 
   26000     227.2942    175.33652    131386.15   -1905.3866    120.31143    -2025.698   0.10363317 
   26050    227.69826   -58.216335     131641.9   -1905.4832    120.52531   -2026.0085   0.11049171 
   26100    227.98242    -143.6629    131782.32   -1905.4332    120.67572   -2026.1089   0.11004605 
   26150    233.84233     129.8156    131468.37   -1905.3445    123.77749    -2029.122   0.11059041 
   26200    231.26624    89.140529    131513.18   -1905.1445    122.41391   -2027.5584   0.10421841 
   26250    230.89496   -144.86142    131791.31   -1904.8663    122.21739   -2027.0836  0.099555148 
   26300    231.64258    20.975659    131586.56   -1904.5876    122.61312   -2027.2007   0.10976608 
   26350    231.77822    178.18538    131433.36   -1904.2073    122.68491   -2026.8922   0.11214899 
   26400    230.13477   -100.83171    131729.76   -1903.7525      121.815   -2025.5675   0.10649751 
   26450    229.05204   -90.275762     131712.9   -1903.1774    121.24189   -2024.4193   0.10276107 
   26500    229.90653    122.59023    131455.71   -1902.5364    121.69419   -2024.2306   0.11217027 
   26550      230.299     19.97778    131609.93   -1901.7699    121.90193   -2023.6719   0.11322883 
   26600    232.36344   -136.42159     131793.5   -1900.9136    122.99468   -2023.9083   0.10976644 
   26650    236.98048    112.95416    131543.81   -1900.0007    125.43858   -2025.4393   0.10485289 
   26700    234.58532    97.886722    131561.69   -1899.1714    124.17077   -2023.3421   0.10911726 
   26750     237.8116   -102.76664    131803.79   -1898.5344    125.87851   -2024.4129    0.1054716 
   26800    233.82262   -2.2376779    131650.28   -1898.1543    123.76706   -2021.9214   0.11532052 
   26850     234.7093    139.52015    131484.95   -1898.0376     124.2364    -2022.274   0.11218852 
   26900    236.72352   -96.759954    131765.46   -1898.3276    125.30256   -2023.6301   0.10864803 
   26950    235.95549   -90.506968    131764.62   -1899.2293    124.89603   -2024.1254   0.10839777 
   27000    231.83653    147.48007    131454.76    -1900.868    122.71578   -2023.5838   0.11205244 
   27050    227.75687     33.08421    131620.31   -1902.5131    120.55633   -2023.0694   0.10811656 
   27100     228.2712   -195.47906    131849.09    -1903.615    120.82858   -2024.4436   0.10998301 
   27150    229.91296    120.06125     131502.8   -1904.2695    121.69759    -2025.967   0.10890677 
   27200    229.48083    157.38074     131480.5   -1904.7025    121.46886   -2026.1714   0.10215682 
   27250    232.05288   -225.26161    131892.68   -1905.0561     122.8303   -2027.8864   0.10181861 
   27300    232.39186    6.0380196    131634.03   -1905.3423    123.00973    -2028.352   0.10778602 
   27350    224.79768    279.32184    131328.79   -1905.4786    118.98997   -2024.4686   0.11161346 
   27400    226.08734   -181.37201    131838.84   -1905.6091    119.67262   -2025.2817   0.10090536 
   27450    232.92871   -232.10249    131893.85   -1905.6676     123.2939   -2028.9615   0.10101538 
   27500    230.36245    341.77148    131265.75   -1905.5657    121.93552   -2027.5012   0.10734825 
   27550    227.22779    56.235477    131607.83   -1905.4415    120.27628   -2025.7178   0.11024326 
   27600    230.71767   -407.02971    132113.22   -1905.1396    122.12355   -2027.2632   0.10431809 
   27650    229.04162    214.99762    131399.13   -1904.7737    121.23638     -2026.01   0.10081409 
   27700    226.59735    279.83803    131319.85   -1904.2633    119.94258   -2024.2059   0.10538694 
   27750    228.54639   -475.18842    132167.27   -1903.6767    120.97424   -2024.6509   0.11254944 
   27800     232.0874   -8.1619958    131690.22   -1903.0783    122.84857   -2025.9268   0.10672881 
   27850    229.53601    490.86624    131137.93   -1902.2873    121.49807   -2023.7854   0.10451131 
   27900    230.43534   -248.42487    131971.96   -1901.7522     121.9741   -2023.7263   0.10364319 
   27950    229.29775   -301.17672    132008.19   -1901.2442    121.37195   -2022.6162    0.1104222 
   28000    232.80721    427.91088    131187.78   -1900.8192    123.22958   -2024.0487   0.11104373 
   28050    230.70962    10.387916    131657.11   -1900.6396    122.11928   -2022.7589   0.10836967 
   28100    230.51541   -379.58481    132108.91   -1900.5377    122.01648   -2022.5542   0.10603775 
   28150    232.46153    201.10731    131460.75   -1900.7658    123.04661   -2023.8124    0.1048841 
   28200    231.94037    189.93407    131449.45   -1901.3095    122.77075   -2024.0803    0.1102946 
   28250    231.53991   -258.81776    131925.99   -1902.3641    122.55878   -2024.9229   0.10710779 
   28300     228.6127    4.0662951    131667.41    -1903.779    121.00934   -2024.7884   0.10422029 
   28350    230.79163    207.28819    131423.01   -1905.0976    122.16269   -2027.2603   0.10546285 
   28400    227.96643   -112.74868    131724.05   -1905.9901    120.66726   -2026.6573   0.10663227 
   28450    226.88832   -124.29774    131749.28   -1906.4661    120.09659   -2026.5627    0.1029396 
   28500    227.70576    98.383022    131494.94   -1906.7189    120.52928   -2027.2482   0.10630266 
   28550    228.15143    11.310908    131606.17   -1906.8052    120.76518   -2027.5704   0.11036801 
   28600    230.19072   -104.64794    131767.06   -1906.6985    121.84462   -2028.5431   0.10071264 
   28650    232.05039    88.521757    131571.83   -1906.4479    122.82898   -2029.2769  0.097430419 
   28700    227.39632    43.602171    131561.85   -1906.0916    120.36549   -2026.4571   0.10850906 
   28750    227.05559   -78.734136    131731.52   -1905.5564    120.18513   -2025.7415   0.10866758 
   28800     230.6299    3.3710418    131658.63   -1904.9268    122.07709   -2027.0039   0.10435157 
   28850    233.11245    98.474772    131555.44   -1904.1992    123.39115   -2027.5903   0.09932311 
   28900    229.81954   -58.561982    131707.86   -1903.4687    121.64815   -2025.1169    0.1041467 
   28950      231.481   -103.58985     131725.1   -1902.8568    122.52759   -2025.3844   0.11067425 
   29000     229.7871    80.266153    131562.07   -1902.2999    121.63097   -2023.9308   0.11031908 
   29050    230.41816   -4.7226721    131651.99   -1901.9121    121.96501   -2023.8772   0.10654561 
   29100    231.64939   -93.505931    131774.94   -1901.6716    122.61672   -2024.2883   0.10020521 
   29150     235.1815    56.286341    131610.47   -1901.6323    124.48634   -2026.1186   0.10772453 
   29200    233.49149     95.42195    131546.54   -1901.7358    123.59178   -2025.3276   0.11467193 
   29250    232.78462   -54.961648    131745.87   -1901.8816    123.21762   -2025.0992   0.10239393 
   29300     229.3895    -48.53965    131708.69   -1902.2362    121.42052   -2023.6568   0.10410042 
   29350    233.20663     110.9401    131490.43   -1902.7947      123.441   -2026.2357   0.10896099 
   29400    230.66042   -12.072485    131649.55   -1903.5933    122.09324   -2025.6865   0.10790053 
   29450    228.95106   -134.37537    131772.63   -1904.8658    121.18844   -2026.0542   0.10673081 
   29500    231.65399    103.91529    131496.78   -1906.6197    122.61916   -2029.2389   0.10363611 
   29550     226.5297    91.272357    131496.82   -1908.0554    119.90677   -2027.9622   0.10452622 
   29600    226.08521   -201.59035    131774.18   -1908.7053    119.67149   -2028.3768   0.10538524 
   29650    223.58754    15.768299    131567.29    -1908.808    118.34942   -2027.1574   0.10706666 
   29700    228.23608    183.41901    131376.67   -1908.6552    120.80999   -2029.4652   0.10523183 
   29750    228.23769   -130.01467    131750.98   -1908.3128    120.81084   -2029.1237   0.10372466 
   29800    225.98824   -124.94642    131744.36   -1907.7601    119.62016   -2027.3802    0.1063195 
   29850    224.20847    238.88865     131331.2    -1907.005    118.67809   -2025.6831   0.10416793 
   29900    229.08912   -30.123018    131628.74    -1906.241    121.26152   -2027.5025   0.10561785 
   29950    228.19733   -261.80434     131901.8   -1905.3845    120.78948    -2026.174   0.11056875 
   30000     230.3264    213.42354    131396.27   -1904.5847    121.91644   -2026.5012   0.10834564 
   30050    230.29133    168.05394    131437.96   -1903.8913    121.89787   -2025.7892   0.10418005 
   30100    228.71359   -368.78325    132006.25   -1903.3135    121.06274   -2024.3762   0.10639826 
   30150    229.21131   -3.7518751    131611.88    -1902.897     121.3262   -2024.2232    0.1138955 
   30200    230.32246    320.08241    131230.22   -1902.4901    121.91435   -2024.4045   0.11432918 
   30250    229.87766   -184.01691    131866.02   -1902.2413    121.67891   -2023.9202   0.10360831 
   30300    236.41097   -223.96229    131887.04   -1902.1271    125.13712   -2027.2643   0.10212529 
   30350    232.96903    337.87331    131238.15   -1902.0739    123.31524   -2025.3891   0.11129385 
   30400    228.42521    16.079209    131608.18   -1902.1918     120.9101   -2023.1019   0.11460011 
   30450     234.3135   -302.90616    132004.83   -1902.3775    124.02689   -2026.4044   0.10484251 
   30500    231.42919    255.84828    131405.93   -1902.7525    122.50017   -2025.2527   0.10033262 
   30550    232.67613    241.94443    131399.25   -1903.4398     123.1602      -2026.6   0.10611816 
   30600    234.67125   -298.46413    131975.48   -1904.4038    124.21625   -2028.6201   0.10832679 
   30650    225.05216   -3.5520964    131616.13   -1905.5217    119.12467   -2024.6464   0.10902708 
   30700    229.69686    316.11583    131275.42   -1906.5457    121.58321   -2028.1289   0.10064686 
   30750      225.104   -191.06251    131825.16   -1907.3635    119.15211   -2026.5156   0.10414252 
   30800    227.40029   -163.36903    131784.06   -1907.8301    120.36759   -2028.1977   0.10475923 
   30850    222.03497    270.47604    131294.55   -1907.9278    117.52761   -2025.4554   0.10894313 
   30900    227.74446   -14.610412    131608.52   -1907.8981    120.54977   -2028.4479   0.10386795 
   30950    227.79707   -240.83796    131880.96   -1907.6151    120.57761   -2028.1927    0.1032373 
   31000    231.53094    165.70107    131431.28   -1907.2112    122.55403   -2029.7652    0.1037493 
   31050    228.45974    149.16986    131446.29   -1906.7037    120.92838   -2027.6321   0.10785539 
   31100    229.59887   -198.77565    131853.75   -1906.1451    121.53134   -2027.6764   0.10218808 
   31150     227.2063   -25.847693     131638.8   -1905.6493    120.26491   -2025.9142   0.10707941 
   31200     226.7073    193.38493    131391.65   -1905.1541    120.00077   -2025.1549   0.10848924 
   31250    227.34845   -142.53836    131745.08   -1904.8208    120.34015   -2025.1609   0.10710194 
   31300     229.8037   -139.78199    131775.84   -1904.5081    121.63976   -2026.1478   0.10299926 
   31350    227.39481    143.57333    131452.92   -1904.2591    120.36469   -2024.6238   0.11098993 
   31400     226.7355    2.4029113    131602.88   -1904.0626     120.0157   -2024.0783   0.11113558 
   31450     231.7117   -167.20738    131806.41   -1903.8906    122.64971   -2026.5403   0.10299161 
   31500    230.70669    84.603798    131541.99   -1903.7403    122.11773    -2025.858   0.10352355 
   31550    231.02345    126.68997    131505.56   -1903.6378     122.2854   -2025.9232   0.10662217 
   31600    231.50282   -138.73392    131782.52   -1903.5702    122.53914   -2026.1093   0.11132655 
   31650    233.96125    20.208421    131630.33   -1903.5152    123.84044   -2027.3556   0.10465197 
   31700    233.26586    174.51261    131465.64   -1903.4677    123.47236     -2026.94   0.10310378 
   31750    233.88453   -45.247543    131721.92   -1903.4799    123.79983   -2027.2797  0.098802209 
   31800    233.88026   -119.77982    131754.86   -1903.5673    123.79757   -2027.3648   0.11146933 
   31850    231.91705    159.33562     131442.4   -1903.6564     122.7584   -2026.4148   0.11264985 
   31900    230.06471    51.554785    131597.03   -1903.8471    121.77792    -2025.625   0.10192037 
   31950    233.47178   -193.67121    131837.37   -1904.2306    123.58135    -2027.812   0.10047303 
   32000    230.74704    80.634778    131534.67   -1904.7313    122.13909   -2026.8704   0.10921364 
   32050    225.42385    139.09278    131458.01   -1905.3127    119.32142   -2024.6341   0.11028969 
   32100    227.01511   -166.29913    131790.73   -1905.9221    120.16371   -2026.0858   0.10486335 
   32150    227.73792   -24.340419    131651.77   -1906.4836     120.5463   -2027.0299   0.10158608 
   32200    225.61477    169.13364    131403.85    -1906.916    119.42248   -2026.3385   0.10739959 
   32250    223.36077   -88.122645    131682.63   -1907.2031    118.22939   -2025.4325   0.10666811 
   32300    226.67994    -166.5396    131774.12   -1907.3604    119.98629   -2027.3467   0.10716388 
   32350    224.27694    166.71496    131433.32   -1907.2755    118.71434   -2025.9898   0.10574379 
   32400    229.09234    83.297697    131551.43   -1907.0342    121.26323   -2028.2975   0.10093858 
   32450    227.79765   -222.84256    131850.59   -1906.5372    120.57792   -2027.1152   0.10667605 
   32500    224.75834     124.5616    131518.93   -1905.7454    118.96915   -2024.7146   0.10421603 
   32550    232.56115    178.69707    131443.52   -1904.8297    123.09933    -2027.929   0.10362004 
   32600    229.94127    -192.2849    131847.45   -1903.8506    121.71258   -2025.5632   0.10709625 
   32650    230.86658    -43.46558    131672.73   -1903.0299    122.20236   -2025.2323   0.10723362 
   32700    230.75242    215.59474    131375.29   -1902.3994    122.14194   -2024.5413   0.10399001 
   32750    232.77788   -147.23499    131778.52   -1902.0772    123.21406   -2025.2913   0.10615402 
   32800    231.51475   -163.74461    131840.48   -1901.8744    122.54546   -2024.4199   0.11057222 
   32850    237.15483    257.88968    131373.97   -1901.8389    125.53086   -2027.3697    0.1069443 
   32900    232.71011    64.616252    131612.39   -1901.9209    123.17819   -2025.0991   0.10023246 
   32950    231.36955   -289.61606    131974.38   -1902.1078     122.4686   -2024.5764   0.10472604 
   33000    231.68339    157.86448    131484.79   -1902.4138    122.63472   -2025.0485   0.10799079 
   33050    227.18797    187.60458    131411.53   -1902.7513     120.2552   -2023.0065   0.11547174 
   33100    228.04437   -268.01421    131928.58   -1903.1595    120.70852    -2023.868   0.10528995 
   33150    225.26449   -51.448177    131688.31   -1903.6135    119.23707   -2022.8506   0.10307599 
   33200    228.15806    275.81045    131306.17   -1904.0506    120.76869   -2024.8193    0.1064519 
   33250    228.06275   -155.26133    131774.43   -1904.5726    120.71824   -2025.2908   0.11315542 
   33300     226.3393   -214.60114    131859.68   -1904.9632    119.80598   -2024.7692   0.10548248 
   33350    229.03337    299.52706     131310.6   -1905.3235    121.23201   -2026.5555  0.099208809 
   33400    231.82566    47.979666    131568.77   -1905.7656    122.71002   -2028.4756   0.10313853 
   33450    230.32994   -311.59432    131947.71   -1906.1478    121.91831   -2028.0661   0.10846126 
   33500    229.37149    194.89448    131423.11   -1906.6796    121.41098   -2028.0906   0.10426356 
   33550    224.69798    220.20423    131368.42   -1907.6004     118.9372   -2026.5376   0.10458331 
   33600    230.09986   -250.04247    131896.23   -1908.9033    121.79652   -2030.6999  0.099499432 
   33650    225.53251   -12.981634    131617.98    -1910.063    119.37893    -2029.442    0.1011184 
   33700    226.02719    276.30276       131251   -1910.7654    119.64078   -2030.4062   0.10790664 
   33750    223.02495   -116.04341    131730.04   -1911.0316    118.05163   -2029.0833   0.10014379 
   33800     225.8414   -197.69274    131795.46    -1910.914    119.54243   -2030.4565   0.10202209 
   33850    224.03186     293.5341    131282.36    -1910.339    118.58461   -2028.9236   0.10326871 
   33900    229.52859    59.254431    131540.74   -1909.4809    121.49414    -2030.975   0.10138235 
   33950    224.67849   -247.91838    131882.99   -1908.3478    118.92688   -2027.2747  0.099765552 
   34000    226.02292    130.26016    131455.45   -1907.3127    119.63852   -2026.9512   0.10839676 
   34050    228.21656    196.66899    131390.75   -1906.4382    120.79966   -2027.2379   0.10632179 
   34100    228.28436     -227.951    131874.64   -1905.7385    120.83555   -2026.5741     0.104318 
   34150    233.11854   -34.775698    131669.02   -1905.1698    123.39437   -2028.5642   0.09960676 
   34200    229.49467    256.35327    131349.09   -1904.6147    121.47619   -2026.0909   0.10937077 
   34250    234.69397   -110.89257     131736.6   -1904.1883    124.22828   -2028.4166   0.10681021 
   34300    228.61425   -172.68572    131825.45   -1903.6976    121.01016   -2024.7078   0.10562427 
   34350     233.1133    186.61217    131432.88   -1903.3074     123.3916    -2026.699   0.10334814 
   34400    230.55321    56.416692    131584.58   -1902.9789    122.03649   -2025.0154   0.10307357 
   34450    227.68073   -213.85491     131843.2   -1902.7241    120.51603   -2023.2401   0.11420138 
   34500    228.34567    71.538191    131548.62    -1902.502      120.868     -2023.37   0.11186156 
   34550    229.41968    147.91781    131492.43   -1902.3213    121.43649   -2023.7578   0.10315262 
   34600    228.53647   -152.75169    131807.07   -1902.2743    120.96899   -2023.2433   0.10407266 
   34650    228.48005   -68.386951       131686   -1902.3311    120.93913   -2023.2702   0.11296936 
   34700    230.33167     139.6944    131449.08    -1902.483    121.91923   -2024.4022   0.11111576 
   34750    231.42232   -45.564105    131688.98   -1902.8235    122.49653     -2025.32   0.10421853 
   34800    230.73922   -108.07472    131772.24    -1903.407    122.13495    -2025.542   0.10142769 
   34850    230.55775    114.31171    131501.31   -1904.2965     122.0389   -2026.3354   0.10842474 
   34900    227.60244    76.180794    131550.82   -1905.2652    120.47459   -2025.7398   0.10530152 
   34950    229.08466   -141.27813    131748.06    -1906.241    121.25916   -2027.5002   0.10731375 
   35000    225.47063    32.745656    131554.33   -1906.9607    119.34618   -2026.3069    0.1047982 
   35050     227.6663     113.3406    131485.14   -1907.4402    120.50839   -2027.9486   0.10265936 
   35100    229.21507   -65.744614    131706.68   -1907.7004    121.32819   -2029.0286   0.10517022 
   35150    226.49377   -19.968491    131641.19   -1907.6912    119.88775   -2027.5789   0.10359341 
   35200    229.66605    102.40215    131485.61   -1907.5124     121.5669   -2029.0793   0.10433155 
   35250    228.25133   -34.444243    131663.59   -1907.0952    120.81806   -2027.9133    0.1028105 
   35300    230.15185   -65.400766     131702.4   -1906.5027    121.82404   -2028.3267   0.10486251 
   35350    231.37461    126.57196    131508.93   -1905.6864    122.47127   -2028.1576   0.10149614 
   35400    225.51104    5.6543583    131627.09   -1904.7883    119.36757   -2024.1558   0.10640801 
   35450    230.53656   -114.09177    131748.29   -1904.0053    122.02768    -2026.033   0.10883421 
   35500    227.13562    49.278516    131580.66   -1903.3605    120.22749    -2023.588   0.10835463 
   35550    232.42586    22.578906    131598.36     -1903.03    123.02773   -2026.0577   0.10534255 
   35600    232.39641   -96.048038    131758.32   -1902.8562    123.01214   -2025.8684   0.10549692 
   35650    230.79382    21.543135    131646.28   -1902.8015    122.16385   -2024.9653   0.10690398 
   35700    231.50219    73.071054    131561.95   -1902.8384    122.53881   -2025.3772   0.10961702 
   35750    233.69981   -36.073964    131715.75   -1902.9098    123.70205   -2026.6119   0.10259762 
   35800    233.73074   -46.352403    131710.46    -1903.051    123.71842   -2026.7695   0.10045222 
   35850    228.60835    67.725657    131572.79   -1903.2423    121.00704   -2024.2493    0.1073514 
   35900    230.86806    5.0040391    131655.32    -1903.499    122.20315   -2025.7022   0.10958095 
   35950    228.79786   -79.280943    131742.09   -1903.7662    121.10735   -2024.8736   0.10508594 
   36000    233.51497    61.080109    131604.37   -1904.0979    123.60421   -2027.7021  0.096897648 
   36050    228.28469    22.035826    131600.53   -1904.4996    120.83572   -2025.3353    0.1092693 
   36100    229.13112    -71.61087    131696.38   -1904.9282    121.28375    -2026.212   0.11004215 
   36150    230.27577    31.033123    131628.11   -1905.3714    121.88964   -2027.2611   0.10164979 
   36200    229.40325      29.2349     131581.1   -1905.9151    121.42779   -2027.3429   0.10405842 
   36250    227.61891   -35.551737    131654.79   -1906.5181    120.48331   -2027.0014   0.10421391 
   36300    225.57463   -39.002215     131646.9   -1907.1623    119.40123   -2026.5635    0.1061779 
   36350    223.31984    24.010299    131560.44   -1907.8176    118.20772   -2026.0253   0.10868507 
   36400    225.24609   -4.3579401    131611.04   -1908.4407    119.22732    -2027.668   0.10356175 
   36450    225.64115   -55.460161    131668.03   -1908.9348    119.43644   -2028.3712    0.1007107 
   36500    222.90451    9.7500106    131566.51   -1909.2777    117.98788   -2027.2656   0.10611512 
   36550     224.5355    64.301463    131549.73   -1909.3795     118.8512   -2028.2307   0.10693571 
   36600    227.41028   -30.956537    131665.34   -1909.1597    120.37288   -2029.5326    0.1016567 
   36650    227.15494     27.16239    131609.22   -1908.5065    120.23772   -2028.7442   0.10144787 
   36700    232.04823    112.83388    131505.93   -1907.3796    122.82784   -2030.2074   0.10479412 
   36750    226.99221   -32.677848    131677.34   -1905.9852    120.15158   -2026.1368   0.10497129 
   36800    230.54481   -101.47534    131748.78   -1904.8553    122.03205   -2026.8873   0.10262189 
   36850    229.24141    120.54008    131526.71   -1904.0541    121.34213   -2025.3963   0.10978661 
   36900    231.47566    61.209877    131599.81   -1903.5225    122.52476   -2026.0473    0.1061507 
   36950    229.32276   -164.66773     131838.7   -1903.1281    121.38519   -2024.5133   0.10341808 
   37000    229.19948    28.945665    131616.14   -1902.8676    121.31993   -2024.1875   0.10690556 
   37050    234.85039     150.6479    131480.66   -1902.7232    124.31108   -2027.0343   0.10857335 
   37100    232.27076    -126.9239    131808.93   -1902.6166    122.94563   -2025.5622   0.10733157 
   37150    230.85768   -95.766014    131754.83   -1902.6223    122.19766   -2024.8199   0.10824065 
   37200    229.60937    211.40116    131419.81    -1902.654     121.5369   -2024.1909   0.10275446 
   37250    232.81555   -79.397058    131718.74   -1902.9056      123.234   -2026.1396   0.10614045 
   37300    231.08376   -234.27254    131892.08   -1903.2097    122.31733    -2025.527   0.11214162 
   37350     230.1786    218.54808    131421.02   -1903.6398     121.8382    -2025.478   0.10849161 
   37400    231.14627    103.00187    131529.68   -1904.2381    122.35041   -2026.5885   0.10125017 
   37450    229.64411   -257.69652     131948.4   -1904.9415    121.55529   -2026.4968  0.099758208 
   37500    227.45731    40.481619    131562.48   -1905.7917    120.39777   -2026.1894   0.11122143 
   37550    227.67135     253.6069    131321.37   -1906.5701    120.51106   -2027.0812   0.11036726 
   37600    228.63511   -242.70878    131880.66    -1907.254     121.0212   -2028.2752   0.10311452 
   37650    224.20771    -145.7563     131768.6   -1907.7453    118.67769    -2026.423   0.10344152 
   37700    226.67442    304.12696    131241.13   -1908.0211    119.98337   -2028.0045    0.1070678 
   37750    219.65214   -100.74769    131681.55   -1908.1346    116.26634   -2024.4009   0.11089487 
   37800    220.20359    -314.6235    131948.29   -1907.9405    116.55823   -2024.4987   0.10925031 
   37850    227.39299    277.54353    131331.51   -1907.4283    120.36372   -2027.7921   0.10159904 
   37900      228.749    179.51594    131457.41   -1906.4507    121.08149   -2027.5321    0.1028691 
   37950    230.53069   -326.54003    132013.38   -1904.8967    122.02457   -2026.9213   0.10517319 
   38000    230.66189    62.781581    131582.63   -1903.4004    122.09402   -2025.4944   0.10799668 
   38050    229.81615    278.00503    131321.49   -1902.4343    121.64635   -2024.0807   0.11008157 
   38100    234.17999   -177.90542    131883.55   -1902.0324    123.95622   -2025.9887   0.10636106 
   38150    232.88808   -148.76022    131814.46   -1901.8624    123.27239   -2025.1348   0.10699249 
   38200     230.5092    283.48502     131331.4   -1901.7808     122.0132    -2023.794   0.10627717 
   38250    232.49251   -23.463024    131688.14   -1901.9349      123.063   -2024.9979   0.10897073 
   38300    229.61387   -242.23049    131905.05   -1902.1316    121.53928   -2023.6709   0.11054373 
[...]
   90800     225.7619   -47.445373    131598.03   -1908.9342    119.50036   -2028.4346   0.10900917 
   90850     223.8333   -110.70976    131677.08   -1909.0016    118.47951   -2027.4811   0.11195261 
   90900    230.54891    136.18521    131468.37   -1908.8053    122.03422   -2030.8395   0.10229066 
   90950    230.51961    51.223338    131542.11   -1908.4771    122.01871   -2030.4958   0.10608651 
   91000    226.66431   -71.429696    131711.95   -1907.9769    119.97802   -2027.9549     0.105382 
   91050     227.3406     43.35803    131562.05   -1907.4099    120.33599   -2027.7459   0.11381947 
   91100    227.14554    122.07253    131446.86   -1906.7122    120.23275    -2026.945   0.10818517 
   91150     226.1247   -101.67015    131712.12   -1905.9873    119.69239   -2025.6797   0.10511909 
   91200    229.42364   -71.230316    131684.14    -1905.301    121.43859   -2026.7396   0.10953577 
   91250    228.88626    195.44544    131413.61    -1904.632    121.15414   -2025.7862   0.11668295 
   91300     228.2222   -22.932412    131628.27   -1904.0455    120.80264   -2024.8482   0.11059884 
   91350    227.11217   -185.08411    131822.61   -1903.5341    120.21508   -2023.7491   0.10691065 
   91400    232.76319    146.19363    131470.86   -1903.1521    123.20628   -2026.3584   0.10671109 
   91450    229.65704    117.76803    131481.16    -1902.845    121.56213   -2024.4071    0.1178077 
   91500    232.08387   -215.21884    131847.91     -1902.61     122.8467   -2025.4567   0.11459426 
   91550    227.59214   -28.148025    131609.54   -1902.4606    120.46914   -2022.9298   0.11279195 
   91600    230.70245    244.66071    131341.24   -1902.3503    122.11549   -2024.4658   0.10627616 
   91650    230.32992   -217.26554    131830.07   -1902.4413     121.9183   -2024.3596   0.11537501 
   91700    227.61987   -176.71063    131786.27   -1902.5948    120.48382   -2023.0786   0.12050097 
   91750    229.72266    310.86303    131268.37   -1902.8551    121.59687    -2024.452   0.11207575 
   91800    231.00448   -25.433139    131645.49    -1903.446    122.27536   -2025.7213   0.10503466 
   91850    229.72364   -316.96662    131971.39   -1904.3699    121.59739   -2025.9673   0.10883561 
   91900    229.33129    235.95401    131338.19   -1905.6064    121.38971   -2026.9961   0.11468726 
   91950    227.40597    206.81231    131347.04    -1906.774     120.3706   -2027.1446   0.10975575 
   92000    226.13825   -346.72496    131997.05   -1907.5866    119.69956   -2027.2861   0.10724183 
   92050    230.13463    25.376225    131570.05    -1908.107    121.81493   -2029.9219   0.10491005 
   92100    225.65997    360.47276    131175.68   -1908.2053     119.4464   -2027.6517   0.11116417 
   92150    223.39532   -211.71341    131831.46   -1908.1528    118.24768   -2026.4005     0.107525 
   92200    221.30192   -219.78291    131836.91   -1907.8446     117.1396   -2024.9842   0.11283719 
   92250    230.94652      355.365    131212.56   -1907.2934    122.24468   -2029.5381   0.10747817 
   92300    227.93871    41.612998    131583.13   -1906.6472    120.65258   -2027.2998   0.10746009 
   92350    228.30947   -298.53403    131954.06   -1905.8664    120.84883   -2026.7152   0.10581717 
   92400    228.51478    152.03036    131424.52   -1905.1626    120.95751   -2026.1201   0.11101357 
   92450    231.23278    211.95637    131385.13   -1904.5633     122.3962   -2026.9595   0.11060667 
   92500    226.18715   -297.96029    131913.86   -1904.1284    119.72545   -2023.8539   0.11726857 
   92550    231.87728    12.021836    131622.27   -1903.8244    122.73735   -2026.5618   0.10137172 
   92600    229.03149    216.70475    131381.27   -1903.6006    121.23101   -2024.8316   0.10966508 
   92650    232.33227   -130.53199    131765.22   -1903.5233    122.97818   -2026.5015   0.11210584 
   92700    227.98525   -118.01189    131765.26   -1903.4344    120.67722   -2024.1116   0.11597639 
   92750    228.80393    158.33488    131442.92   -1903.3796    121.11056   -2024.4902   0.10903587 
   92800    232.13262    14.081146    131627.01   -1903.3939    122.87251   -2026.2664   0.10189477 
   92850     227.5749   -121.91325    131802.75   -1903.4266    120.46001   -2023.8866   0.11121662 
   92900    231.30263    98.960847    131541.94   -1903.5421    122.43318   -2025.9753   0.11447864 
   92950    229.61577    100.18836    131550.12   -1903.6352    121.54028   -2025.1755    0.1101467 
   93000    231.15346   -130.12578    131765.82   -1903.8358    122.35422   -2026.1901   0.10397445 
   93050    231.51049    -11.76275    131642.01   -1904.0949     122.5432   -2026.6381      0.10488 
   93100    226.47185    111.15169    131505.49   -1904.4816    119.87615   -2024.3578   0.11562027 
   93150    230.28306   -52.812171    131646.84   -1905.1226     121.8935   -2027.0161   0.11336697 
   93200    227.96999   -72.732773    131674.68   -1905.9339    120.66914   -2026.6031   0.10670559 
   93250    226.38643    11.426669    131535.61    -1906.894    119.83093    -2026.725   0.10831715 
   93300    225.16918    50.698461    131549.35   -1907.7545    119.18662   -2026.9411   0.10686052 
   93350    220.11356   -93.909005    131649.33   -1908.4292    116.51058   -2024.9397    0.1173861 
   93400    223.39343    29.427244    131545.63   -1908.8054    118.24667   -2027.0521   0.10594789 
   93450    228.09137    49.583755     131528.4   -1908.9391    120.73339   -2029.6725   0.10666093 
   93500    224.70225   -31.291182     131626.6   -1908.7163    118.93946   -2027.6558    0.1062308 
   93550     228.6645    2.1329101    131587.08   -1908.2421    121.03676   -2029.2789   0.10832121 
   93600    228.50346    61.301895    131532.44   -1907.3932    120.95152   -2028.3447   0.10901601 
   93650    227.53607   -5.0350552    131603.99   -1906.3217    120.43946   -2026.7612   0.11109684 
   93700     228.9303   -30.150491    131617.97   -1905.2628    121.17745   -2026.4402   0.11130674 
   93750    229.88587    66.326704    131535.47    -1904.426    121.68326   -2026.1092   0.10644437 
   93800     231.4453   -11.803383    131605.44   -1903.9208    122.50869   -2026.4295   0.10880284 
   93850    229.78523   -38.788455    131637.36   -1903.6157    121.62999   -2025.2457   0.11436995 
   93900    230.97037    26.042379     131544.4   -1903.4312     122.2573   -2025.6885   0.11621756 
   93950    228.65225   -12.190009    131591.68   -1903.2936    121.03027   -2024.3238   0.11353536 
   94000    233.00432   -75.426188     131670.8   -1903.2255    123.33391   -2026.5594   0.10487997 
   94050    231.33968    7.6105575    131585.24   -1903.2098    122.45279   -2025.6626   0.11017255 
   94100     229.0807    66.683357     131538.3   -1903.2362    121.25707   -2024.4932   0.11824877 
   94150      230.869   -6.5157814    131647.47   -1903.2997    122.20365   -2025.5033   0.11115292 
   94200    235.07706   -18.323407    131637.47   -1903.4352    124.43106   -2027.8663    0.1046109 
   94250     229.3181    78.334941    131524.59   -1903.5997    121.38272   -2024.9824   0.10526318 
   94300    228.73677   -27.424207    131614.52   -1903.8973    121.07501   -2024.9723   0.11701324 
   94350    230.63651   -50.785172    131647.29    -1904.261    122.08058   -2026.3416   0.11591598 
   94400    227.58733      39.6014    131541.52   -1904.7086    120.46659   -2025.1752   0.10902399 
   94450    229.76634    31.254682    131565.27     -1905.32    121.61999     -2026.94   0.10407184 
   94500    229.03071   -72.616562    131669.37   -1906.0419     121.2306   -2027.2725    0.1093989 
   94550    227.40204    32.129555    131553.97   -1906.7746    120.36852   -2027.1432   0.11396444 
   94600    229.77681    58.742836    131502.32   -1907.4801    121.62553   -2029.1056   0.10924537 
   94650    226.54907   -115.92889    131680.46   -1908.0186    119.91702   -2027.9357   0.10581385 
   94700    224.06612   -36.408617    131610.19   -1908.3756    118.60275   -2026.9783   0.10822277 
   94750    225.58144    131.61658    131433.67   -1908.5132    119.40483   -2027.9181   0.10953654 
   94800    228.26671   -28.386894    131608.66     -1908.42     120.8262   -2029.2462   0.11118739 
   94850    227.99335   -98.654361    131703.66   -1907.9501    120.68151   -2028.6316   0.10660637 
   94900    228.08181    101.31141    131464.44   -1907.0498    120.72833   -2027.7781   0.10895584 
   94950    228.64358     59.75243    131504.52    -1905.733    121.02569   -2026.7586   0.10881577 
   95000    228.89894   -150.34318    131778.01   -1904.3863    121.16085   -2025.5472   0.11112103 
   95050     231.8501    30.589784    131583.17   -1903.4471    122.72296   -2026.1701   0.11137911 
   95100    233.80261     159.8402       131425   -1902.8855    123.75647   -2026.6419   0.11296743 
   95150    228.25553   -133.60241    131764.74   -1902.5658    120.82029   -2023.3861   0.11368963 
   95200    231.15611   -105.17986    131725.05   -1902.4028    122.35562   -2024.7584   0.10640255 
   95250    230.32976    162.56548    131408.47   -1902.3503    121.91822   -2024.2685   0.11125837 
   95300    232.80309   -5.3435268    131630.54   -1902.4334     123.2274   -2025.6608   0.11614992 
   95350    230.03427   -168.76668    131819.96   -1902.5418    121.76181   -2024.3036   0.11346859 
   95400    232.35548    164.29445    131456.42   -1902.7689    122.99047   -2025.7594   0.10567981 
   95450     234.1757    113.30876    131492.15   -1903.1385    123.95395   -2027.0924   0.10365196 
   95500    231.19192   -216.31799    131855.61   -1903.6015    122.37458   -2025.9761   0.11411461 
   95550    231.39553    32.732007    131558.27   -1904.1811    122.48235   -2026.6634   0.11725413 
   95600    229.13873    247.37708    131349.69   -1904.7521    121.28778   -2026.0399   0.10728106 
   95650    226.11862   -195.67736    131813.81   -1905.4321    119.68917   -2025.1213   0.10589451 
   95700     228.8729   -67.143116    131700.33    -1906.133    121.14707   -2027.2801   0.10545521 
   95750    228.11497    265.83861    131279.72    -1906.754    120.74589   -2027.4999   0.11805318 
   95800    222.47059    -51.62252    131627.97   -1907.2662     117.7582   -2025.0244   0.11291196 
   95850     228.2106   -218.71212    131850.02   -1907.6484     120.7965   -2028.4449   0.10188521 
   95900    223.34153    164.30578    131364.58   -1907.8924     118.2192   -2026.1116   0.10933312 
   95950    223.45652    116.77344     131423.3   -1907.9921    118.28007   -2026.2722   0.11496192 
   96000    224.85656   -266.16244    131883.58   -1907.8286    119.02114   -2026.8498   0.11325813 
   96050    229.26172    28.005116     131564.2   -1907.2557    121.35288   -2028.6085   0.10535215 
   96100    229.47002    255.60725    131324.68   -1906.1201    121.46314   -2027.5832   0.10801293 
   96150    231.11735   -183.75812       131808   -1904.7686     122.3351   -2027.1037   0.11070701 
   96200    226.84649   -150.79961    131751.55   -1903.5428    120.07445   -2023.6172   0.11402588 
   96250    234.30671    279.08297    131308.91    -1902.662    124.02329   -2026.6853   0.11097245 
   96300    233.09456   -33.346566     131668.3   -1902.1229    123.38168   -2025.5046   0.11224241 
   96350    235.41798   -239.35224    131903.42    -1901.732    124.61151   -2026.3435   0.10955708 
   96400    233.61605    196.11495    131398.21   -1901.5347    123.65772   -2025.1924   0.11230095 
   96450    234.35306    120.80605    131471.76   -1901.4837    124.04783   -2025.5315   0.11116311 
   96500    231.33398   -249.94058    131932.61   -1901.5429    122.44977   -2023.9927      0.11381 
   96550    229.80146    25.173675    131575.27   -1901.8024    121.63857   -2023.4409   0.11341155 
   96600    234.12864    263.37011    131326.07   -1902.1945    123.92904   -2026.1236   0.11204173 
   96650    228.70986   -164.42464    131812.55   -1902.7477    121.06077   -2023.8085   0.10717605 
   96700    226.82195   -162.88389    131762.65   -1903.4824    120.06146   -2023.5438   0.11433467 
   96750    229.80096    241.73422    131319.79   -1904.2576    121.63831   -2025.8959    0.1168714 
   96800    226.15722   -58.253272    131615.92   -1905.0422    119.70961   -2024.7518   0.11339471 
   96850    228.30353   -199.06937    131826.96   -1905.6847    120.84569   -2026.5304   0.10248388 
   96900    230.12962    131.26602    131454.03   -1906.2303    121.81228   -2028.0426   0.10730101 
   96950    226.03696    68.826215     131478.9   -1906.5958    119.64595   -2026.2418   0.11819882 
   97000    228.56062   -138.77082    131749.46   -1906.7737    120.98178   -2027.7555   0.11293285 
   97050    224.02288    11.419572    131589.65   -1906.7396    118.57986   -2025.3195   0.10299981 
   97100    227.01609    60.765804    131495.35   -1906.6239    120.16422   -2026.7881   0.10988669 
   97150    228.81023   -66.863046    131675.47   -1906.3262     121.1139   -2027.4401   0.11207599 
   97200    231.02799   -9.9190983    131632.65    -1905.887     122.2878   -2028.1748   0.11471141 
   97250    229.44257    108.29448     131507.8   -1905.1674    121.44861    -2026.616   0.10596137 
   97300    231.18894   -51.637163    131654.84   -1904.2173      122.373   -2026.5903   0.10645091 
   97350    228.31175   -57.410075    131676.07   -1902.9129    120.85004    -2023.763   0.11195192 
   97400    234.34766    64.838034    131547.83   -1901.5194    124.04497   -2025.5644   0.11524184 
   97450    232.45065    37.463143    131625.35    -1900.421    123.04084   -2023.4619   0.11238419 
   97500    234.90604   -57.961154    131721.34   -1899.9674    124.34054   -2024.3079    0.1082493 
   97550    237.61401    30.279508    131588.62   -1899.9303    125.77392   -2025.7042   0.10933472 
   97600    230.35977    52.317018    131583.63   -1900.0591     121.9341   -2021.9932   0.11529167 
   97650    234.55783   -92.802766    131720.09   -1900.4108    124.15622    -2024.567   0.11445317 
   97700     229.6412    6.4560084    131630.75   -1900.8308    121.55375   -2022.3846   0.11045964 
   97750    235.07396    83.992807    131559.11   -1901.4639    124.42942   -2025.8934   0.10876586 
   97800    231.81845   -44.550215    131690.01   -1902.1951    122.70621   -2024.9013   0.11007434 
   97850    228.58276   -39.151225    131688.06    -1902.957     120.9935   -2023.9504   0.11121966 
   97900    232.58807    74.811365    131550.59   -1903.7188    123.11359   -2026.8324   0.10694383 
   97950    230.55921   -4.0225625    131626.24   -1904.4178    122.03967   -2026.4574   0.11460703 
   98000    229.59924   -28.620515    131673.62   -1904.9649    121.53154   -2026.4965   0.10524855 
   98050    230.92716      59.7767    131561.68    -1905.444    122.23443   -2027.6784   0.10428511 
   98100    228.26514    31.306439    131570.98   -1905.8158    120.82537   -2026.6412   0.10757593 
   98150    223.52825   -68.647157    131681.56   -1906.0627    118.31804   -2024.3807   0.11564185 
   98200    232.48598    15.768854    131571.32   -1906.2201    123.05955   -2029.2796   0.11006704 
   98250    230.35782      78.9822    131519.15   -1906.1837    121.93307   -2028.1168   0.10274997 
   98300    224.31016   -79.507018    131696.88   -1906.0315    118.73192   -2024.7634   0.10492654 
   98350     226.2289   -44.845601    131625.75   -1905.7679    119.74755   -2025.5154   0.11416988 
   98400    229.52403    101.37087    131472.33   -1905.2343    121.49173    -2026.726   0.11452326 
   98450     233.8731   -56.162421    131667.19   -1904.4016    123.79378   -2028.1953   0.10700224 
   98500    233.64327   -98.515393    131743.42   -1903.2671    123.67212   -2026.9393   0.10403149 
   98550    228.95918    98.188559    131497.56   -1902.0703    121.19274    -2023.263   0.11140616 
   98600    228.70694    38.860252    131561.75   -1901.1506    121.05922   -2022.2098   0.12111548 
   98650    230.57543   -172.91735    131830.39   -1900.5623    122.04825   -2022.6105   0.11521748 
   98700    233.40497    32.588162    131597.15   -1900.3207    123.54599   -2023.8667   0.10685536 
   98750    233.63636     190.0357    131435.01   -1900.3134    123.66847   -2023.9819   0.10630179 
   98800    232.05446   -158.53434    131818.72   -1900.5249    122.83113    -2023.356   0.11424062 
   98850    234.89462   -75.081878    131716.82   -1900.8888    124.33449   -2025.2233   0.11481007 
   98900    234.33682    277.35108    131331.39   -1901.2879    124.03923   -2025.3271   0.11064739 
   98950    232.38838   -2.2266032    131674.89   -1901.7962    123.00789   -2024.8041   0.10602277 
   99000    233.10291   -213.89497    131873.87   -1902.3444     123.3861   -2025.7305   0.10927167 
   99050     231.6836    211.03055    131355.21   -1902.8611    122.63483   -2025.4959    0.1122514 
   99100    227.79357    135.26054    131461.55   -1903.3097    120.57576   -2023.8855   0.11507588 
   99150    234.43321   -295.81656    131939.88   -1903.7023    124.09025   -2027.7925   0.10958418 
   99200    227.73387    51.561493    131522.12   -1904.0175    120.54416   -2024.5617   0.11085204 
   99250    231.35748    287.07464    131284.53   -1904.2146    122.46221   -2026.6768   0.10848943 
   99300    226.30623   -240.53794    131870.16   -1904.3818    119.78848   -2024.1703   0.11039064 
   99350    228.19429   -145.51177    131730.89   -1904.5271    120.78787    -2025.315   0.11498481 
   99400    228.86673     306.8342    131226.96   -1904.5184    121.14381   -2025.6622   0.11523605 
   99450    227.32572   -89.810353    131667.53   -1904.5423    120.32812   -2024.8704   0.10917199 
   99500    229.60509    -299.4636    131909.04   -1904.4788    121.53463   -2026.0134   0.10744515 
   99550    229.66647    195.83582     131347.3   -1904.4404    121.56712   -2026.0075   0.11371615 
   99600    226.44362    102.27088    131444.12   -1904.3719     119.8612   -2024.2331   0.12170201 
   99650    231.35533   -283.62531    131902.73   -1904.2399    122.46107   -2026.7009   0.11102842 
   99700    228.08024    39.454679    131536.32     -1904.08     120.7275   -2024.8075   0.10483271 
   99750    228.22341    209.26961    131324.51   -1903.8738    120.80328    -2024.677   0.11166942 
   99800    231.63125   -172.84347    131789.38   -1903.6354    122.60712   -2026.2425   0.11665863 
   99850    233.43011   -113.43926    131718.99   -1903.1399    123.55929   -2026.6992   0.11393793 
   99900    233.23595    244.12851    131332.86     -1902.17    123.45652   -2025.6265   0.10853894 
   99950    230.75506    -28.14857    131647.93   -1900.9196    122.14334   -2023.0629   0.10901208 
  100000    233.18084   -203.29009     131841.9   -1899.7235    123.42735   -2023.1508   0.11432561 
Loop time of 55.0864 on 12 procs for 100000 steps with 4096 atoms

Performance: 784.223 ns/day, 0.031 hours/ns, 1815.330 timesteps/s
97.5% CPU use with 12 MPI tasks x no OpenMP threads

MPI task timing breakdown:
Section |  min time  |  avg time  |  max time  |%varavg| %total
---------------------------------------------------------------
Pair    | 33.613     | 34.69      | 35.822     |  13.5 | 62.97
Neigh   | 2.6818     | 2.7664     | 2.8996     |   3.8 |  5.02
Comm    | 10.47      | 11.758     | 12.964     |  26.1 | 21.34
Output  | 0.22792    | 0.24377    | 0.41055    |  10.2 |  0.44
Modify  | 4.5185     | 4.7802     | 5.0486     |   8.7 |  8.68
Other   |            | 0.8478     |            |       |  1.54

Nlocal:    341.333 ave 360 max 327 min
Histogram: 1 1 2 2 2 1 0 2 0 1
Nghost:    873.667 ave 909 max 856 min
Histogram: 2 3 1 3 0 1 0 1 0 1
Neighs:    0 ave 0 max 0 min
Histogram: 12 0 0 0 0 0 0 0 0 0
FullNghs:  9701.33 ave 10227 max 9291 min
Histogram: 1 1 3 1 2 1 0 2 0 1

Total # of neighbors = 116416
Ave neighs/atom = 28.4219
Neighbor list builds = 4812
Dangerous builds = 0

undump              1
unfix               2

reset_timestep      0
log                 log.run_${NAME}
log                 log.run_ice_230K_1atm_ML_metal
