
# Define the lattice
#
variable	    lattice_constant equal 6.36339
lattice		    diamond ${lattice_constant}
lattice		    diamond 6.36339
Lattice spacing in x,y,z = 6.36339 6.36339 6.36339

# Define region
# multiples of lattice spacing
#
region 		    simbox block 0 8 0 8 0 8

# Create Atoms
#
create_box          1 simbox
Created orthogonal box = (0 0 0) to (50.9071 50.9071 50.9071)
  2 by 2 by 3 MPI processor grid
create_atoms        1 box
Created 4096 atoms
  create_atoms CPU = 0.000336647 secs
mass                1 18.015

# Define potential
#
pair_style          sw
pair_coeff          * * ML_mW.sw mW
Reading potential file ML_mW.sw with DATE: 2019-02-27

# Add velocity/set timestep
#
velocity            all create ${TEMP} 120598 rot yes dist gaussian
velocity            all create 230 120598 rot yes dist gaussian
timestep            5.0

# Define output
#
compute	            1 all msd
thermo              50
thermo_style        custom step temp press vol etotal ke pe c_1[4]

# Neighbor lists
#
neigh_modify        delay 0 every 1 check yes

# Set fixes
#
fix                 1 all momentum 10 linear 1 1 1 rescale
fix                 2 all npt temp ${TEMP} ${TEMP} ${TDAMP} iso ${PRES} ${PRES} ${PDAMP}
fix                 2 all npt temp 230 ${TEMP} ${TDAMP} iso ${PRES} ${PRES} ${PDAMP}
fix                 2 all npt temp 230 230 ${TDAMP} iso ${PRES} ${PRES} ${PDAMP}
fix                 2 all npt temp 230 230 1000.0 iso ${PRES} ${PRES} ${PDAMP}
fix                 2 all npt temp 230 230 1000.0 iso 1 ${PRES} ${PDAMP}
fix                 2 all npt temp 230 230 1000.0 iso 1 1 ${PDAMP}
fix                 2 all npt temp 230 230 1000.0 iso 1 1 2500.0

# Run 0.1 ns equilibration
#
dump		    1 all custom 1000 eq.${NAME}.dump id type x y z vx vy vz
dump		    1 all custom 1000 eq.ice_230K_1atm_ML_npt.dump id type x y z vx vy vz
run                 20000
Neighbor list info ...
  update every 1 steps, delay 0 steps, check yes
  max neighbors/atom: 2000, page size: 100000
  master list distance cutoff = 6.00329
  ghost atom cutoff = 6.00329
  binsize = 3.00165, bins = 17 17 17
  1 neighbor lists, perpetual/occasional/extra = 1 0 0
  (1) pair sw, perpetual
      attributes: full, newton on
      pair build: full/bin/atomonly
      stencil: full/bin/3d
      bin: standard
Per MPI rank memory allocation (min/avg/max) = 4.742 | 4.742 | 4.742 Mbytes
Step Temp Press Volume TotEng KinEng PotEng c_1[4] 
       0          230    15468.852    131927.58   -35155.852    2807.4759   -37963.328            0 
      50    80.699869    704.41634    142127.01   -36300.117    985.05627   -37285.173   0.72567222 
     100    124.54283   -583.22959    144713.36   -36249.212    1520.2218   -37769.434    1.0012326 
     150     123.0289   -488.39084    143657.48   -36194.861     1501.742   -37696.603   0.99677759 
     200     129.7159   -562.92866    142079.45   -36128.666    1583.3664   -37712.032    0.9949006 
     250    137.60714   -425.21645    140387.47   -36059.779    1679.6901   -37739.469    1.0429481 
     300     144.1768   -721.88007    138376.92   -35993.342    1759.8821   -37753.224    1.1650006 
     350    152.55411   -884.38114    135870.76   -35930.471     1862.139    -37792.61    1.3548914 
     400    168.27759   -1000.7187     132978.1   -35880.191    2054.0665   -37934.258    1.6452892 
     450    179.92595   -1051.1243    130219.51   -35821.479    2196.2512    -38017.73    2.0642763 
     500    195.18456   -1150.3299    127480.12   -35764.412    2382.5042   -38146.916    2.5857065 
     550    206.72577   -1237.6065    124993.96   -35702.781     2523.381   -38226.162    3.2067896 
     600    221.19188   -476.77138    122290.65   -35654.241    2699.9603   -38354.201    3.9129994 
     650    236.12461   -972.07732    120303.57   -35592.319    2882.2354   -38474.554     4.653964 
     700    240.23651   -414.19255    118811.27   -35537.104     2932.427   -38469.531    5.4480354 
     750    250.48018    53.272758    117689.19   -35503.257    3057.4655   -38560.723    6.2577343 
     800    253.10162   -91.211249    117190.59   -35497.611    3089.4639   -38587.075    6.9639224 
     850    251.67726   -77.926522    116971.13   -35534.255    3072.0776   -38606.333    7.6938925 
     900    252.62784    37.833876    116700.82    -35608.46    3083.6808    -38692.14    8.3827481 
     950    257.56095    145.43114    116456.29    -35703.43    3143.8964   -38847.326     8.929541 
    1000    248.82433    158.18737     115996.2   -35805.425    3037.2535   -38842.678    9.4618017 
    1050    249.12489   -501.30597    115801.05   -35909.403    3040.9223   -38950.325    9.9684822 
    1100    245.88053   -37.046003    115734.02   -36009.486    3001.3203   -39010.806    10.428175 
    1150    239.95185     45.01419    115708.42    -36103.03    2928.9523   -39031.983    10.907273 
    1200    239.32834   -248.65866    115533.74    -36189.44    2921.3416   -39110.781    11.371901 
    1250    237.59569   -143.41232    115185.27   -36268.694    2900.1921   -39168.887    11.921665 
    1300    237.57164    401.87255    115113.75   -36343.229    2899.8986   -39243.127    12.429448 
    1350    234.36008   -145.68661    114913.06   -36412.112    2860.6969   -39272.809    12.946869 
    1400    234.23521   -625.18855    114800.66   -36477.302    2859.1727   -39336.474    13.385873 
    1450     229.8596    275.81592    114520.54   -36535.874    2805.7622   -39341.637    13.846854 
    1500    224.90734   -166.17054    114656.48   -36587.907    2745.3128    -39333.22    14.226441 
    1550    226.29539    121.91652    114470.11   -36633.045    2762.2559   -39395.301    14.575196 
    1600    228.79485    171.95539    114419.56    -36670.65    2792.7654   -39463.415    14.915413 
    1650    224.35313      35.8538    114637.18   -36699.858    2738.5479   -39438.406    15.243172 
    1700    224.56361    131.23101    114573.47   -36718.163    2741.1171    -39459.28    15.580715 
    1750    229.59711    446.77354     114159.7   -36729.976    2802.5581   -39532.534    15.891083 
    1800    224.10306    40.942968    114226.16   -36736.323    2735.4954   -39471.819    16.317064 
    1850    223.97753   -235.61677    114244.86   -36734.725    2733.9631   -39468.688    16.627363 
    1900    225.79021   -52.591144    114139.46    -36724.16    2756.0895   -39480.249    16.866756 
    1950     226.4546    39.870497    114123.44   -36705.912    2764.1993   -39470.111    17.178362 
    2000    225.16039    362.20888    113921.23   -36680.787    2748.4017   -39429.188    17.585527 
    2050    228.63976   -181.97195    113998.97   -36651.708    2790.8723    -39442.58     17.94911 
    2100     230.6719   -486.52799     113911.7   -36621.334    2815.6774   -39437.011    18.341841 
    2150    232.99612    26.843024    113793.82   -36588.967    2844.0478   -39433.015    18.718816 
    2200    234.24068   -109.70224    113944.83   -36557.734    2859.2394   -39416.974    19.040467 
    2250    233.41728   -236.80668    113989.95   -36528.357    2849.1887   -39377.546    19.409724 
    2300    230.20655    39.636766    114081.86   -36502.573    2809.9972    -39312.57    19.776299 
    2350    234.01248   -85.823451    114191.89    -36481.95     2856.454   -39338.404     20.13582 
    2400     238.3108   -123.85501    113930.98   -36467.003     2908.921   -39375.924    20.439836 
    2450    238.21372   -77.098514    113934.51   -36458.231     2907.736   -39365.967    20.755018 
    2500    230.13221   -683.02226    114224.47   -36456.298    2809.0898   -39265.388    21.103961 
    2550    234.48133    238.16614    113841.27   -36459.322     2862.177   -39321.499    21.342628 
    2600    235.32259    290.08859    113908.83   -36468.038    2872.4457   -39340.484    21.752446 
    2650    230.65391    -447.3751    114465.52   -36484.265    2815.4579   -39299.723    22.146658 
    2700    230.77135    200.31065    114371.06   -36504.943    2816.8913   -39321.834    22.605844 
    2750    234.66105    84.140674    114303.02   -36530.392    2864.3707   -39394.762    22.949036 
    2800    230.29533    182.38107    114218.56   -36558.378    2811.0809   -39369.459    23.365914 
    2850    234.05026   -162.11494    114141.12   -36588.398    2856.9151   -39445.313    23.752939 
    2900    224.04659   -49.874552    114122.55   -36616.705    2734.8061   -39351.512    24.144785 
    2950    230.72621   -378.68418    114214.08   -36640.164    2816.3404   -39456.504    24.613356 
    3000    227.87439   -46.009909    113868.69   -36658.512    2781.5299   -39440.042    25.048479 
    3050    229.43188    280.62817    113936.15   -36674.799    2800.5413   -39475.341    25.412131 
    3100      221.977   -125.89185    114249.16   -36686.023    2709.5439   -39395.566    25.813946 
    3150    226.23829    572.40253    114064.36   -36693.018     2761.559   -39454.577    26.287493 
    3200    227.26419    -327.8803    114266.57   -36696.661    2774.0815   -39470.742    26.767529 
    3250    222.87032   -92.506301     114164.5   -36693.846    2720.4481   -39414.294    27.196238 
    3300    226.97628    749.64596    113778.09   -36682.766    2770.5671   -39453.333    27.685387 
    3350    227.80671   -690.95426    113998.89   -36666.576    2780.7037   -39447.279    28.275606 
    3400    229.93583    131.59009    113640.59   -36649.614    2806.6926   -39456.306    28.661973 
    3450    229.26139   -325.17807    113892.55   -36633.311    2798.4602   -39431.771    29.006901 
    3500    230.55992    438.34139    113812.05   -36616.836    2814.3106   -39431.147    29.463867 
    3550    232.25262   -140.35127    113718.69    -36600.33    2834.9724   -39435.302    29.850929 
    3600    234.74991    156.97666     113570.5    -36587.62    2865.4554   -39453.075    30.305453 
    3650    234.12032    107.38072    113664.45   -36580.052    2857.7702   -39437.822    30.594351 
    3700    233.04554   -159.55821    113759.66   -36577.648    2844.6511   -39422.299    31.024899 
    3750    234.89816   -400.39891    113924.82    -36577.76    2867.2649   -39445.025    31.535737 
    3800    234.64615    109.42117    113787.85   -36581.258    2864.1887   -39445.446    31.989444 
    3850    229.66183   -61.438421    113944.57   -36588.139    2803.3481   -39391.487     32.49694 
    3900    228.28486    49.159671    113946.52   -36596.892    2786.5402   -39383.433    32.801011 
    3950    230.50292    31.740902    114191.12   -36605.733    2813.6148   -39419.348    33.198546 
    4000     229.8975    130.95536    114052.69   -36615.764    2806.2248   -39421.989    33.566825 
    4050    227.88898   -53.478374    114162.24   -36625.707    2781.7079   -39407.415    34.162748 
    4100    227.49546    434.82604       114151   -36634.921    2776.9045   -39411.825       34.756 
    4150    228.97943   -88.906107    114161.64   -36641.009    2795.0184   -39436.027    35.070186 
    4200    229.71105    10.909225    114010.23   -36645.243    2803.9489   -39449.192    35.269452 
    4250    232.05235   -208.75028       114197   -36647.897    2832.5278   -39480.425    35.568189 
    4300     229.4693     107.6995    113902.46   -36649.628     2800.998   -39450.626    35.986377 
    4350    230.47296    263.92228    113790.57   -36651.042    2813.2491   -39464.291     36.25242 
    4400    228.75133   -359.31571    114126.24   -36653.137    2792.2342   -39445.371    36.648304 
    4450    231.36145    -403.8559    114003.49   -36654.677    2824.0944   -39478.772    37.084423 
    4500      230.167    268.89904    114002.24    -36655.19    2809.5144   -39464.704    37.300762 
    4550      226.326    419.91644    114250.59   -36653.171    2762.6296   -39415.801    37.684716 
    4600     228.5121   -27.279585    114449.95   -36645.387     2789.314   -39434.701    38.011173 
    4650    227.82354   -144.45827    114003.66   -36632.612    2780.9092   -39413.522    38.310398 
    4700    231.01197    296.34858    113820.63   -36617.541    2819.8285    -39437.37    38.578103 
    4750    227.53728    49.146005    114043.47   -36602.388    2777.4149   -39379.803    38.993093 
    4800    231.38943    232.37967    114081.76   -36587.758    2824.4359   -39412.194    39.498917 
    4850    230.50615   -279.22005     114363.9   -36570.848    2813.6542   -39384.502    39.882401 
    4900    231.68148    822.79194    113865.62   -36555.016    2828.0008   -39383.017    40.327998 
    4950    227.35581   -830.54002    114449.84   -36542.108    2775.1999   -39317.308    40.875862 
    5000    231.10169    281.01183    114143.58   -36530.974    2820.9236   -39351.897    41.349317 
    5050    234.27385   -423.85546    114082.94    -36521.43    2859.6444   -39381.074    41.786422 
    5100    230.26661    472.39875     113964.1     -36518.5    2810.7303    -39329.23     42.23826 
    5150    233.53239   -67.723149    114273.67    -36521.11    2850.5938   -39371.703     42.57451 
    5200    232.79167    182.29278    113980.94   -36528.398    2841.5522    -39369.95    42.985951 
    5250    236.39952   -131.57286    113858.07   -36541.818    2885.5912   -39427.409    43.433999 
    5300    233.68289   -127.12752    113817.97   -36560.028    2852.4309   -39412.459    43.835329 
    5350    231.67033   -94.127098    113994.31    -36580.58    2827.8647   -39408.445    44.166191 
    5400    226.00362   -727.00354    114066.83   -36601.151    2758.6944   -39359.846    44.453476 
    5450    228.18435    159.86114    113844.76   -36621.294    2785.3134   -39406.608    44.906335 
    5500    228.90806   -206.69221    113859.83    -36641.65    2794.1472   -39435.797    45.394967 
    5550    222.30699   -173.04075    114114.83   -36660.559    2713.5718   -39374.131    45.811634 
    5600    226.08247    154.88547    114210.21   -36672.361     2759.657   -39432.018    46.148533 
    5650    229.00256   -29.088231    113886.35   -36680.508    2795.3008   -39475.809    46.336351 
    5700    232.52461    256.11585    113807.32   -36684.549    2838.2923   -39522.841    46.787618 
    5750    228.72033   -15.693048     113952.6   -36688.538    2791.8557   -39480.393    47.297254 
    5800    227.28497   -238.92158    114085.26   -36689.375    2774.3352    -39463.71    47.584977 
    5850    227.24958    546.81484     113744.9   -36686.076    2773.9032   -39459.979    47.915662 
    5900    227.37237    74.957079    114059.64   -36681.236     2775.402   -39456.638    48.376297 
    5950    225.16572   -71.207819    114377.22   -36669.413    2748.4667   -39417.879    48.820853 
    6000    230.31184   -243.06676    114256.13   -36652.787    2811.2824    -39464.07    49.032303 
    6050    222.93265    120.08985     114141.5   -36631.767    2721.2089   -39352.976    49.290225 
    6100    229.65193    62.392916    114281.99   -36608.348    2803.2273   -39411.575    49.483052 
    6150    228.91435   -362.06051    114421.49   -36581.918     2794.224   -39376.142    49.843808 
    6200     230.4027    78.680612    114192.99   -36556.899    2812.3915    -39369.29    50.179357 
    6250    234.98169    320.07997    114066.03   -36535.703    2868.2846   -39403.987    50.534943 
    6300    236.41217   -419.56815    114057.53   -36519.587    2885.7456   -39405.333    50.846463 
    6350    231.18754   -497.17121    114217.36   -36511.462    2821.9715   -39333.434    51.205464 
    6400    229.41568    70.153452    114130.95   -36509.186    2800.3435    -39309.53    51.575487 
    6450    229.89169    56.059119    114382.44   -36510.389    2806.1539   -39316.543    52.060872 
    6500    227.83851     258.1213    114380.81   -36514.749    2781.0919   -39295.841    52.539842 
    6550    233.70817    8.2725013    114256.73   -36521.907    2852.7395   -39374.647    52.946343 
    6600     233.5284   -438.25627    114480.34   -36533.747     2850.545   -39384.292    53.287925 
    6650    231.38593    444.70033    114653.83   -36546.988    2824.3931   -39371.381    53.833026 
    6700    232.84468   -200.38315    114760.76   -36561.483    2842.1993   -39403.682    54.377045 
    6750    229.58241   -108.56133    114611.37   -36575.691    2802.3786    -39378.07    54.760908 
    6800     227.1219   -207.51937    114405.18   -36591.251    2772.3447   -39363.596    54.995078 
    6850    230.39329    63.770894    114314.74   -36605.858    2812.2766   -39418.135    55.495227 
    6900    227.55404    258.87264    114392.87   -36621.932    2777.6196   -39399.552    55.988316 
    6950    226.27424   -478.83718    114640.97     -36636.8    2761.9978   -39398.798    56.442909 
    7000    223.69241    10.470265    114339.37   -36646.595    2730.4829   -39377.078    56.713012 
    7050     227.1048    622.21578    113764.91   -36650.357    2772.1359   -39422.493    56.739893 
    7100    228.14491   -401.47476    114039.57   -36654.945     2784.832   -39439.777    57.110647 
    7150    229.96154     416.4325    113864.94   -36656.809    2807.0065   -39463.815    57.399483 
    7200    230.41884   -67.793078    113953.72   -36658.183    2812.5885   -39470.772    57.747057 
    7250    229.49828    223.50997    113855.47   -36658.923    2801.3518   -39460.275    58.156689 
    7300    229.79232   -178.99431    113880.53   -36658.516    2804.9409   -39463.456    58.513706 
    7350    228.86645    43.561212    113868.77   -36658.326    2793.6394   -39451.965    58.690498 
    7400    231.44998    36.845201    113824.82   -36656.795     2825.175    -39481.97      59.0038 
    7450    234.22677    448.48952    113632.63   -36653.768    2859.0697   -39512.838     59.33092 
    7500    225.52999   -284.08207    113915.69   -36650.745    2752.9131   -39403.658    59.856882 
    7550    226.98829    470.69918    113699.97   -36646.103    2770.7137   -39416.817    60.280951 
    7600    232.19829   -161.40937    113676.16   -36641.055    2834.3092   -39475.364    60.617942 
    7650    229.74891    512.81332     113268.4   -36635.126     2804.411   -39439.537    61.009592 
    7700    231.95521   -231.88267    113397.57   -36627.701     2831.342   -39459.043    61.424694 
    7750    229.34763    108.10062     113522.5   -36622.391    2799.5129   -39421.904     61.88938 
    7800    235.71707   -131.16757    113471.25    -36618.05    2877.2609   -39495.311    62.437807 
    7850    228.48234    528.15731    113472.98   -36615.552    2788.9508   -39404.503    62.953269 
    7900    228.96013    584.71394    113821.62   -36614.938    2794.7829   -39409.721    63.610721 
    7950    227.89775   -434.69442    114091.05   -36614.977     2781.815   -39396.792    63.951248 
    8000    228.96142    63.722811    113859.77   -36614.693    2794.7986   -39409.492    64.326853 
    8050    228.39941   -144.30937    113829.95    -36614.98    2787.9384   -39402.918    64.682747 
    8100     229.0072    431.19665    113685.75   -36615.036    2795.3575   -39410.393    65.197912 
    8150    226.99373    861.13721    113493.16   -36618.889    2770.7801   -39389.669     65.54494 
    8200     228.7069   -683.98835    113868.45   -36625.352    2791.6918   -39417.044     66.08003 
    8250    228.47396    299.41804    113611.05   -36629.797    2788.8484   -39418.645    66.325787 
    8300     230.4679    101.33315    113894.65   -36635.466    2813.1873   -39448.654    66.794028 
    8350    231.38455    -544.5184    114215.57   -36637.854    2824.3763    -39462.23    67.280882 
    8400    230.98196    666.40028     113599.2   -36639.497    2819.4621   -39458.959    67.345126 
    8450     232.7867    -130.4645    113732.45   -36643.283    2841.4915   -39484.775    67.656269 
    8500    229.26687    406.46617    113665.51   -36646.175    2798.5271   -39444.702    67.814945 
    8550    227.48094   -254.22058     113908.8   -36648.392    2776.7273   -39425.119    68.204713 
    8600    223.31385   -53.358479    114153.02    -36649.23     2725.862   -39375.093     68.51886 
    8650    232.66522   -97.640585    113859.37   -36649.246    2840.0087   -39489.254    68.757125 
    8700    229.70491    89.165954    113728.75   -36647.564     2803.874   -39451.438    68.900176 
    8750    228.81242   -268.64411    113755.99   -36647.037    2792.9798   -39440.017    69.401988 
    8800    229.25529    112.11349    113900.54   -36647.473    2798.3857   -39445.859     69.60983 
    8850    227.88161   -522.06953    114372.58   -36644.435    2781.6179   -39426.053    70.016628 
    8900    224.91742    359.25869    114197.96    -36637.71    2745.4359   -39383.146    70.198188 
    8950    227.48228   -665.18355     114532.7   -36627.749    2776.7436   -39404.493    70.611127 
    9000    228.93576   -257.51883    114545.96   -36614.445    2794.4854   -39408.931    71.145751 
    9050    231.43015     605.5551    114161.42   -36598.756    2824.9329   -39423.689    71.258083 
    9100    234.20174     279.7917    113780.07   -36582.875    2858.7641   -39441.639    71.467207 
    9150    230.69094    5.0829395    113791.95   -36571.844    2815.9099   -39387.754    71.928231 
    9200    232.76151    -343.0678    113692.69   -36566.148    2841.1841   -39407.332    72.177965 
    9250    232.69936    443.59654    113485.47   -36565.998    2840.4254   -39406.424    72.539826 
    9300    233.00174   -1.3081567    114008.64   -36574.864    2844.1164    -39418.98    73.144863 
    9350    231.09188    1040.3869    113917.09    -36584.13    2820.8039   -39404.934    73.615294 
    9400    234.92434   -26.484387    114051.79   -36594.725    2867.5845    -39462.31    74.095536 
    9450    232.23729   -4.5688166    114176.42   -36607.322    2834.7852   -39442.108    74.570128 
    9500    233.17885    280.56857    113884.01   -36622.202    2846.2783    -39468.48    74.757176 
    9550    228.67529   -129.74797    114039.24   -36637.818     2791.306   -39429.124    75.186564 
    9600    227.14362   -793.69371    114266.27   -36651.592    2772.6098   -39424.202    75.551109 
    9650    227.76656    194.38828    113786.02   -36662.217    2780.2136   -39442.431    75.785894 
    9700    228.65103      97.8916    113633.91   -36669.432    2791.0099   -39460.441    76.190067 
    9750    228.37042   -33.576321    113616.98   -36675.387    2787.5847   -39462.972    76.623463 
    9800    227.05848   -151.83905    113622.22   -36679.999    2771.5705   -39451.569     76.96844 
    9850    229.08676    199.83222     113662.6   -36683.108    2796.3285   -39479.437    77.676109 
    9900     222.9491   -128.43261    113762.29    -36682.36    2721.4097    -39403.77    78.048491 
    9950    229.50035    715.62455    113784.01   -36678.685    2801.3771   -39480.062    78.424187 
   10000    229.17088    67.097275    113851.69    -36670.87    2797.3553   -39468.225    78.575438 
   10050    231.10977    377.46249    113914.93   -36660.108    2821.0222    -39481.13    78.918745 
   10100    227.50277   -203.29056    113920.03   -36643.727    2776.9937   -39420.721    79.349564 
   10150    231.49831     356.0547     113840.1   -36620.913    2825.7649   -39446.678    79.551985 
   10200    230.54395     111.8406    114072.53   -36597.776    2814.1156   -39411.891    80.123716 
   10250    233.59147    28.123828    113947.33   -36577.201     2851.315   -39428.516    80.445472 
   10300    231.19082    97.975545    113938.95   -36562.544    2822.0116   -39384.555    80.738722 
   10350    229.46462   -242.14918    114076.75   -36552.203    2800.9409   -39353.144    81.373962 
   10400    229.86102    30.845716     114251.4   -36546.262    2805.7795   -39352.041    81.899681 
   10450     227.4244   -355.66605    114586.61   -36539.368    2776.0371   -39315.405    82.544914 
   10500    235.04903   -312.66679     114208.4    -36535.02    2869.1065   -39404.127    82.775291 
   10550    233.22998    170.02521    114103.18    -36532.78    2846.9024   -39379.682    83.143137 
   10600    232.65282   -134.54513    114194.48    -36535.57    2839.8574   -39375.427    83.431631 
   10650    233.79341    368.92799    114209.95   -36542.286    2853.7799   -39396.066    84.103255 
   10700    235.61812    46.807674    114106.19   -36552.712    2876.0531   -39428.765    84.505506 
   10750    230.62136    257.80172    114046.31   -36565.358    2815.0605   -39380.419     84.92518 
   10800    232.36626   -119.15595    114212.47   -36580.053    2836.3595   -39416.413    85.363116 
   10850    223.81177    266.21806    114287.86   -36592.008    2731.9398   -39323.948    85.851713 
   10900    232.44129    177.23813    114033.26   -36599.691    2837.2753   -39436.966    85.950797 
   10950     230.6787    193.01151    113867.93   -36605.463    2815.7605   -39421.224    86.289325 
   11000    229.71992   -527.22224    114063.35   -36610.851    2804.0572   -39414.909    86.918607 
   11050    231.41154    229.70314    113760.69   -36613.967    2824.7058   -39438.673    87.311323 
   11100    231.94829    16.565495    113609.24   -36617.474    2831.2576   -39448.732    87.724124 
   11150    227.39805   -384.25656    113964.59   -36621.299    2775.7155   -39397.014    88.322336 
   11200    234.10985    451.90684    113875.89    -36622.35    2857.6425   -39479.993     89.01058 
   11250    229.49383   -188.38336    113693.84   -36621.309    2801.2974   -39422.607    89.533426 
   11300    234.71182    181.56846    113354.03   -36619.075    2864.9904   -39484.065    89.992987 
   11350    230.09602   -354.69513    113899.32   -36622.399     2808.648   -39431.048    90.668443 
   11400    226.62655    411.53565    113886.04   -36623.929    2766.2982   -39390.227    91.228535 
   11450    229.57389    346.21797    114065.48   -36626.856    2802.2746    -39429.13    91.839494 
   11500    225.26009   -111.30054    114265.83    -36630.75    2749.6187   -39380.369    92.213831 
   11550    231.70158    423.67108    113778.14   -36633.006    2828.2461   -39461.252    92.382926 
   11600    229.65957   -102.40428    113821.97   -36635.534    2803.3205   -39438.855     92.67132 
   11650    226.96056   -315.82779    114081.06   -36640.047    2770.3753   -39410.423    92.958035 
   11700    226.58592    456.21205    113670.03   -36645.025    2765.8023   -39410.827    93.152118 
   11750    231.15453    482.78167    113629.34   -36652.804    2821.5686   -39474.373    93.524548 
   11800     231.6309   -291.30123    113839.55     -36664.4    2827.3834   -39491.783    94.000359 
   11850    231.76718    184.51365    113763.14   -36679.246    2829.0468   -39508.293    94.373791 
   11900    228.14676    -372.5952    114005.29   -36695.567    2784.8546   -39480.421    94.980509 
   11950    229.41283   -344.54128    113982.92   -36710.214    2800.3088   -39510.523    95.312073 
   12000    223.72536   -127.96945    113917.97   -36723.148    2730.8851   -39454.033    95.793677 
   12050    226.73988   -78.072174    114055.62   -36729.249    2767.6815    -39496.93    96.198687 
   12100    225.02295   -556.87815     114113.5   -36729.502     2746.724   -39476.226    96.547037 
   12150    231.51029    656.46604     113357.1   -36721.722    2825.9112   -39547.634    96.469937 
   12200     228.9636    6.2887094    113634.37   -36710.247    2794.8253   -39505.072    96.956312 
   12250    228.73016   -228.19019    113806.21   -36691.691    2791.9757   -39483.667     97.23625 
   12300    230.14855   -6.7838904    113414.26   -36669.776    2809.2893   -39479.065    97.581521 
   12350    234.86822   -171.12113    113544.86    -36648.37    2866.8995   -39515.269    97.995073 
   12400    230.58417    140.84295    113591.08   -36630.276    2814.6066   -39444.883    98.250634 
   12450    231.33039    -150.9831    113586.99   -36617.309    2823.7153   -39441.024    98.437488 
   12500    231.79885   -243.80713    113679.68   -36609.275    2829.4335   -39438.708    98.763634 
   12550    228.58461   -249.67813    113839.49   -36603.842    2790.1991   -39394.041     99.27403 
   12600     234.2808   -144.14206    113597.74   -36600.094    2859.7292   -39459.823    99.496108 
   12650    228.76653   -14.458921    113829.84   -36599.761    2792.4196   -39392.181    100.04948 
   12700    229.16996     161.9253    113760.25   -36600.572    2797.3441   -39397.916    100.48807 
   12750    231.27373    13.660514     113603.7   -36602.007    2823.0236   -39425.031    100.85922 
   12800    230.59468   -268.50122    113712.25   -36606.058    2814.7348   -39420.793    101.21444 
   12850    233.73134    37.624949    113571.67   -36611.434    2853.0223   -39464.456    101.57233 
   12900    229.71313    74.926357    113668.05   -36618.681    2803.9742   -39422.655    101.76898 
   12950    231.74885    60.957972    113626.01    -36624.32    2828.8231   -39453.143    102.23927 
   13000    231.52973   -244.62062    113638.92   -36629.825    2826.1485   -39455.973    102.41481 
   13050     229.9446   -177.08879    113621.95    -36636.45    2806.7997   -39443.249    102.56219 
   13100    226.02257    65.310209    113658.74   -36640.938    2758.9257   -39399.864    102.97392 
   13150    231.02635    88.941381     113624.6   -36647.431     2820.004   -39467.435    103.44467 
   13200    231.35367    606.66226    113708.32   -36656.577    2823.9994   -39480.576    103.71983 
   13250     227.8343   -251.02548    113700.52   -36666.362    2781.0405   -39447.403    104.32264 
   13300    230.07849    384.92679    113333.77     -36675.8     2808.434   -39484.234    104.40482 
   13350    224.14025    444.47714    113506.02   -36692.749    2735.9493   -39428.698    104.97072 
   13400    228.94419   -611.74648    113795.81   -36721.228    2794.5883   -39515.816    105.45064 
   13450    226.31685   -17.091756     113646.6   -36758.146    2762.5179   -39520.664    105.68801 
   13500    225.68629    423.81852     113477.9   -36787.906     2754.821   -39542.727    106.00406 
   13550    225.53128   -816.25917    113766.43   -36804.769    2752.9289   -39557.698    106.36617 
   13600    225.68204   -207.71433     113843.4   -36808.904    2754.7691   -39563.673    106.64495 
   13650    223.91745    152.58711    113434.69   -36803.074    2733.2298   -39536.304    106.99584 
   13700    225.78145   -200.81349    113308.14    -36789.92    2755.9825   -39545.902    107.60378 
   13750    225.18239    89.282633    113111.87   -36772.017    2748.6702   -39520.687    108.01871 
   13800      229.729    -164.9012    113105.99   -36752.462     2804.168    -39556.63    108.55207 
   13850    228.06305   -80.436498    113414.42   -36737.165    2783.8327   -39520.998    108.92069 
   13900    225.57927   -614.43487    113694.77   -36719.848    2753.5146   -39473.363    109.22029 
   13950    227.76874     550.9354    113499.47   -36702.755    2780.2403   -39482.996    109.51963 
   14000    226.26508   -38.505832    113792.28   -36686.381    2761.8859   -39448.267    110.09257 
   14050     229.7752   -225.98495     113556.1   -36671.653    2804.7319   -39476.385    110.54493 
   14100    232.73131     164.1858    113387.58     -36660.9    2840.8154   -39501.716    110.95309 
   14150    231.59082    108.61598    113528.81   -36651.675    2826.8942   -39478.569    111.57113 
   14200     226.6043   -10.002589    113404.04    -36643.92    2766.0267   -39409.947    111.77563 
   14250    227.85568      385.218    113549.15   -36637.775    2781.3015   -39419.076    112.23208 
   14300    228.80948   -608.43424    114067.74    -36630.43     2792.944   -39423.375    112.61731 
   14350    228.95007   -103.30018       113694   -36620.611      2794.66   -39415.271    112.81261 
   14400    231.09343    415.70355     113565.8   -36611.395    2820.8229   -39432.218    113.32823 
   14450    229.69456   -536.74167    113727.74   -36604.429    2803.7476   -39408.176    113.84396 
   14500    231.02414    286.93676    113416.35    -36598.12     2819.977   -39418.097    114.21507 
   14550     232.9931    151.26993    113674.62   -36594.326    2844.0109   -39438.337    115.02261 
   14600     228.1715   -83.510768    113829.17   -36588.952    2785.1566   -39374.109    115.39719 
   14650    232.65902   -50.707538    113702.74   -36583.156    2839.9331   -39423.089    115.82806 
   14700    230.50606   -445.82993    114061.94   -36581.518    2813.6531   -39395.171    116.40634 
   14750    232.08021    293.75893    114005.96   -36580.183    2832.8679   -39413.051    116.98124 
   14800    231.82926   -596.85453    114235.32     -36582.1    2829.8046   -39411.905     117.6802 
   14850    232.10961     93.74034    114047.18   -36584.863    2833.2267    -39418.09    117.83645 
   14900    232.14242   -285.51805    114019.77    -36590.56    2833.6273   -39424.188    118.38559 
   14950    231.91758    86.104431    113925.47   -36598.465    2830.8827   -39429.348    118.70508 
   15000    232.79578     270.5423    113885.43   -36607.178    2841.6024   -39448.781     118.9299 
   15050     230.9987   -423.66807    113920.46   -36620.054    2819.6666   -39439.721    119.43844 
   15100    229.90154   -283.74614    114099.83   -36635.808    2806.2741   -39442.083    120.26732 
   15150    227.80272    216.36155    114148.09    -36649.63     2780.655   -39430.285    120.81095 
   15200    228.14521   -469.65681    114211.52   -36659.299    2784.8357   -39444.135    121.23059 
   15250    227.88974    122.02249    113984.91   -36665.291    2781.7172   -39447.008    121.52093 
   15300    226.05399   -837.22432    114289.36   -36668.269    2759.3093   -39427.578    121.88586 
   15350    226.87547     52.67105    114082.72    -36665.79    2769.3366   -39435.127     122.2127 
   15400    234.67882    355.81952    113554.43   -36655.173    2864.5876    -39519.76    122.29727 
   15450     229.9402    78.898115    113669.88   -36642.733     2806.746   -39449.479    123.02359 
   15500    223.68998    344.95431    113983.42   -36626.812    2730.4532   -39357.265    123.71175 
   15550    229.70706    590.52707    113890.17   -36606.002    2803.9002   -39409.903    123.97796 
   15600    230.55771   -205.49614    114040.56   -36582.765    2814.2836   -39397.049      124.452 
   15650    232.64043    624.52373    113829.82   -36560.544    2839.7061    -39400.25    124.94504 
   15700    232.42945    136.45219    114013.52   -36546.244    2837.1309   -39383.375    125.51129 
   15750      231.197   -405.99094    114122.92   -36537.135     2822.087   -39359.222    125.99673 
   15800    232.30436    369.34337    113879.46   -36532.448    2835.6039   -39368.052    126.20522 
   15850    233.67737   -133.72844    113859.79   -36531.943    2852.3634   -39384.307    126.69299 
   15900    232.41645    31.936792    113816.53   -36537.206    2836.9722   -39374.178    127.13021 
   15950    238.68515    121.97536    113843.55   -36546.555    2913.4906   -39460.046    127.66902 
   16000    233.65621   -22.312533    113902.79   -36556.473    2852.1052   -39408.578    127.83175 
   16050    231.33758    134.57319    114111.49   -36568.846    2823.8029   -39392.649    128.41965 
   16100    232.08549    71.880315     113868.6   -36581.822    2832.9323   -39414.754    128.54165 
   16150     230.4431   -473.76263    114104.99   -36592.694    2812.8846   -39405.579    129.45332 
   16200    225.79362   -30.602478    114028.95   -36599.033    2756.1311   -39355.164    130.08931 
   16250     233.5027    2.1049079    113715.71   -36602.531    2850.2314   -39452.762    130.47317 
   16300    237.02314    94.151504    113536.02    -36606.74    2893.2033   -39499.944    131.15013 
   16350    230.94742   -117.34561    113916.05    -36613.71    2819.0405   -39432.751    131.72276 
   16400    226.91648   -68.853142    113972.63   -36622.007    2769.8372   -39391.845     132.0434 
   16450    229.12761    487.79861    113822.72   -36629.265    2796.8272   -39426.092    132.18244 
   16500    226.78139    593.51497    113706.63   -36634.176    2768.1882   -39402.364     132.4638 
   16550    227.99036   -1026.1928    113911.35   -36636.498    2782.9454   -39419.444    132.85248 
   16600    228.38306    578.65396    113566.05   -36636.684    2787.7389   -39424.423    132.91395 
   16650    228.97378    -467.0726    113996.64   -36636.245    2794.9495   -39431.194    133.60507 
   16700    233.22026   -247.93793    113995.91   -36632.399    2846.7838   -39479.183    134.12807 
   16750    228.11734    238.00101    113688.05   -36626.679    2784.4954   -39411.175    134.39535 
   16800    225.92909   -438.31869     113942.6   -36614.214    2757.7848   -39371.998    134.96486 
   16850    234.03481    524.16576    113771.59   -36590.453    2856.7265   -39447.179    135.51071 
   16900    230.25131    423.46655    113600.91   -36558.975    2810.5436   -39369.519    135.89701 
   16950    232.48842    323.86883    113697.57   -36531.996    2837.8507   -39369.847    136.29423 
   17000    233.69859   -40.851246    113755.51   -36514.041    2852.6224   -39366.663    136.72899 
   17050    233.69405    199.73217    113545.41   -36504.387     2852.567   -39356.954    137.35659 
   17100    237.55202    230.76659    113720.82   -36504.372     2899.659   -39404.031    137.85391 
   17150    234.01996   -248.35754    114187.92   -36512.345    2856.5453   -39368.891    139.02679 
   17200    230.38238    396.87221    113977.38   -36523.801    2812.1434   -39335.944    139.32987 
   17250    234.55949   -4.5900399    113996.57    -36539.08    2863.1309   -39402.211    139.66775 
   17300    231.95771     500.0004    113732.92   -36556.737    2831.3726    -39388.11    139.85175 
   17350    232.60715   -121.34738    113911.07   -36576.843       2839.3   -39416.143    140.47128 
   17400    227.58113     240.1558     113943.3   -36593.427    2777.9502   -39371.377    141.06515 
   17450    232.28955    433.84498    113741.34   -36605.305    2835.4232   -39440.728    141.35871 
   17500    226.25117    58.638384    113988.21   -36615.666    2761.7162   -39377.382    142.04572 
   17550    230.70841    333.35495    114031.47   -36621.417    2816.1231    -39437.54    142.71725 
   17600    226.65262   -536.58105    114279.62    -36623.96    2766.6165   -39390.576    143.20275 
   17650    229.32516    53.107171    114127.89    -36624.38    2799.2386   -39423.619    143.55259 
   17700    230.22091   -397.54339    113948.63   -36622.424    2810.1725   -39432.596    143.74508 
   17750    231.06885    62.385021       113993   -36620.335    2820.5227   -39440.858    144.29102 
   17800    230.99085    48.795659    114100.03   -36617.908    2819.5707   -39437.479    144.81784 
   17850    227.96311   -399.97352    114296.22   -36613.062    2782.6129   -39395.675    145.11566 
   17900    226.63015   -483.82865    114375.15    -36605.75    2766.3422   -39372.093     145.6705 
   17950    232.77927    620.91573    113997.23   -36592.349    2841.4009    -39433.75    146.16373 
   18000    229.67039   -23.259332    114390.39   -36576.498    2803.4526    -39379.95    146.94193 
   18050    233.22119   -157.92987    114458.83    -36553.05    2846.7952   -39399.845    147.61991 
   18100    232.81667    340.68799    114085.05    -36524.58    2841.8574   -39366.438    148.02856 
   18150    235.29712    62.743713    113896.26   -36497.509    2872.1347   -39369.643    148.40258 
   18200    238.62823   -199.37292    113813.96   -36480.074    2912.7957    -39392.87    149.11285 
   18250    233.71414    595.29672    113737.45   -36475.087    2852.8123   -39327.899    149.68562 
   18300    234.29524   -442.17561    114018.49   -36477.085    2859.9055    -39336.99    150.24741 
   18350     236.3749    273.41205    113734.97   -36484.494    2885.2907   -39369.785    150.65134 
   18400    232.02335    451.73946    114033.75   -36496.097    2832.1738   -39328.271    151.13551 
   18450    237.27681   -135.36627    114429.91   -36506.661    2896.2997    -39402.96    151.96455 
   18500     227.4694   -254.58211    114496.99   -36517.214    2776.5864     -39293.8    152.63152 
   18550    233.09937     50.48534    114414.42   -36525.415    2845.3082   -39370.723    153.07065 
   18600    232.20862   -84.629735    114178.51   -36533.407    2834.4353   -39367.842     153.5632 
   18650    229.19683    181.73358     114334.4   -36542.627    2797.6722   -39340.299    154.13334 
   18700    231.06584    -589.8094    114503.77   -36552.868     2820.486   -39373.354    154.81574 
   18750    229.13759   -91.895337    114500.01   -36563.856     2796.949   -39360.805    155.33099 
   18800    231.62527    252.89672    114256.82   -36572.365    2827.3147   -39399.679    155.55118 
   18850    229.10935    515.82156    114397.67   -36579.955    2796.6044   -39376.559    156.07456 
   18900    234.00125     -557.886    114330.91   -36588.686    2856.3169   -39445.003    156.46586 
   18950    229.47867   -46.767683    114095.57   -36597.901    2801.1124   -39399.014    156.88346 
   19000     227.5049    88.467227    114168.53   -36608.137    2777.0198   -39385.157    157.78583 
   19050    229.86803   -227.34108    114327.04   -36616.227    2805.8651   -39422.092    158.43592 
   19100     221.8632    29.050363    114359.19   -36623.059    2708.1547   -39331.214     159.0407 
   19150    227.73658   -898.64637    114516.81   -36629.213    2779.8477   -39409.061    159.66877 
   19200    225.53701    114.74357    114266.77   -36635.129    2752.9988   -39388.128    160.23672 
   19250    227.69565    334.35499    113961.08   -36638.747    2779.3481   -39418.095    160.36277 
   19300    227.81683     292.1267    113994.74   -36644.198    2780.8273   -39425.026     160.8907 
   19350    226.24035   -89.224495    114254.81   -36648.684    2761.5841   -39410.268    161.50286 
   19400    228.76754   -134.51569    114155.82   -36647.133     2792.432   -39439.565    162.05445 
   19450     227.4687   -163.75219     114213.3   -36640.782    2776.5778    -39417.36    162.53906 
   19500    230.07882    191.28934     113986.7   -36632.449     2808.438   -39440.887    162.50544 
   19550    229.83777    -318.6824    113817.04   -36623.503    2805.4957   -39428.999    162.87449 
   19600    232.23247   -144.96407    113550.69   -36613.368    2834.7264   -39448.094    163.32613 
   19650    229.95557    211.16248    113693.04   -36601.639    2806.9336   -39408.573    164.00323 
   19700    231.00286    153.73487    113606.44   -36591.284    2819.7173   -39411.001    164.66729 
   19750    231.27235    353.31333    113680.04   -36583.634    2823.0068   -39406.641    165.23608 
   19800    235.49896    139.63536    113619.22   -36578.553    2874.5985   -39453.152    165.83144 
   19850    234.66775    344.33955    113482.87   -36578.332    2864.4524   -39442.785    166.18845 
   19900    226.14428    79.723624    113724.05   -36584.304    2760.4115   -39344.716    166.85089 
   19950    232.01863    152.67191    113791.48   -36593.824    2832.1162    -39425.94    167.53694 
   20000    233.88025    124.30223    113774.83   -36609.092    2854.8398   -39463.932    168.16803 
Loop time of 31.3406 on 12 procs for 20000 steps with 4096 atoms

Performance: 275.681 ns/day, 0.087 hours/ns, 638.151 timesteps/s
99.8% CPU use with 12 MPI tasks x no OpenMP threads

MPI task timing breakdown:
Section |  min time  |  avg time  |  max time  |%varavg| %total
---------------------------------------------------------------
Pair    | 27.368     | 27.737     | 27.95      |   3.0 | 88.50
Neigh   | 0.66764    | 0.6763     | 0.68249    |   0.5 |  2.16
Comm    | 2.0079     | 2.2039     | 2.5555     |  10.4 |  7.03
Output  | 0.034096   | 0.036377   | 0.060251   |   3.8 |  0.12
Modify  | 0.55214    | 0.58051    | 0.59453    |   1.6 |  1.85
Other   |            | 0.1063     |            |       |  0.34

Nlocal:    341.333 ave 354 max 324 min
Histogram: 1 0 0 1 0 3 3 3 0 1
Nghost:    992.083 ave 1017 max 970 min
Histogram: 2 0 0 2 4 1 1 0 1 1
Neighs:    0 ave 0 max 0 min
Histogram: 12 0 0 0 0 0 0 0 0 0
FullNghs:  10744.8 ave 11140 max 9992 min
Histogram: 1 0 0 0 1 0 2 6 1 1

Total # of neighbors = 128938
Ave neighs/atom = 31.479
Neighbor list builds = 1241
Dangerous builds = 0

undump              1
unfix               2




################################################
#######         Run Simulation         #########
################################################

reset_timestep      0
log                 log.run_${NAME}
log                 log.run_ice_230K_1atm_ML_npt
