
# Create simulation box of size 50 x 50 x 50 Angstrom
#
lattice	            sc 1
Lattice spacing in x,y,z = 1 1 1
region 	            all block 0 50 0 50 0 50 units box
create_box          1 all
Created orthogonal box = (0 0 0) to (50 50 50)
  11 by 1 by 1 MPI processor grid

# fill box with 4169 randomly distributed atoms
#
create_atoms        1 random 4169 63782 all
Created 4169 atoms
  create_atoms CPU = 0.000403881 secs
mass                1 18.015

# Define potential
#
pair_style          sw
pair_coeff          * * ML_mW.sw mW
Reading potential file ML_mW.sw with DATE: 2019-02-27

# Run minimization
#
minimize            1.0e-8 1.0e-8 10000 1000
WARNING: Using 'neigh_modify every 1 delay 0 check yes' setting during minimization (../min.cpp:168)
Neighbor list info ...
  update every 1 steps, delay 0 steps, check yes
  max neighbors/atom: 2000, page size: 100000
  master list distance cutoff = 6.00329
  ghost atom cutoff = 6.00329
  binsize = 3.00165, bins = 17 17 17
  1 neighbor lists, perpetual/occasional/extra = 1 0 0
  (1) pair sw, perpetual
      attributes: full, newton on
      pair build: full/bin/atomonly
      stencil: full/bin/3d
      bin: standard
Per MPI rank memory allocation (min/avg/max) = 4.255 | 4.257 | 4.261 Mbytes
Step Temp E_pair E_mol TotEng Press 
       0            0    7740182.7            0    7740182.7    5859286.2 
     627            0   -45163.848            0   -45163.848   -163.39059 
Loop time of 1.21639 on 11 procs for 627 steps with 4169 atoms

99.4% CPU use with 11 MPI tasks x no OpenMP threads

Minimization stats:
  Stopping criterion = max force evaluations
  Energy initial, next-to-last, final = 
           7740182.699     -45163.6468977     -45163.8475321
  Force two-norm initial, final = 2.01918e+08 4.12292
  Force max component initial, final = 1.09487e+08 1.08313
  Final line search alpha, max atom move = 0.0412462 0.0446751
  Iterations, force evaluations = 627 1001

MPI task timing breakdown:
Section |  min time  |  avg time  |  max time  |%varavg| %total
---------------------------------------------------------------
Pair    | 0.72112    | 0.99469    | 1.138      |  11.0 | 81.77
Neigh   | 0.011562   | 0.016482   | 0.017719   |   1.3 |  1.35
Comm    | 0.039764   | 0.12435    | 0.35327    |  25.3 | 10.22
Output  | 0          | 0          | 0          |   0.0 |  0.00
Modify  | 0          | 0          | 0          |   0.0 |  0.00
Other   |            | 0.08088    |            |       |  6.65

Nlocal:    379 ave 394 max 364 min
Histogram: 2 0 1 1 0 3 0 2 1 1
Nghost:    1749.91 ave 1773 max 1718 min
Histogram: 1 0 0 2 1 1 2 1 2 1
Neighs:    0 ave 0 max 0 min
Histogram: 11 0 0 0 0 0 0 0 0 0
FullNghs:  10823.5 ave 11461 max 10284 min
Histogram: 2 1 0 3 1 1 0 0 1 2

Total # of neighbors = 119058
Ave neighs/atom = 28.5579
Neighbor list builds = 26
Dangerous builds = 0

# Add velocity/set timestep
#
velocity            all create ${TEMP} 120598 rot yes dist gaussian
velocity            all create 298 120598 rot yes dist gaussian
timestep            5.0

# Define output
#
compute	            1 all msd
thermo	            100
thermo_style        custom step temp press vol etotal ke pe c_1[4] density

# Neighbor lists
#
neigh_modify        delay 0 every 1 check yes

# Set fixes
#
fix                 1 all momentum 10 linear 1 1 1 rescale
fix                 2 all nve
fix                 3 all temp/csvr ${TEMP} ${TEMP} 500.0 928347
fix                 3 all temp/csvr 298 ${TEMP} 500.0 928347
fix                 3 all temp/csvr 298 298 500.0 928347
fix                 4 all press/berendsen iso ${PRES} ${PRES} 1000.0 modulus 20000
fix                 4 all press/berendsen iso 1 ${PRES} 1000.0 modulus 20000
fix                 4 all press/berendsen iso 1 1 1000.0 modulus 20000

# Run 0.5 ns equilibration
#
dump                1 all custom 1000 eq.${NAME}.dump id type x y z vx vy vz
dump                1 all custom 1000 eq.liquid_298K_1atm_ML.dump id type x y z vx vy vz
run                 100000
Per MPI rank memory allocation (min/avg/max) = 3.505 | 3.507 | 3.511 Mbytes
Step Temp Press Volume TotEng KinEng PotEng c_1[4] Density 
     627          298    1190.5547       125000   -41461.491    3702.3569   -45163.848 4.3566023e-33   0.99771203 
     700    190.61838    -252.8794     125624.7   -40252.503    2368.2459   -42620.749   0.37916091   0.99275067 
     800    230.31144    99.760547     125891.6   -39172.342    2861.3931   -42033.735    0.9298726   0.99064593 
     900    248.93194    155.09824    125903.76   -38519.853    3092.7345   -41612.587    1.5522532   0.99055023 
    1000    267.11001    331.27595    125975.01   -38034.377    3318.5791   -41352.956    2.3335113   0.98999005 
    1100    279.99752   -191.35911    126084.95   -37694.942    3478.6938   -41173.636     3.297324   0.98912679 
    1200    285.44908   -41.367723    125870.43   -37667.592     3546.424   -41214.016    4.2757639   0.99081258 
    1300    285.35934    124.28501    125616.79   -37550.014    3545.3091   -41095.323    5.2936348   0.99281314 
    1400    279.79921    287.79539    125806.09   -37502.126      3476.23   -40978.356    6.2735903   0.99131932 
    1500    283.05601    179.82584    125911.49   -37365.409    3516.6925   -40882.102     7.251111   0.99048947 
    1600    295.49728    18.207512    125766.21   -37158.731    3671.2631   -40829.994     8.384317   0.99163365 
    1700    294.23262   -141.83972    125716.76   -37128.558    3655.5509   -40784.109     9.442716   0.99202372 
    1800    291.09513    45.138689    125762.65   -37199.356    3616.5707   -40815.926    10.642569   0.99166174 
    1900    293.99717   -287.80328     125594.6   -37114.015    3652.6256    -40766.64    11.907894   0.99298859 
    2000    296.49691    262.93499    125730.24   -37030.479    3683.6825   -40714.162    13.088296   0.99191733 
    2100    300.34352   -310.73288     125783.2   -36933.293    3731.4728   -40664.765    14.481199   0.99149966 
    2200     298.0434    4.1900997    125428.63   -36974.714     3702.896    -40677.61    15.717034   0.99430254 
    2300    302.00913   -128.88996    125321.89   -36941.951    3752.1663   -40694.117    16.606001    0.9951494 
    2400    301.80966    140.61455    125370.14   -36944.511    3749.6881   -40694.199    17.908417   0.99476644 
    2500    298.05514    9.5138738    125271.04   -36869.233    3703.0419   -40572.275    19.221555   0.99555339 
    2600    305.88787   -98.154218    124691.64    -36779.36    3800.3558   -40579.716    20.655422    1.0001794 
    2700    299.93265   -73.505331    124872.56   -36802.833    3726.3681   -40529.201    22.076048   0.99873028 
    2800    301.33312   -90.215158    124896.61   -36800.827    3743.7675   -40544.595    23.552576   0.99853795 
    2900    305.22073    205.03186    124843.87   -36872.478    3792.0673   -40664.545    24.956696    0.9989598 
    3000    298.18665   -81.587328    125071.54   -36896.724    3704.6758   -40601.399    26.491178   0.99714136 
    3100    297.38728   -268.17428    124969.94   -36855.533    3694.7444   -40550.278    27.544251   0.99795205 
    3200    303.33867   -149.75001    124691.07   -36899.804    3768.6846   -40668.488    28.787807    1.0001839 
    3300    303.15002   -0.9846804    124887.32   -36877.898    3766.3408   -40644.239    30.257339   0.99861219 
    3400    295.95074    212.41737    124557.59   -36914.816    3676.8968   -40591.712    31.590493    1.0012557 
    3500    295.46421    97.558354    124913.57   -36973.786    3670.8522   -40644.638    33.158142    0.9984024 
    3600    290.56114    164.07614    125158.63   -36986.181    3609.9363   -40596.117    34.671971   0.99644752 
    3700    290.36835   -3.3176136    125157.08   -37051.057    3607.5411   -40658.599    35.971901   0.99645985 
    3800     297.1392    1.7992836    125055.61   -36967.994    3691.6623   -40659.656     37.47221   0.99726837 
    3900    294.85776    133.33457    125413.35   -37008.565    3663.3177   -40671.882    38.708286   0.99442365 
    4000     293.3576   -24.383701    125305.24   -37003.175    3644.6797   -40647.855    40.150796   0.99528166 
    4100    291.26222   -54.203464    125209.34   -36973.105    3618.6466   -40591.751    41.251322   0.99604392 
    4200    289.95967    209.67712     125458.7    -36964.48    3602.4637   -40566.943    42.610086   0.99406425 
    4300    297.38022     9.980692    125509.85   -36942.444    3694.6567   -40637.101    43.866109   0.99365905 
    4400     299.5664   -71.971812    125228.33   -36922.276    3721.8179   -40644.094    45.240722   0.99589286 
    4500    292.26901    79.727459     124986.4   -36984.796     3631.155   -40615.951    46.891293   0.99782061 
    4600    294.53992   -160.80348    125179.93   -37047.267    3659.3688   -40706.636    48.404925   0.99627796 
    4700    298.70076    61.871207    125191.61   -36919.329    3711.0631   -40630.392     49.72472   0.99618496 
    4800    293.20373   -144.86236    125289.75    -37000.01     3642.768   -40642.778    51.161961   0.99540465 
    4900    298.16216    155.63799    125403.49   -36830.288    3704.3715   -40534.659    52.548454   0.99450188 
    5000     300.1612   -77.507675    125508.04   -36773.156    3729.2077   -40502.364    54.127451   0.99367342 
    5100    304.87849   -195.72127    125287.29   -36870.693    3787.8153   -40658.509    55.362598   0.99542422 
    5200    302.03639    15.225724    125233.23   -36941.814     3752.505   -40694.319    56.356395   0.99585395 
    5300    294.94083   -114.67599    125321.99   -36919.206    3664.3497   -40583.556       57.664   0.99514861 
    5400    294.22777   -63.376213    125146.61   -36961.581    3655.4906   -40617.072    58.777254   0.99654321 
    5500    298.40125     6.718211    124957.16   -36950.339     3707.342   -40657.681    60.087742   0.99805408 
    5600    294.67363    383.82746    125044.91    -36919.79      3661.03    -40580.82    61.370879   0.99735374 
    5700    297.36613    26.571355    124860.61   -36954.395    3694.4816   -40648.876    62.707994   0.99882581 
    5800    296.54084   -175.13483    124458.31    -36971.63    3684.2282   -40655.858    64.120006    1.0020545 
    5900    292.10451    119.33452    124368.31   -37015.623    3629.1112   -40644.734    65.395902    1.0027796 
    6000    294.05679   -40.885212    124645.34   -37005.559    3653.3663   -40658.925    66.643498    1.0005509 
    6100    294.96658   -209.43818    124736.53   -36907.963    3664.6696   -40572.633    67.817163   0.99981942 
    6200    295.94169    32.332366    124771.54   -37013.626    3676.7843    -40690.41    68.939556   0.99953886 
    6300    296.46362   -91.253721    124779.97   -36959.273    3683.2689   -40642.542    70.483869    0.9994713 
    6400    298.42857    213.74535    125018.23   -36928.024    3707.6815   -40635.705    71.494416   0.99756651 
    6500    297.67324    27.687546     124983.4   -36845.586    3698.2972   -40543.883    72.688342   0.99784451 
    6600    291.39684   -80.598162    124943.59   -36913.375     3620.319   -40533.694     73.49747    0.9981625 
    6700    290.61988    233.23872    125467.64   -37002.524    3610.6661    -40613.19    75.180274   0.99399338 
    6800    304.61934   -67.187597    125517.69    -36907.32    3784.5957   -40691.915    76.863092   0.99359705 
    6900     301.3563   -116.79504    125586.33   -36846.781    3744.0556   -40590.836    78.351343   0.99305397 
    7000    300.93802   -30.019814    125447.39   -36877.013    3738.8589   -40615.872    79.761524   0.99415386 
    7100     300.4142    224.31223    125282.45   -36913.955    3732.3509   -40646.306     81.06795   0.99546268 
    7200    291.90552   -173.80585    125679.62    -37001.85    3626.6389   -40628.489    82.914377   0.99231685 
    7300    289.55495    6.0040896    125314.02   -37078.892    3597.4355   -40676.328    83.951865   0.99521188 
    7400    290.98825   -21.082065    125054.54   -37063.947    3615.2427   -40679.189    85.500167   0.99727688 
    7500    295.58534     225.5309    125205.05    -37032.36     3672.357   -40704.717     87.05008   0.99607805 
    7600    289.25314   -112.84867    125163.83    -37127.12    3593.6857   -40720.805    88.249035   0.99640612 
    7700    294.25517    173.11349     125152.9   -37001.108     3655.831   -40656.939     89.73485   0.99649313 
    7800    296.79097    281.48693    125365.53   -36950.592    3687.3358   -40637.928    91.104314   0.99480302 
    7900    291.74232    65.457948    125476.93   -37037.049    3624.6113    -40661.66    92.345706   0.99391979 
    8000       299.61    331.06995    125522.83   -36989.408    3722.3596   -40711.767    93.519122   0.99355633 
    8100    294.67935   -201.66103    125368.13    -37076.74    3661.1011   -40737.841    94.834212   0.99478235 
    8200    291.43588     25.61826    125542.18   -37095.638    3620.8041   -40716.442    95.789156    0.9934032 
    8300    290.74153    29.794057    125275.67    -37084.63    3612.1775   -40696.808    96.902039   0.99551652 
    8400    293.62025     75.17822    125159.77   -37030.451    3647.9428   -40678.394     98.17813   0.99643842 
    8500    295.03383    21.083843    124880.82   -36947.095    3665.5051     -40612.6    99.748746   0.99866418 
    8600     299.4343    203.02231    125340.81   -36910.454    3720.1766   -40630.631    101.42058   0.99499918 
    8700    293.61703   -227.11733    125401.82    -36909.42    3647.9027   -40557.323     103.0239   0.99451511 
    8800    300.80748   -158.46211    125172.84   -36975.414    3737.2371   -40712.651    104.01736    0.9963344 
    8900    297.41335    106.20025    125117.87   -37069.778    3695.0683   -40764.846    105.28099   0.99677208 
    9000     292.1873   -77.510021    125362.57   -37037.455    3630.1398   -40667.594    107.06834   0.99482646 
    9100    291.98977   -173.85637    125076.23   -37106.004    3627.6856    -40733.69    108.20183   0.99710396 
    9200    297.26865     87.30758    125043.95   -37007.698    3693.2706   -40700.969    109.56207   0.99736132 
    9300    295.70237   -73.612157    124773.45   -37038.821    3673.8111   -40712.632     111.0104   0.99952354 
    9400    292.78621    286.58835    124727.29   -36978.845    3637.5807   -40616.426    112.22495    0.9998935 
    9500    296.15214    141.22739     125038.9   -37011.359     3679.399   -40690.758    113.80084   0.99740165 
    9600    296.21462   -86.095271    125204.85   -36965.871    3680.1753   -40646.046    115.32198   0.99607968 
    9700    304.19356   -185.07141    125164.67   -36912.131    3779.3058   -40691.436    116.70959   0.99639945 
    9800    298.48164    6.5410335    125103.21   -37010.918    3708.3408   -40719.259    117.71273   0.99688893 
    9900    293.37966    2.2838033    125056.71   -37095.881    3644.9536   -40740.834    118.34487   0.99725961 
   10000    286.48772    205.34462    125057.52   -37086.216    3559.3281   -40645.544     119.8462   0.99725314 
   10100    293.27377   -118.45086    124942.83   -37037.056    3643.6381   -40680.694    121.02819   0.99816857 
   10200    290.30017   -230.50234    124787.61   -37124.897     3606.694   -40731.591    122.58546   0.99941018 
   10300     298.4229    167.79476    124499.99   -37096.813     3707.611   -40804.424    123.98951     1.001719 
   10400    292.84188   -108.85199    124971.34   -37026.222    3638.2722   -40664.494    125.24165   0.99794087 
   10500    293.71395    83.844388    124954.83   -36969.716    3649.1069   -40618.823    126.18316   0.99807271 
   10600    301.41034    191.01849    125274.78   -36859.854     3744.727   -40604.581    128.15941   0.99552366 
   10700    295.70485    277.62386    125236.06   -36827.938    3673.8419    -40501.78    128.76234    0.9958314 
   10800      307.021    187.33231    125035.71   -36822.484    3814.4339   -40636.918    130.01183   0.99742708 
   10900     301.4858   -84.627614    125018.51   -36888.033    3745.6645   -40633.698    131.53664   0.99756427 
   11000    300.13368    129.55977    124756.18   -36888.916    3728.8658   -40617.781    132.93258   0.99966192 
   11100    298.76538   -272.30049     124834.3   -36936.462     3711.866   -40648.328    134.46804   0.99903633 
   11200    297.84928    217.91588    125013.34   -36895.093    3700.4843   -40595.577    136.19619   0.99760559 
   11300    299.86831   -154.06902    125052.15   -36880.028    3725.5688   -40605.597     137.3314   0.99729598 
   11400    304.47775    95.565211     124934.9   -36906.296    3782.8366   -40689.132    139.26301   0.99823194 
   11500    298.73381   -262.47921    125190.31   -36986.125    3711.4737   -40697.599    140.89549   0.99619531 
   11600    293.82366   -153.81331    124852.37   -36998.462    3650.4699   -40648.931    142.67503   0.99889178 
   11700    301.84115    41.317757    125072.12    -36837.19    3750.0793   -40587.269    144.51015   0.99713668 
   11800    298.11204    181.84497    125415.85   -36938.086    3703.7489   -40641.835    146.24173   0.99440384 
   11900    298.56722   -250.11033    125179.59   -36957.841     3709.404   -40667.245    147.69747   0.99628064 
   12000    290.79322    236.19596    125186.16   -36969.024    3612.8197   -40581.844    149.12246   0.99622834 
   12100    295.36285    194.36056     125046.2   -36895.094    3669.5929   -40564.687    149.94416   0.99734338 
   12200    298.35599   -274.61679    124968.49   -36870.549    3706.7796   -40577.328    150.70976   0.99796362 
   12300    297.84857    190.65547     125017.4   -36888.488    3700.4755   -40588.964    152.08895   0.99757314 
   12400    295.91216   -140.37694    125023.62   -36862.148    3676.4175   -40538.565    153.56349   0.99752354 
   12500    295.82231   -135.78467    124806.68   -36996.657    3675.3012   -40671.958     154.8559    0.9992574 
   12600    300.96104   -158.57946    124804.58   -36889.047    3739.1449   -40628.192     156.4783   0.99927422 
   12700     296.1838   -171.91175    124952.15   -36847.597    3679.7923    -40527.39    158.17104    0.9980941 
   12800    302.56104    71.159343    124880.16   -36820.543    3759.0233   -40579.566    159.73519   0.99866949 
   12900    301.33297   -24.966219    124635.75   -36879.687    3743.7657   -40623.452    161.11806    1.0006279 
   13000    305.80269    34.790567    124560.84   -36804.523    3799.2977   -40603.821    162.49927    1.0012297 
   13100    308.89214   -76.157437    124797.32   -36807.953    3837.6809   -40645.634    164.19125   0.99933241 
   13200    304.83979    99.801382    125004.28   -36739.624    3787.3345   -40526.959    165.23162   0.99767788 
   13300    299.61155    226.93868    125150.04   -36793.805    3722.3787   -40516.184    166.39759   0.99651587 
   13400     298.0392   -60.208086    125379.47   -36902.143    3702.8438   -40604.987    167.84113   0.99469241 
   13500    299.32719      5.87187    125344.98    -36936.27    3718.8459   -40655.116    169.11741   0.99496605 
   13600    290.58572    247.90162    125516.08   -36985.066    3610.2417   -40595.308    170.59039   0.99360977 
   13700    300.61051   -171.70078    125421.04   -36924.757    3734.7899   -40659.547    171.81041   0.99436266 
   13800    300.11541    110.29623    125262.92   -36853.024    3728.6387   -40581.663    172.65578    0.9956179 
   13900    298.78399   -95.488493    125158.41   -36902.247    3712.0972   -40614.344    173.68763   0.99644927 
   14000    298.17654      71.0759    125225.26   -36889.302    3704.5501   -40593.852    175.19832   0.99591727 
   14100    299.18404    94.968557    125441.92   -36927.197    3717.0673   -40644.264    176.72066   0.99419721 
   14200    301.51077   -5.9959335     125150.4   -36969.524    3745.9747   -40715.499    177.41008   0.99651299 
   14300     284.7521    101.74825    125096.11   -37049.321    3537.7648   -40587.085    179.00737   0.99694546 
   14400    295.62994   -245.82789    124855.33   -37010.883    3672.9112   -40683.795    180.46706   0.99886804 
   14500    298.49754    126.43868    125067.65   -36914.642    3708.5384    -40623.18    182.08828   0.99717239 
   14600    301.24616   -57.701346    124889.43   -36930.282    3742.6871    -40672.97    183.23064   0.99859535 
   14700    294.28259   -26.872815    124839.74   -36983.077    3656.1717   -40639.249    184.44053   0.99899281 
   14800    296.40232    225.01571    124978.98   -37036.991    3682.5072   -40719.498    185.96602   0.99787983 
   14900    289.94802   -136.09206    124871.72   -37145.754     3602.319   -40748.073    187.39824   0.99873695 
   15000    288.43857    99.412171    124582.09   -37131.751    3583.5655   -40715.316    188.44304    1.0010589 
   15100    289.02738    145.12888    124869.48   -37164.577    3590.8808   -40755.457    190.17781   0.99875491 
   15200    296.22543   -123.38769     124717.7   -37058.667    3680.3096   -40738.977    191.29119   0.99997039 
   15300    297.14854   -210.98336    125011.76   -37052.373    3691.7784   -40744.151    193.05401   0.99761817 
   15400    297.64975     31.64756    125064.75   -37018.752    3698.0053   -40716.757    194.56065   0.99719549 
   15500    295.72509   -45.354858    125239.57   -37018.373    3674.0934   -40692.467     196.8025   0.99580354 
   15600     297.2143    103.45386    125428.93   -36915.047    3692.5953   -40607.642    198.28826   0.99430017 
   15700    293.48065   -88.346143    125182.17   -37031.575    3646.2084   -40677.783    198.99263   0.99626014 
   15800    296.42053   -236.85523     125172.7   -37063.262    3682.7335   -40745.995    200.29192    0.9963355 
   15900     291.6625   -61.780789    124824.01   -37123.646    3623.6197   -40747.265    201.44152    0.9991187 
   16000    294.32766    4.4764755    125050.35   -37007.257    3656.7316   -40663.988    202.63226   0.99731032 
   16100    298.60129   -25.644183    125242.17    -36924.45    3709.8273   -40634.277    203.86551   0.99578283 
   16200    298.53237    72.108603    124941.94   -36997.673    3708.9711   -40706.644    204.67713   0.99817565 
   16300    291.76301   -0.1361897    124966.97   -37035.442    3624.8684   -40660.311    206.21561   0.99797576 
   16400    302.68107    15.038421    124924.26   -36891.598    3760.5146   -40652.112    207.35561   0.99831694 
   16500    304.23717   -180.06215    124945.17   -36902.158    3779.8475   -40682.006    208.71582   0.99814988 
   16600    302.10679   -119.21548    125111.89   -36882.325    3753.3796   -40635.705    209.47531   0.99681974 
   16700    296.40226    69.923798    125239.55   -36958.831    3682.5065   -40641.338    210.85431   0.99580368 
   16800    300.32215    48.667019    125334.27   -36938.296    3731.2073   -40669.503    212.56836   0.99505113 
   16900    296.88091    244.63699    125307.02    -36854.26    3688.4532   -40542.714    214.10211   0.99526746 
   17000    295.09369    239.02168    125231.41   -36891.876    3666.2488   -40558.125    215.78943   0.99586839 
   17100    305.93054   -98.300496    125179.01   -36767.178    3800.8861   -40568.064     217.2302   0.99628528 
   17200    304.46528    139.01319    125480.32   -36761.685    3782.6816   -40544.366    218.41189   0.99389291 
   17300    294.04424    -286.8964    125370.98   -36896.589    3653.2104     -40549.8    219.63392   0.99475976 
   17400    301.32525   -193.26108    125067.42   -36941.978    3743.6698   -40685.648    220.16706   0.99717423 
   17500    297.87284     -34.9527    125235.34   -36945.284     3700.777   -40646.061    221.48875   0.99583711 
   17600    301.79392    114.99535    125276.59   -36891.361    3749.4926   -40640.854    222.87949   0.99550923 
   17700    298.21775   -205.92976    125251.97   -36946.557    3705.0622    -40651.62     224.5259   0.99570494 
   17800     296.4077   -129.06792    125294.63   -36928.574     3682.574   -40611.148    226.34426   0.99536593 
   17900    298.64106   -127.37852    125287.51   -36895.029    3710.3213   -40605.351    227.61369    0.9954225 
   18000    304.12711      109.308     125086.2   -36825.359    3778.4801   -40603.839    228.47455   0.99702449 
   18100    295.10275    -259.3771    125475.44   -36929.021    3666.3613   -40595.382    230.78904   0.99393162 
   18200    298.29336    145.09737       125409   -36921.794    3706.0016   -40627.796    231.62184   0.99445819 
   18300    306.20688    251.07205    125737.24   -36800.952    3804.3192   -40605.271    233.44281   0.99186207 
   18400    301.12414    146.48786    125416.37   -36876.513    3741.1712   -40617.684    233.64972   0.99439969 
   18500    299.94246    -100.5623    125280.06   -36831.738      3726.49   -40558.228    234.81074   0.99548166 
   18600    298.68306   -97.175581    125173.92   -36906.936    3710.8432   -40617.779    235.76982   0.99632577 
   18700    293.58477    26.398146    125187.41   -36858.983    3647.5019   -40506.485    238.42018    0.9962184 
   18800    305.81767    77.956799    125254.55   -36815.922    3799.4838   -40615.405    239.01159   0.99568442 
   18900    299.82916    34.889254    125125.12   -36870.434    3725.0824   -40595.516    240.55164   0.99671433 
   19000    298.47054   -403.40619    124954.47    -36846.69    3708.2028   -40554.892    241.29468   0.99807557 
   19100    297.25521   -269.76209    124832.48   -36934.551    3693.1035   -40627.654    243.03891   0.99905093 
   19200     295.6879     -22.7105    125141.04   -36886.392    3673.6312   -40560.023    244.99263   0.99658758 
   19300    303.06755     149.7392    125092.78   -36798.189    3765.3162   -40563.505    246.44891   0.99697202 
   19400    303.33318    27.184314    125075.66   -36837.599    3768.6164   -40606.215    247.00218   0.99710852 
   19500     298.0841   -214.06878    125107.92   -36814.583    3703.4017   -40517.985    247.75723   0.99685135 
   19600    296.37742    97.264956    125156.24    -36872.05    3682.1979   -40554.248    249.08038    0.9964665 
   19700    305.48164    83.014477    125402.06   -36835.542    3795.3089    -40630.85    250.51883   0.99451316 
   19800    296.88403   -172.19313    125279.57   -36866.889    3688.4921   -40555.381    251.76633   0.99548556 
   19900      296.709    -97.82916    125088.36    -36895.29    3686.3174   -40581.607    253.46903   0.99700729 
   20000    298.59281    92.894294    125223.74   -36986.361    3709.7219   -40696.082    254.92971   0.99592939 
   20100    296.32754   -14.766214    125352.11   -36912.585    3681.5782   -40594.164    256.03565   0.99490945 
   20200    296.79545    15.613897    125226.35   -36976.718    3687.3915    -40664.11    256.05038   0.99590862 
   20300    294.39328   -89.159252    125221.22   -37003.583    3657.5469    -40661.13    257.06936   0.99594942 
   20400    298.74138    27.708551    124692.13   -37027.885    3711.5678   -40739.453    258.14749    1.0001754 
   20500    292.87046     220.1347    124815.45   -36982.692    3638.6274   -40621.319     259.0223   0.99918722 
   20600    296.31056   -43.699537    124699.37   -37020.857    3681.3673   -40702.224    260.24663    1.0001173 
   20700    297.12669    -58.29949    124691.43   -36933.508    3691.5068   -40625.015    262.11319     1.000181 
   20800    305.03269    313.63851    125074.18   -36938.664    3789.7312   -40728.395    264.76549   0.99712032 
   20900    295.66616   -111.93925    125133.82   -36982.621    3673.3612   -40655.982    266.52956    0.9966451 
   21000    292.30763   -77.137877    124726.78   -37149.994    3631.6348   -40781.628    266.78181   0.99989756 
   21100    288.25952    297.48616    124695.68   -37156.573     3581.341   -40737.914    266.69644     1.000147 
   21200    294.80846   -146.60647    125077.32   -37113.079    3662.7051   -40775.785    267.42307   0.99709527 
   21300    291.05977    189.60133    125134.52   -37116.895    3616.1314   -40733.027    268.77559   0.99663947 
   21400    292.60382    44.570959     125018.5   -37072.904    3635.3146   -40708.219    269.51355   0.99756435 
   21500    297.75006    29.414316    125282.84   -37066.661    3699.2517   -40765.913    270.86682   0.99545955 
   21600    302.64913   -248.32989    124983.46   -37036.133    3760.1177   -40796.251    271.43914    0.9978441 
   21700    297.72789    150.87235     124599.5   -36983.596    3698.9761   -40682.572    271.62201     1.000919 
   21800    298.06664   -35.623286    124941.83   -36957.364    3703.1848   -40660.549    273.47276   0.99817656 
   21900    298.48972    126.52168     125256.1   -36968.525    3708.4412   -40676.966    275.13281   0.99567206 
   22000    292.65836    19.396818     125116.2   -37054.354    3635.9922   -40690.347    276.53087   0.99678539 
   22100    302.90333   -17.283815    125266.23   -36949.484    3763.2759    -40712.76     278.2913   0.99559155 
   22200    301.51408     72.67843    125137.81   -36983.611    3746.0159   -40729.627    279.84441   0.99661331 
   22300    298.21285    71.236132    125468.72   -36952.315    3705.0013   -40657.316    282.14088   0.99398486 
   22400    301.75547    -182.4686    125447.24   -36910.965    3749.0149    -40659.98    283.71857   0.99415504 
   22500    299.20182    253.38143    125698.71   -36903.602    3717.2883    -40620.89    285.66429   0.99216617 
   22600    299.72204    106.52949    125457.64   -36864.858    3723.7514   -40588.609    286.25641   0.99407261 
   22700    297.94289    168.56986    125403.88   -36873.693    3701.6474    -40575.34    287.28697    0.9944988 
   22800    303.04296    41.022803    125463.73   -36836.781    3765.0107   -40601.792     288.6563   0.99402436 
   22900     294.8665    188.90718     125655.3   -36858.754    3663.4262   -40522.181    290.85827   0.99250891 
   23000    299.37406   -93.712068    125352.71   -36807.529    3719.4282   -40526.957    292.01642   0.99490472 
   23100    297.14423    165.79832    124995.57   -36955.028    3691.7248   -40646.753     292.9552   0.99774741 
   23200    296.32653   -48.662341    125149.09   -36886.066    3681.5656   -40567.632    294.45885   0.99652342 
   23300    294.72886   -62.085944     124958.9   -36932.837    3661.7162   -40594.553    295.35179   0.99804022 
   23400    295.89982     22.09331    124896.51   -36869.616    3676.2642    -40545.88    296.41927   0.99853876 
   23500    293.09239    135.51085    125157.54   -36918.469    3641.3847   -40559.853    298.76453    0.9964562 
   23600    297.88395    196.81434    125182.82   -36897.551    3700.9151   -40598.466     300.3531   0.99625494 
   23700    297.27914    281.61872    125023.76   -36969.901    3693.4009   -40663.302    301.38299   0.99752244 
   23800    286.82627   -27.973996    125051.14   -37034.007    3563.5343   -40597.542    302.14304   0.99730401 
   23900    292.10548    108.10229    125559.25   -37011.415    3629.1232   -40640.538     304.1526   0.99326811 
   24000    302.13082   -56.143347    125403.34   -36939.778    3753.6782   -40693.456    305.43611   0.99450306 
   24100     292.9963    8.6409643    125177.68   -36938.724    3640.1908   -40578.915    306.38411   0.99629587 
   24200    286.66722    115.20752    125648.54   -36984.167    3561.5582   -40545.726    308.88954   0.99256227 
   24300    296.83808   -26.005397    125569.88   -36957.791    3687.9212   -40645.712    309.65502   0.99318403 
   24400    292.64244   -222.28037    125412.95   -37001.411    3635.7944   -40637.205    310.69923   0.99442684 
   24500     296.2593   -100.39716    125369.72   -36938.124    3680.7303   -40618.854    311.26194   0.99476972 
   24600    298.70049    314.12118    125553.15   -36944.573    3711.0598   -40655.633    313.25135   0.99331641 
   24700    295.38155   -70.362925    125550.97   -36999.857    3669.8251   -40669.682    314.60163   0.99333369 
   24800    296.92308    83.106499    125160.23   -37031.228    3688.9771   -40720.205    315.26685   0.99643473 
   24900    302.02055   -255.51584    125051.61   -36929.841    3752.3083   -40682.149    316.50868   0.99730028 
   25000    301.37034    50.433378    124811.98   -36895.866      3744.23   -40640.096     317.6813     0.999215 
   25100    297.56701    403.26326    125003.04   -36902.722    3696.9774   -40599.699    319.67009   0.99768779 
   25200    299.52394   -218.17337    125061.98     -36965.5    3721.2902    -40686.79     320.8279   0.99721758 
   25300    304.39116   -191.49904    124749.65   -36944.192    3781.7607   -40725.953    321.94247   0.99971424 
   25400    308.10637   -103.55089    124951.16   -36954.331    3827.9186   -40782.249    323.49024   0.99810204 
   25500    301.91279    109.24635    125191.56   -36905.294    3750.9694   -40656.264    325.82531   0.99618538 
   25600    301.24779   -54.946632     124811.3   -37050.518    3742.7074   -40793.226     327.3243   0.99922041 
   25700    292.97006    75.533298    124815.19   -37054.391    3639.8648   -40694.255    329.08244    0.9991893 
   25800    296.75199   -184.99432    125021.83   -37034.791    3686.8516   -40721.643    331.92339   0.99753778 
   25900    295.86053    26.798566    124782.34   -36991.656     3675.776   -40667.432    333.87416   0.99945236 
   26000    296.62014    82.546554    124936.73   -36912.113    3685.2135   -40597.327    336.21256   0.99821732 
   26100    296.47461   -52.020118    124909.03   -36981.327    3683.4054   -40664.732    337.39276   0.99843866 
   26200     298.1019   -180.52641    125011.81    -36978.31    3703.6229   -40681.933    338.99041   0.99761779 
   26300    304.82094    178.86234    124934.46   -36942.256    3787.1004   -40729.357    340.54973   0.99823539 
   26400    295.75595   -149.76732    125013.76   -36928.728    3674.4768   -40603.205    342.41889   0.99760222 
   26500    293.11621   -153.81028    124991.67    -36977.41    3641.6806   -40619.091    342.95643    0.9977785 
   26600    293.96734    55.107359    124942.76   -37021.932    3652.2551   -40674.187    344.79249   0.99816908 
   26700     296.0395    -7.180041    124850.65   -37030.483    3677.9996   -40708.483    346.33837   0.99890554 
   26800    298.01106    300.70414    125065.73   -36977.253    3702.4942   -40679.748     348.1075    0.9971877 
   26900    299.90796    106.08435    125044.97   -36972.341    3726.0614   -40698.403    349.31645   0.99735321 
   27000    292.68764   -133.39575     125044.8   -37013.566     3636.356   -40649.923    350.90791   0.99735459 
   27100    297.12106   -232.94193    124999.71   -37018.596    3691.4369   -40710.033    352.27779   0.99771432 
   27200    299.17571    254.97828    125045.84    -37016.45    3716.9639   -40733.414    353.58536   0.99734626 
   27300    293.18659   -232.75617    125186.09   -37066.608     3642.555   -40709.163    354.38185   0.99622894 
   27400    299.56544     114.0638    125270.04   -36959.465    3721.8059   -40681.271    355.80087   0.99556132 
   27500    293.81064   -153.38177    125203.07   -36879.863    3650.3081   -40530.171    356.83761   0.99609379 
   27600    294.57954   -164.14295    125068.03   -36901.681     3659.861   -40561.542    357.94427   0.99716937 
   27700    298.47538   -90.257342    125009.14   -36922.741     3708.263   -40631.004    358.53748   0.99763904 
   27800    301.35257    64.976338    125021.37   -36842.791    3744.0092     -40586.8     359.9554   0.99754146 
   27900     300.7515   -76.572272    124980.08   -36911.302    3736.5415   -40647.844    361.37808   0.99787107 
   28000    299.58018    225.25032       125448   -36959.394     3721.989   -40681.383    363.52865   0.99414896 
   28100    298.35931   -103.14535     125496.6   -36918.826     3706.821   -40625.647    364.78912   0.99376403 
   28200    293.94224   -139.00955    125628.44   -36962.542    3651.9431   -40614.485    367.43465   0.99272108 
   28300    295.68902   -111.11648    125242.55   -36921.499    3673.6453   -40595.144    367.07097   0.99577986 
   28400     291.3771   -155.94023    124806.24   -37026.114    3620.0739   -40646.188    367.14675   0.99926099 
   28500    290.84673    105.24196    124802.76   -37056.632    3613.4846   -40670.117    369.01705   0.99928882 
   28600    297.77042    148.07216    124962.73   -36959.332    3699.5045   -40658.837    370.10834   0.99800958 
   28700    301.64664   -8.5086057    125265.76   -36968.622    3747.6627   -40716.285    371.60305   0.99559529 
   28800    299.80789   -93.119622    124958.99   -36935.392    3724.8182    -40660.21    373.01804   0.99803943 
   28900    301.13542    35.199474    125198.93   -36904.003    3741.3113   -40645.314    374.85879   0.99612679 
   29000    301.46723    90.195499    124903.94   -37008.489    3745.4337   -40753.923    375.29057   0.99847935 
   29100    290.30255    245.34006    125004.44   -36941.807    3606.7236   -40548.531    377.42093   0.99767659 
   29200    299.89212   -26.243973     124929.1   -36879.976    3725.8645   -40605.841    378.20411   0.99827825 
   29300     298.9803   -21.612693    124948.34   -36962.305    3714.5361   -40676.841    378.85389   0.99812455 
   29400    293.26157   -255.04013    124775.35   -37073.079    3643.4866   -40716.566      379.692   0.99950833 
   29500    297.10035    5.1501879    124848.97   -37056.976    3691.1796   -40748.156    381.12135   0.99891896 
   29600    295.31888    91.684134    124800.62   -36954.509    3669.0466   -40623.556    382.86366   0.99930598 
   29700    301.08846    343.75406     124727.2   -37016.186    3740.7279   -40756.914    384.25585   0.99989418 
   29800    293.43153    43.140617    124621.65   -37015.735    3645.5981   -40661.333    385.85328    1.0007411 
   29900      298.249    192.14585    124675.63   -37039.093    3705.4505   -40744.544    387.76849    1.0003078 
   30000    299.90764     219.3206    124811.65   -36997.459    3726.0574   -40723.516    389.64449   0.99921767 
   30100    297.89326     190.2017     125090.4   -36997.194    3701.0307   -40698.224    391.35179     0.996991 
   30200    293.67436   -294.30624    124882.02   -37001.683     3648.615   -40650.298     391.8365   0.99865458 
   30300    295.83286    117.80216    124666.16   -36931.279    3675.4322   -40606.711    392.16145    1.0003838 
   30400    294.02042    60.430068    124561.59   -36921.404    3652.9145   -40574.319    393.11784    1.0012236 
   30500    297.98051    374.31684    124611.67   -36913.078    3702.1148   -40615.193    394.61797    1.0008212 
   30600    299.09866    10.981633    124864.74   -36889.071    3716.0066   -40605.077    395.92308   0.99879278 
   30700     298.9178    20.907905    124882.79   -36910.845    3713.7596   -40624.605    396.89359   0.99864846 
   30800    300.45026    184.70893    124850.14    -36839.83    3732.7989   -40572.629    398.74434   0.99890963 
   30900    296.71073   -12.046577    124914.38   -36964.007     3686.339   -40650.346    400.79805    0.9983959 
   31000    295.18757   0.98004142    125094.24    -37027.83    3667.4151   -40695.245    402.22328   0.99696041 
   31100    295.73508    -96.26576    124863.13   -37051.943    3674.2174    -40726.16    402.92921   0.99880567 
   31200    293.33521   -12.444455    124868.24   -37049.777    3644.4014   -40694.178    404.49233   0.99876484 
   31300    298.99229    170.13506    124884.87   -36970.684    3714.6851   -40685.369    406.12511   0.99863183 
   31400    301.11569    18.230233    124746.13   -36922.013    3741.0662   -40663.079     407.5392   0.99974248 
   31500    298.21932   -11.574488     124947.4   -36989.194    3705.0817   -40694.276    409.99817     0.998132 
   31600    296.47692    125.02118    124765.38   -36923.191    3683.4341   -40606.625    411.06246    0.9995882 
   31700    298.05008    214.93925    125059.16   -36979.513     3702.979   -40682.492    412.89324   0.99724005 
   31800    302.51012   -47.252096     125192.9   -36888.332    3758.3906   -40646.722    414.74391   0.99617474 
   31900     294.3103     167.5301    125164.45   -36871.723     3656.516   -40528.239    415.72402   0.99640114 
   32000    300.94589    366.06659    125066.73   -36856.484    3738.9566   -40595.441     416.2672   0.99717966 
   32100    297.92092    8.3421555    125016.37   -36854.403    3701.3743   -40555.777    417.44214   0.99758136 
   32200    293.85238     -150.634    125207.06    -36828.83    3650.8268   -40479.657     419.2186   0.99606204 
   32300    303.25985    228.83062    125401.25   -36801.533    3767.7053   -40569.239    420.64854   0.99451964 
   32400    298.39779   -88.329716    125378.55   -36886.835     3707.299   -40594.134    421.74824   0.99469968 
   32500    294.90689   -128.88413    125131.22   -36932.479    3663.9281   -40596.407    422.81979   0.99666577 
   32600    299.40942    3.8673694    125127.88   -36859.865    3719.8675   -40579.732    423.82024   0.99669234 
   32700     293.8994     85.19311    125325.34   -36924.595    3651.4109   -40576.006    426.70632   0.99512198 
   32800    294.69326   -189.91455    125485.82   -36981.117    3661.2738   -40642.391    428.79889   0.99384938 
   32900    293.89151    -52.16901    125294.52   -36986.373    3651.3129   -40637.686    428.97361   0.99536676 
   33000    293.07191    163.52156    125334.44   -37065.357    3641.1302   -40706.488    430.58996   0.99504978 
   33100    300.73655    41.589833    125450.63   -37002.089    3736.3558   -40738.445    432.95985   0.99412815 
   33200    292.06279   -116.47396    124938.28   -37061.709    3628.5928   -40690.302    432.74169   0.99820493 
   33300    303.31375   -56.410082    124861.73   -36967.104     3768.375   -40735.479    433.54824   0.99881688 
   33400    300.46057    29.054386    124798.92   -37084.154     3732.927   -40817.081    435.19289   0.99931955 
   33500    292.21137    294.21697    124629.55   -37046.001    3630.4388    -40676.44    436.65186    1.0006776 
   33600    298.03477   -71.534126    124976.08    -36987.52    3702.7888   -40690.309    439.00232   0.99790299 
   33700    297.79848   -20.331904    124973.51   -36977.767    3699.8532    -40677.62    439.42141   0.99792352 
   33800    299.57292    17.680806    124844.52   -36968.724    3721.8989   -40690.623    440.25253   0.99895459 
   33900     299.0182    42.624607    124745.76   -36994.576    3715.0069   -40709.583     440.8737    0.9997454 
   34000    298.25484    -56.26173     125052.6   -36922.232     3705.523   -40627.755    442.70821   0.99729234 
   34100    293.91918   -214.64758    125110.08   -36937.808    3651.6567   -40589.465    444.11539   0.99683418 
   34200    295.45065    330.45176    125177.82   -36933.374    3670.6837   -40604.058    444.91254   0.99629476 
   34300    292.52847   -8.2960543    125139.22   -37008.042    3634.3785    -40642.42    445.92487   0.99660202 
   34400    294.55426   -125.96241    125137.89   -36879.297    3659.5469   -40538.844    447.35703   0.99661263 
   34500    299.32752    82.744215    125180.87    -36920.43      3718.85    -40639.28     449.3173   0.99627045 
   34600    299.65051   -80.091018    125043.71   -36917.625    3722.8628   -40640.487    449.99484   0.99736323 
   34700    293.51626    34.230541    125001.59   -37066.783    3646.6508   -40713.434    451.26754   0.99769932 
   34800    293.77714    56.478298    125071.61   -37035.005     3649.892   -40684.897     452.3469    0.9971408 
   34900    295.29744    126.19534    125178.37   -37024.922    3668.7802   -40693.702    453.37879   0.99629036 
   35000    292.24721    20.281684    125270.44   -37122.698    3630.8841   -40753.582    453.94834   0.99555812 
   35100    295.84715    196.61532    125147.69   -37013.497    3675.6098   -40689.107    455.13103   0.99653463 
   35200    297.70595   -258.90511    125064.92   -37019.713    3698.7036   -40718.417    456.06768   0.99719415 
   35300    296.72543   -35.545058    125035.53   -37006.563    3686.5216   -40693.085    457.11822   0.99742855 
   35400    293.47144    193.48267    124784.15   -37043.977    3646.0939   -40690.071    458.41879   0.99943783 
   35500    303.41596    168.24083    125201.91   -36911.849    3769.6448   -40681.494    460.62083   0.99610305 
   35600    298.29743    -103.2479    125080.67   -36980.631    3706.0521   -40686.683    461.20684   0.99706855 
   35700    300.48007    -243.1851    125093.52   -36916.884    3733.1693   -40650.053    463.02658   0.99696614 
   35800    301.59258    245.49968    124993.97   -36956.694    3746.9911   -40703.685    464.13729   0.99776013 
   35900    301.00541    69.586846    125012.27   -36928.863    3739.6961   -40668.559    465.69354   0.99761409 
   36000    298.22151    224.19246    125130.37   -36888.246     3705.109   -40593.355    467.07208    0.9966725 
   36100    301.86326     118.9037     125100.3   -36909.803    3750.3541   -40660.157    467.32323   0.99691208 
   36200    300.25729   -19.952044    125293.37   -36930.425    3730.4015   -40660.826    468.82614   0.99537595 
   36300    295.98515   -8.8427358    125555.14   -36998.254    3677.3244   -40675.578    470.70478   0.99330068 
   36400    302.73828    24.685353    125333.97   -36895.902    3761.2254   -40657.127    471.75734   0.99505351 
   36500    295.36244      15.9905    125299.72   -36903.744    3669.5877   -40573.332    472.77033   0.99532549 
   36600    294.54603   -2.9483971    124865.41   -37096.143    3659.4446   -40755.588    472.73091   0.99878741 
   36700    298.16941   -59.369886    125009.69   -37031.596    3704.4616   -40736.058    474.85708   0.99763471 
   36800     292.4419   -268.62811    124875.92   -37006.979     3633.303   -40640.282    476.97579   0.99870335 
   36900    299.46565   -93.614689    124647.15    -37026.14    3720.5661   -40746.706    477.55733    1.0005363 
   37000     296.6624   -33.476496     124464.4   -36949.861    3685.7385   -40635.599    478.90482    1.0020054 
   37100    300.49058     19.75161    124355.07   -36916.791    3733.2998   -40650.091    479.80351    1.0028864 
   37200    299.24246   -50.213039    124467.94    -36997.24    3717.7932   -40715.033    481.69993    1.0019769 
   37300    297.03376    223.63628    124839.02   -37023.055    3690.3523   -40713.407     483.9678   0.99899861 
   37400    293.70178    1.2958389    125044.53   -37053.098    3648.9557   -40702.053    486.24339   0.99735671 
   37500    291.69765   -268.70854    125087.01   -37053.127    3624.0564   -40677.183    488.02577     0.997018 
   37600    296.31334    305.77676    125198.64   -36972.385    3681.4018   -40653.787    490.47241   0.99612908 
   37700    295.86571    10.157606    125273.52   -36992.254    3675.8404   -40668.094    491.51863   0.99553365 
   37800    291.85729   -29.503717    125334.16   -37122.143    3626.0397   -40748.183    491.69866   0.99505196 
   37900    291.25514   -101.15386    125027.65   -37088.992    3618.5585   -40707.551    492.94481   0.99749142 
   38000    297.85732   -62.988599     124893.3   -37050.877    3700.5841   -40751.461    493.77259   0.99856438 
   38100    295.59143   -164.35509    124885.18   -36984.022    3672.4328   -40656.454    494.69963   0.99862933 
   38200    297.48136   -120.56391    125106.13   -36978.608    3695.9133   -40674.521    496.69843   0.99686566 
   38300    300.14857    119.74251    124834.07   -36909.206    3729.0507   -40638.257    497.12226   0.99903818 
   38400    297.68199    124.89785    124400.42   -36994.378    3698.4059   -40692.784    496.89402    1.0025207 
   38500    290.95499    85.583414    124269.78   -37020.247    3614.8296   -40635.076    497.44722    1.0035747 
   38600    299.74995    65.433495     124443.5   -36946.113    3724.0983   -40670.212    499.15965    1.0021737 
   38700    295.55269   -8.5862367    124612.59   -36963.107    3671.9515   -40635.059    501.19095    1.0008139 
   38800    292.84206    182.50077    124630.76   -36979.754    3638.2745   -40618.028    502.03228    1.0006679 
   38900     301.2187      17.1818    124612.49   -36903.008    3742.3461   -40645.354    503.14895    1.0008147 
   39000    295.46935   -35.422177    124545.68   -36987.836     3670.916   -40658.752    503.70237    1.0013515 
   39100    298.79582    2.9427993    124882.67   -36931.575    3712.2442   -40643.819    506.12165   0.99864936 
   39200    295.03803   -94.753813    125085.86   -36974.731    3665.5573   -40640.288    507.42199   0.99702717 
   39300    299.29919   -171.72256    125050.11   -36945.541    3718.4981   -40664.039    508.71385   0.99731223 
   39400    298.84612   -287.46942    125289.33   -36917.644    3712.8691   -40630.513    511.07342     0.995408 
   39500    303.85455   -33.722354    125195.51   -36890.372    3775.0939   -40665.466    511.21169   0.99615399 
   39600    292.72328    61.938623    125110.32    -36931.55    3636.7987   -40568.349    512.95027   0.99683227 
   39700    299.97576   -68.310304    125133.96   -36876.568    3726.9037   -40603.471    515.33149   0.99664392 
   39800      301.257   -36.123231    124735.88   -36972.967    3742.8218   -40715.789    515.15717   0.99982463 
   39900    297.98392   -72.550033    124731.59   -37040.603     3702.157    -40742.76    516.64642   0.99985897 
   40000    292.69734    39.148048    124470.38   -37085.493    3636.4765   -40721.969    517.04717    1.0019573 
   40100    294.97877   -56.633915    124657.72   -36950.265    3664.8211   -40615.087    518.83925    1.0004515 
   40200    299.16473    210.83338    124703.44   -36977.467    3716.8274   -40694.294    520.26307    1.0000847 
   40300    303.32349    203.40918     124819.7   -36932.091     3768.496   -40700.587    521.23699   0.99915322 
   40400    301.74719     223.0304     125042.2   -36804.453     3748.912   -40553.365    522.48597   0.99737535 
   40500    306.13413   -35.260113    125411.43   -36816.648    3803.4154   -40620.063    523.75801   0.99443892 
   40600    300.12573    131.69265    125292.12   -36854.357     3728.767   -40583.124    524.61409   0.99538582 
   40700    295.09173    34.813735    125076.59   -36953.607    3666.2244   -40619.831    524.22768   0.99710112 
   40800    293.72881   -142.56402    124910.14   -37006.395    3649.2916   -40655.686    524.53052   0.99842977 
   40900    294.21491    111.93615    124749.29   -37029.263    3655.3308   -40684.594    526.07806   0.99971717 
   41000    300.16964   -36.448302    124931.99   -36951.786    3729.3125   -40681.099    527.33574   0.99825515 
   41100    297.77639    108.29033    124656.14   -36950.985    3699.5787   -40650.563    527.43962    1.0004642 
   41200    296.38965    113.78229    124951.73   -36953.818    3682.3498   -40636.168    529.44013   0.99809744 
   41300    291.75828    281.90512    124796.74    -37151.34    3624.8096   -40776.149    530.62656   0.99933701 
   41400     296.1954    76.486972    125151.33   -37083.606    3679.9365   -40763.543    533.21882   0.99650561 
   41500    294.57605   -184.02418    125240.29    -37085.91    3659.8177   -40745.727    535.48461   0.99579778 
   41600    293.57046   -49.132389    125223.06   -37028.093    3647.3242   -40675.417     536.4377   0.99593479 
   41700    294.89965   -159.53764    125351.35   -36977.401     3663.838   -40641.239    539.18089   0.99491555 
   41800    298.59508   -128.67179    125346.66   -36999.832    3709.7502   -40709.582    541.19381   0.99495278 
   41900    295.51139    79.953511    125416.83   -36968.586    3671.4383   -40640.025     543.3765   0.99439605 
   42000    300.77486   -102.13293    125545.53   -36931.786    3736.8318   -40668.618     546.0125   0.99337666 
   42100    297.01313   -225.82424    125108.31   -36934.519     3690.096   -40624.615     545.7953   0.99684828 
   42200    296.97705   -39.008773    124989.31   -36879.602    3689.6477    -40569.25     546.6757   0.99779738 
   42300    296.57964   -20.488361    124839.38   -36830.222    3684.7103   -40514.932    547.38568   0.99899573 
   42400    292.96206   -105.50672    124613.23   -36872.627    3639.7654   -40512.392    548.10572    1.0008087 
   42500    299.91092    -47.65716    124512.39   -36853.983    3726.0981   -40580.081    548.34932    1.0016193 
   42600    295.28339   -257.63731    124497.07   -36882.387    3668.6057   -40550.993    549.51957    1.0017425 
   42700    300.46762    129.54996    124857.97   -36889.785    3733.0146   -40622.799    551.51892   0.99884692 
   42800    305.40787   -226.22758    125036.58   -36803.824    3794.3924   -40598.217    553.51378   0.99742012 
   42900    295.12318    215.83667    125315.66   -36917.068    3666.6152   -40583.684    555.08839   0.99519884 
   43000    295.20146    27.958041    125445.27   -36952.909    3667.5877   -40620.497    557.11598    0.9941706 
   43100      298.189   -118.16122    125435.16   -36930.508     3704.705   -40635.213    558.20751   0.99425077 
   43200    301.19699   -43.020018    125327.17    -36879.61    3742.0763   -40621.686    558.87994   0.99510745 
   43300    300.58889   -20.989363    125073.11   -36904.067    3734.5213   -40638.588    560.82944   0.99712886 
   43400    304.55769   -218.80604    125232.32   -36859.235    3783.8297   -40643.065    562.28351   0.99586113 
   43500    306.04499    179.70801     125110.6   -36885.608     3802.308   -40687.916     563.5019   0.99683005 
   43600     303.5895    301.27109    125125.62   -36737.046    3771.8009   -40508.847    565.80579   0.99671041 
   43700    302.85885    170.73436    125032.29   -36796.652    3762.7233   -40559.375     567.1972   0.99745439 
   43800    303.35019   -124.39955    124882.81   -36794.749    3768.8277   -40563.576    568.56509   0.99864824 
   43900    302.62139   -112.66623    125184.95   -36839.638     3759.773   -40599.411    570.59352   0.99623797 
   44000    298.82568   -342.71972    125242.57   -36900.807    3712.6152   -40613.422    571.90787   0.99577964 
   44100    299.12404   -63.259141    125282.38   -36929.493    3716.3219   -40645.815    572.32806   0.99546325 
   44200    295.13094    87.854141    125079.64   -36950.009    3666.7116    -40616.72    571.93499   0.99707679 
   44300     290.6628   -160.36726    124926.08   -36974.472    3611.1993   -40585.672    572.80749   0.99830235 
   44400    296.32414    76.666716    125020.23   -36928.636    3681.5359   -40610.172    574.32501   0.99755061 
   44500    296.13223   -152.50728    124761.73   -36986.272    3679.1516   -40665.423     576.2679    0.9996175 
   44600    294.13056   -20.669606    124696.43   -37062.128    3654.2828   -40716.411     577.3246    1.0001409 
   44700    291.20311     26.03453    124837.88   -37029.627    3617.9122    -40647.54    579.29638   0.99900771 
   44800    300.88301    219.06036     124968.7    -36987.18    3738.1754   -40725.356    581.42679   0.99796195 
   44900    296.89416   -35.477785     125183.7   -36923.779    3688.6179   -40612.397    583.47147   0.99624796 
   45000    292.13626   -339.73044    125317.42   -36939.959    3629.5057   -40569.465    585.25844   0.99518489 
   45100    301.65331    145.51899    125073.53   -36839.917    3747.7456   -40587.663     585.9964   0.99712549 
   45200    298.82562    44.911017    125365.78   -36908.611    3712.6143   -40621.225    587.78464   0.99480099 
   45300    298.87142     180.3358    125234.39   -36966.776    3713.1834   -40679.959    589.29381   0.99584474 
   45400    303.38989    3.0378651    125223.13    -36934.92     3769.321   -40704.241    590.07109   0.99593426 
   45500     298.0155   -10.299546    125368.69   -36946.016    3702.5494   -40648.566    591.44254    0.9947779 
   45600    300.07948   -76.805058    125433.61   -36950.025    3728.1924   -40678.217    592.89246   0.99426304 
   45700    293.30466   -342.97126    125418.76   -36945.548    3644.0219    -40589.57    593.13031   0.99438081 
   45800    303.94863   -19.991616    125556.57   -36857.176    3776.2627   -40633.439    595.91334   0.99328937 
   45900    302.99623   -89.288437    125016.77   -36790.843      3764.43   -40555.273    595.80438   0.99757816 
   46000    302.60955   -211.42334    124756.11   -36787.436     3759.626   -40547.062    596.35507   0.99966247 
   46100    301.52996     76.35742     124819.1   -36720.667    3746.2132    -40466.88    598.08393   0.99915805 
   46200     310.8311    248.50635       124918   -36711.302    3861.7707   -40573.073    600.04548   0.99836699 
   46300    301.63543   -18.051421    124785.73    -36753.74    3747.5236   -40501.264    601.28365   0.99942521 
   46400      303.998   -328.20415    124825.71   -36790.986    3776.8761   -40567.862    603.31075   0.99910512 
   46500    297.15076    50.977168    125027.57   -36799.964    3691.8059    -40491.77    604.41939   0.99749205 
   46600    302.52717    76.361748    125011.29   -36794.489    3758.6025   -40553.091    605.71867   0.99762196 
   46700    293.30996    -66.23482    124908.06   -36894.839    3644.0877   -40538.926    607.58723   0.99844643 
   46800    295.03422    18.039971    124859.08   -36967.899      3665.51   -40633.409    608.27178    0.9988381 
   46900    305.11711    27.004047    124644.92   -36888.921    3790.7799   -40679.701    609.57484    1.0005543 
   47000    300.63428       201.86    124917.96   -36848.173    3735.0852   -40583.258    612.21479   0.99836724 
   47100    303.55312   -9.0815093    125187.93    -36811.65    3771.3489   -40582.999    614.31956    0.9962143 
   47200    300.16677    129.10549    125055.17   -36901.482    3729.2768   -40630.759    615.59741   0.99727191 
   47300    300.41125     25.44914    124939.16   -36961.266    3732.3143    -40693.58    616.54347   0.99819788 
   47400    299.52235    125.85922    125200.22   -36883.137    3721.2706   -40604.408    619.32287   0.99611646 
   47500    300.39618   -165.11515     125237.2   -36786.634     3732.127   -40518.761    622.07204   0.99582235 
   47600    305.32407    292.72413    125328.34   -36735.899    3793.3512    -40529.25    624.11611   0.99509815 
   47700    299.01705   -289.83936    125270.47   -36815.743    3714.9926   -40530.736    625.46667   0.99555786 
   47800    302.82065    173.68035     125020.5   -36813.338    3762.2487   -40575.587    624.95895   0.99754844 
   47900    295.13537    52.996541    125486.11   -36945.436    3666.7666   -40612.202    626.88361   0.99384711 
   48000    295.06448   -31.066935    125374.73    -36965.48    3665.8859   -40631.366    628.37284   0.99472999 
   48100    296.03363    227.40602    125046.06   -36911.939    3677.9266   -40589.866    629.02115   0.99734452 
   48200    296.27926    -281.3052    124766.86    -36915.41    3680.9784   -40596.388    629.71037   0.99957634 
   48300     296.4508    196.81741    124804.71   -36901.818    3683.1095   -40584.928    632.13442   0.99927319 
   48400    301.20982   -116.90647    124869.38   -36794.071    3742.2358   -40536.307    633.36057   0.99875571 
   48500    303.47911   -110.02969    124692.07   -36877.298    3770.4294   -40647.727    633.77263    1.0001759 
   48600    298.27668     296.4782     124555.3   -36893.057    3705.7944   -40598.851    635.33357    1.0012741 
   48700    300.69526    96.075048    124612.02    -36846.95    3735.8428   -40582.793    637.71458    1.0008184 
   48800    299.29203    284.97717    124917.43   -36898.397     3718.409   -40616.806    638.99636   0.99837148 
   48900     300.2502   -24.963709    125209.18   -36897.753    3730.3134   -40628.067    641.59395   0.99604517 
   49000    299.34415   -50.824153    125145.26   -36958.202    3719.0566   -40677.259    643.22005   0.99655393 
   49100    296.47876   -35.221418    125394.94   -36951.872     3683.457   -40635.329    645.05877   0.99456963 
   49200    295.75313   -31.221729    125335.49    -36957.33    3674.4418   -40631.772    646.30997   0.99504143 
   49300     294.9017   -23.112625    125396.48   -36891.082    3663.8635   -40554.945    647.00676   0.99455746 
   49400    301.73499    -45.32101    125447.04   -36877.491    3748.7604   -40626.252    648.61557   0.99415659 
   49500    298.58964   -29.377921     125098.9   -36908.859    3709.6826   -40618.542    648.90016   0.99692324 
   49600    300.60652   -14.828014    125029.75   -36919.692    3734.7403   -40654.432    650.77649    0.9974746 
   49700    298.59874   -88.862265    124984.48   -36937.955    3709.7956    -40647.75    653.00798   0.99783592 
   49800    294.07645    84.529724    125056.92   -36987.488    3653.6106   -40641.099    654.02919   0.99725789 
   49900    302.98423    87.160978    125362.44   -36829.258     3764.281   -40593.539    656.11689   0.99482751 
   50000    298.98642    -136.3901    125399.81   -36874.067    3714.6121   -40588.679    658.88908   0.99453102 
   50100    300.57825   -19.658599    125171.81   -36890.853    3734.3891   -40625.242     658.4492   0.99634256 
   50200    295.87166   -64.264241    125173.74   -36944.577    3675.9143   -40620.491    660.49575    0.9963272 
   50300      297.887    132.12495    125188.62   -36905.539     3700.953   -40606.492    661.76962   0.99620878 
   50400    300.21179   -5.8930336    125112.13   -36954.097    3729.8361   -40683.933    662.52361   0.99681786 
   50500    289.65919      201.827    124984.99   -36996.819    3598.7305    -40595.55    663.03207   0.99783182 
   50600    293.82928   -167.71039    124986.31   -37016.071    3650.5397   -40666.611     663.3482   0.99782134 
   50700    298.84911   -179.54148    125158.57    -37036.59    3712.9063   -40749.496    663.92956     0.996448 
   50800    294.62418    83.112685    125396.42   -37043.116    3660.4157   -40703.532    665.66989   0.99455792 
   50900    296.47623   -17.860626    125262.89   -36931.072    3683.4255   -40614.497    666.41923   0.99561812 
   51000    294.40999   -149.02583    124705.16   -36987.007    3657.7545   -40644.761    666.05056    1.0000709 
   51100    292.15012    50.353603    124695.51   -37011.314    3629.6779   -40640.992    667.92647    1.0001483 
   51200    295.07395    8.8148688    124881.56   -36985.852    3666.0036   -40651.856    669.97675    0.9986583 
   51300    292.99613    78.399231    124689.19   -37078.412    3640.1887   -40718.601     671.3711     1.000199 
   51400    297.54415    45.076031    124825.62   -37054.525    3696.6934   -40751.218    674.03454   0.99910581 
   51500    293.41562   -69.310891    125004.34   -37068.952    3645.4004   -40714.353    676.03166   0.99767741 
   51600    295.97999    30.927549    125053.26   -36986.767    3677.2603   -40664.027    677.22188   0.99728708 
   51700    296.38101    236.77864    125238.07   -36956.835    3682.2425   -40639.078    678.53581   0.99581545 
   51800     296.7451    46.951343    125169.39   -37001.101     3686.766   -40687.867    680.04957   0.99636186 
   51900    289.90982   -136.31283    124944.01   -37086.901    3601.8443   -40688.745    680.85121   0.99815911 
   52000    291.25926   -305.47912    124803.98   -37095.435    3618.6097   -40714.044    681.20063   0.99927908 
   52100    291.12982   -36.975563    124729.71   -37006.983    3617.0016   -40623.985    682.31389   0.99987406 
   52200    292.42155    188.57402    125020.18   -37014.692    3633.0501   -40647.742     684.4976     0.997551 
   52300    292.31485   -184.84103    125213.45    -37006.02    3631.7245   -40637.744    686.23398   0.99601127 
   52400    298.50629    199.14892    125228.56   -36943.765    3708.6471   -40652.412    687.11655   0.99589104 
   52500     302.6693   -18.096063    125005.87   -36937.391    3760.3683   -40697.759    688.26387    0.9976652 
   52600    300.96304     115.4566    125193.89   -36989.891    3739.1698   -40729.061     691.0751   0.99616682 
   52700     290.5043    79.318868     125427.6   -37005.013    3609.2301   -40614.243    693.69096   0.99431067 
   52800    295.67558     -54.5779    125463.62    -36907.21    3673.4783   -40580.688    696.06087   0.99402521 
   52900     298.8446   -18.738471    125501.24   -36895.945    3712.8502   -40608.796     698.3257   0.99372724 
   53000    295.09129    9.1233561    125290.81   -36866.082     3666.219   -40532.301    699.24542   0.99539626 
   53100     300.2536   -172.63103     125219.7   -36914.424    3730.3556   -40644.779    699.35634   0.99596153 
   53200    298.19348    173.64502    125171.27   -36922.194    3704.7607   -40626.954    700.59578   0.99634686 
   53300    297.82781   -132.41717    125008.35   -36924.601    3700.2176   -40624.819    702.29701   0.99764539 
   53400     296.9601   -86.758188    125100.27   -37034.854    3689.4371   -40724.291    704.06803   0.99691236 
   53500    302.60876   -248.78178    124989.97   -37072.303    3759.6162   -40831.919     704.8536   0.99779209 
   53600    294.60399   -10.782387    125106.54   -37072.771    3660.1648   -40732.936    707.20136   0.99686235 
   53700    297.45728   -98.880116    125014.05    -37129.46     3695.614   -40825.074     707.7694   0.99759992 
   53800    298.54454    293.83248    124992.37   -36988.685    3709.1222   -40697.808    708.06548   0.99777293 
   53900    291.04797    170.12582    124902.04   -37042.264    3615.9847   -40658.249    708.05616   0.99849455 
   54000    299.01075   -98.153104     124973.7   -37012.619    3714.9145   -40727.533    708.84271   0.99792197 
   54100     298.4537   -138.96041    124935.35   -37044.414    3707.9936   -40752.407     709.6155   0.99822829 
   54200    291.93711    278.47553    124719.57   -37020.347    3627.0314   -40647.379    710.56116   0.99995541 
   54300    297.29297    37.370569    124884.88   -36977.058    3693.5727    -40670.63    712.89397   0.99863175 
   54400    293.93201   -177.49246    125162.64   -37010.354     3651.816    -40662.17    714.97049   0.99641554 
   54500    298.85389    -92.15328    125078.08   -36977.399    3712.9656   -40690.365    716.15988   0.99708922 
   54600    303.36386    97.841442    125021.96   -36838.543    3768.9975    -40607.54    718.11497   0.99753678 
   54700    295.54742   -11.064473    125252.33   -36854.982    3671.8859   -40526.868     722.2112   0.99570203 
   54800    295.27955   -109.56008    125018.79   -36942.948     3668.558   -40611.506     722.1614   0.99756211 
   54900    299.18656    154.82239    124884.06   -37001.276    3717.0987   -40718.374    722.94855   0.99863825 
   55000    295.13003    48.987538     125192.1   -37079.349    3666.7002   -40746.049    725.65405   0.99618112 
   55100    293.71211   -180.61925    124699.75   -37043.129    3649.0841   -40692.213    725.67067    1.0001143 
   55200    297.83661    263.03602    124758.89   -37076.619    3700.3269   -40776.946    726.92866   0.99964018 
   55300    296.22766    -70.08338    124938.71   -36983.298    3680.3373   -40663.636    728.85856   0.99820149 
   55400    296.92505   -54.268359    125114.54   -36930.596    3689.0016   -40619.598    729.81151   0.99679866 
   55500    302.23548   -144.01832    124970.51   -36850.167    3754.9785   -40605.146    731.38281   0.99794748 
   55600    301.80441   -5.7909577    124755.07   -36891.511    3749.6229   -40641.134    733.10931   0.99967085 
   55700    301.18907    -208.4839    125154.46   -36883.619    3741.9779   -40625.597     735.4815   0.99648067 
   55800    294.63518    128.91064    125271.13   -36904.406    3660.5523   -40564.958    737.14274   0.99555267 
   55900    296.47227    81.211537    125075.43   -36860.058    3683.3764   -40543.435    737.71205    0.9971103 
   56000    298.92115   -6.3885263    125162.66   -36847.626    3713.8012   -40561.427    739.81971   0.99641539 
   56100    301.63472   -185.67576    125252.78   -36807.318    3747.5147   -40554.833     741.9385   0.99569851 
   56200     300.5081   -123.10759    125325.04   -36803.786    3733.5175   -40537.304     743.5057   0.99512436 
   56300     297.6494   -167.85502    124927.12   -36866.847     3698.001   -40564.848    742.42798    0.9982941 
   56400    298.02723   -247.68648    124952.71   -36859.714    3702.6952    -40562.41    744.60672   0.99808959 
   56500    296.77061    52.810898     124685.2   -36991.766    3687.0829   -40678.849    744.66424     1.000231 
   56600    290.94275    205.81422    124807.48   -37002.577    3614.6775   -40617.255     746.0879   0.99925101 
   56700    292.10814    92.303337    124863.26    -37034.93    3629.1563   -40664.086    746.11666   0.99880464 
   56800    298.51263   -115.45392    124875.98   -36936.082    3708.7258   -40644.808    747.12142   0.99870289 
   56900    300.41946    119.86155    124907.69   -36913.661    3732.4163   -40646.077    748.71779   0.99844935 
   57000    301.92268    19.263109    125050.17   -36854.444    3751.0923   -40605.536    751.13183   0.99731176 
   57100    296.58298   -107.92543    125176.86   -36935.203    3684.7518   -40619.954    752.15005   0.99630235 
   57200    296.67323    20.407868    125016.18   -36971.544    3685.8731   -40657.417    751.56638   0.99758293 
   57300    292.43993    143.69793    124775.78   -37040.073    3633.2784   -40673.351    752.02855    0.9995049 
   57400    297.35891   -161.78375    124922.65   -37064.885     3694.392   -40759.277    754.06989    0.9983298 
   57500    296.38039    58.840226    124757.12   -37133.154    3682.2348   -40815.389    755.25252   0.99965438 
   57600    295.10897   -5.3153401    124776.55   -37065.579    3666.4386   -40732.018    755.90437   0.99949873 
   57700    291.25007    206.34489    124746.83   -37116.727    3618.4956   -40735.222    757.64652   0.99973683 
   57800    287.29977    -19.88041    124871.71    -37144.67    3569.4171   -40714.087    758.95444   0.99873708 
   57900    292.19885   -57.079686    124889.22   -37100.712    3630.2833   -40730.996    760.31723   0.99859702 
   58000    292.21385   -53.467323    124515.08   -37099.616    3630.4697   -40730.086    760.26984    1.0015976 
   58100    290.39926    38.823583    124368.61   -37008.486    3607.9251   -40616.411    762.01618    1.0027772 
   58200    295.57631    293.48434    124804.53   -36939.525    3672.2449    -40611.77     766.0044   0.99927463 
   58300    307.63843    85.943557    124999.69   -36870.832    3822.1049   -40692.937    768.03589   0.99771448 
   58400    297.08869    176.24618    125298.77   -36868.071    3691.0347   -40559.106    770.41966   0.99533304 
   58500    301.82645    102.55915    125027.67   -36883.172    3749.8967   -40633.069     771.3292   0.99749119 
   58600    297.35292   -22.448218    124961.17   -36830.919    3694.3175   -40525.237     772.1122   0.99802205 
   58700    304.42101    89.860324    124808.47   -36820.443    3782.1316   -40602.574    772.74502   0.99924308 
   58800     297.3647   -43.159727    124456.24   -36906.626    3694.4638    -40601.09    773.59965    1.0020711 
   58900    304.15578   -76.296284    124350.69   -36951.479    3778.8364   -40730.316    776.03099    1.0029217 
   59000    298.61249    3.0940841    124328.06   -36938.367    3709.9665   -40648.333    777.28812    1.0031042 
   59100    298.63429   -2.1200621    124472.95   -36947.065    3710.2373   -40657.302    779.79046    1.0019366 
   59200     296.2941    18.623712    124450.71   -36952.139    3681.1627   -40633.302    781.42902    1.0021156 
   59300    294.79552   -34.158735    124843.03   -36924.429    3662.5443   -40586.973    784.16217   0.99896648 
   59400    295.35159    295.20262    125245.83    -37008.14    3669.4529   -40677.593    787.77978   0.99575374 
   59500    294.62099    40.355628    125760.92   -36969.772     3660.376   -40630.148    791.43356   0.99167535 
   59600    294.42914   -8.6001187    125700.87   -36963.411    3657.9924   -40621.403     791.8776   0.99214909 
   59700    299.23328   -66.798553    125525.06   -37012.534    3717.6792   -40730.213    792.80186   0.99353872 
   59800    296.81584    117.83914    125407.04    -37022.34    3687.6448   -40709.985    794.95009   0.99447371 
   59900    292.65302    59.400766    125482.86   -36988.466    3635.9259   -40624.392    796.88102    0.9938728 
   60000    292.93639   -173.59234    125428.97   -37035.472    3639.4465   -40674.919    797.26957   0.99429985 
   60100    295.13596   -38.606522    125551.98    -36973.36     3666.774   -40640.134    798.89828   0.99332565 
   60200    300.49521   -122.72245    125474.75   -36952.118    3733.3574   -40685.475    799.30472   0.99393708 
   60300    302.20718    164.94947    125428.59   -36893.509     3754.627   -40648.136    800.09478   0.99430285 
   60400    300.89796     85.04937    125387.25   -36814.153    3738.3612   -40552.514    801.69433   0.99463064 
   60500    296.87091   -213.20973       125067   -36839.526     3688.329   -40527.855    800.52911   0.99717757 
   60600    296.86343    105.73667     124909.1   -36904.831    3688.2361   -40593.067    800.00162    0.9984381 
   60700    294.36177    234.00293    125046.37   -36930.106    3657.1554   -40587.262    800.83161   0.99734205 
   60800    297.53706     151.4226    125384.22   -36854.841    3696.6053   -40551.447    804.03513   0.99465466 
   60900    295.20554    123.55414    125255.96   -36847.371    3667.6385    -40515.01    805.28786   0.99567324 
   61000    297.63886     42.62439    125400.98   -36901.717    3697.8701   -40599.587    807.87959   0.99452179 
   61100    295.96503    45.540599    125198.16    -36983.51    3677.0744   -40660.584    807.82387   0.99613286 
   61200    298.24538   -245.37553    125251.29   -37002.972    3705.4055   -40708.377    809.47693   0.99571032 
   61300    294.14796    131.50046    125383.53   -36996.191    3654.4991    -40650.69    811.69598    0.9946602 
   61400    290.97852     9.693356    124999.57   -37019.369    3615.1218   -40634.491    811.02442   0.99771548 
   61500    293.79819   -273.13798    124972.97   -37019.615    3650.1535   -40669.768    812.21281    0.9979278 
   61600    298.97103   -42.657159    125103.23   -36962.853     3714.421   -40677.274    813.95189   0.99688878 
   61700    294.81218    84.963981    125449.24   -37041.524    3662.7513   -40704.276    815.96238   0.99413914 
   61800    290.59476   -109.26751    125280.51   -37122.119     3610.354   -40732.473    816.54242   0.99547806 
   61900    291.67339   -152.67329     125204.2   -37014.644    3623.7549   -40638.399    816.99848   0.99608484 
   62000     299.2985    3.8491608    125117.64   -36988.412    3718.4895   -40706.901    816.63805   0.99677392 
   62100    293.11558   -52.784682    125103.37   -37013.024    3641.6727   -40654.697    818.20586   0.99688767 
   62200    301.52935    231.95389    125039.32   -36961.371    3746.2056   -40707.577    819.15861   0.99739832 
   62300    293.58719    65.680588    125206.75   -36997.235     3647.532   -40644.767    821.00142   0.99606454 
   62400    298.48812    120.41546    125401.11    -36920.02    3708.4213   -40628.441    822.43423   0.99452072 
   62500    296.62954    159.05061    125706.47    -36917.02    3685.3302    -40602.35     824.0365   0.99210492 
   62600    292.03792    23.841384    125672.24    -36941.86    3628.2839   -40570.144     824.1913   0.99237512 
   62700    296.14756   -120.54028    125703.25    -36952.92    3679.3421   -40632.262    825.86402   0.99213031 
   62800    300.43875    51.135306    125807.71   -36934.375    3732.6559   -40667.031     827.8969   0.99130652 
   62900    298.24016    27.113248     125512.8   -36872.229    3705.3406   -40577.569    826.95966   0.99363578 
   63000    296.26556   -72.250696     125315.7   -36816.232    3680.8081    -40497.04    827.29943   0.99519853 
   63100    301.21394   -49.161057    125282.64   -36776.611    3742.2868   -40518.898    828.40263    0.9954612 
   63200    306.88699   -62.371157     125342.5    -36850.02     3812.769   -40662.789    829.74459   0.99498575 
   63300     297.8143    67.754263    125532.39   -36901.675    3700.0498   -40601.725    832.07828   0.99348068 
   63400    301.18065    89.869886    125799.97   -36787.588    3741.8733   -40529.462    834.68142   0.99136749 
   63500    300.95485   -66.089762    125443.83   -36899.555     3739.068   -40638.623    833.58421   0.99418208 
   63600    300.41177    245.12046    125436.39   -36906.896    3732.3208   -40639.217    834.86448     0.994241 
   63700    301.45984   -28.911731    125243.68   -36939.021     3745.342   -40684.363    835.85022   0.99577083 
   63800    293.56408    176.42488    125201.78   -37103.468    3647.2449   -40750.713    837.33519   0.99610411 
   63900    296.45933    71.565232    125168.74   -37103.536    3683.2155   -40786.751    838.72866   0.99636703 
   64000    296.39312   -43.001094    125282.09   -37060.882    3682.3929   -40743.275    839.75073   0.99546552 
   64100    300.47291      78.1011    125162.82   -36944.583    3733.0804   -40677.663    841.04293   0.99641415 
   64200    293.21733     -24.9549    125059.83   -36939.035    3642.9369   -40581.972    841.83713   0.99723468 
   64300    306.77512    143.91102    125336.71   -36784.141    3811.3791   -40595.521    844.75426    0.9950317 
   64400    302.67893     267.2468    125536.16   -36828.699    3760.4879   -40589.186    847.96921   0.99345087 
   64500    302.50495   -143.50967    125540.94   -36812.912    3758.3264   -40571.238     848.5026   0.99341303 
   64600    299.74405   -235.49165    125678.96   -36912.304     3724.025   -40636.329    850.24529   0.99232208 
   64700    300.28259   -32.775784    125776.14   -36937.653    3730.7158   -40668.369    852.74483   0.99155533 
   64800     297.6124    95.834201    125805.09   -36961.768    3697.5414   -40659.309    854.82466   0.99132713 
   64900    298.28248    -129.2707    125682.84   -36909.044    3705.8664   -40614.911    855.92761   0.99229144 
   65000    301.91548   -161.78814    125653.34   -36877.858    3751.0028   -40628.861     857.2627   0.99252438 
   65100    300.12815    214.96935    125348.38   -36938.355     3728.797   -40667.152    856.96311   0.99493913 
   65200    305.09729   -214.19316       124971   -36914.066    3790.5337     -40704.6    856.39475   0.99794354 
   65300     294.1306    283.60482    124877.53     -36901.8    3654.2833   -40556.084    856.43596   0.99869047 
   65400    303.89328    4.5819075    125110.16   -36788.971    3775.5751   -40564.546    859.19957   0.99683356 
   65500    299.03034    114.64374    124911.82   -36898.947    3715.1578   -40614.105    860.36561   0.99841636 
   65600    293.39527   -49.006283    124616.45    -36965.37    3645.1476   -40610.517     861.2131    1.0007828 
   65700    293.95563    43.342934    124613.45   -37049.225    3652.1095   -40701.334    862.03546     1.000807 
   65800    297.41648   -69.468915     124577.9   -37065.461    3695.1072   -40760.569     863.0877    1.0010925 
   65900    295.90615   -135.41955    125058.99   -36996.811    3676.3428   -40673.154    867.28638    0.9972414 
   66000    301.01894   -236.33095    125156.84   -36851.445    3739.8642   -40591.309    868.15832   0.99646175 
   66100     302.3115   -89.021841    125006.91   -36800.328     3755.923   -40556.251    869.24555   0.99765685 
   66200    301.29006    187.28022    125069.26    -36772.24    3743.2327   -40515.472    871.95505   0.99715956 
   66300    299.53796    113.67344    125179.04   -36802.141    3721.4645   -40523.605      874.548   0.99628503 
   66400    301.27363   -67.329269    124775.37    -36867.01    3743.0285   -40610.038    875.49193   0.99950821 
   66500    299.65397   -61.278618    124864.34   -36929.398    3722.9058   -40652.304    876.86878     0.998796 
   66600     297.7217    405.79041    125094.88   -36953.832    3698.8992   -40652.731    879.21472   0.99695534 
   66700    300.86897    52.741151    125043.33   -36978.717     3738.001   -40716.719    881.42827   0.99736627 
   66800    297.74634    89.934022    125108.41   -36914.836    3699.2054   -40614.041    883.87295   0.99684745 
   66900    294.40257   -161.14415    125383.89    -36940.95    3657.6624   -40598.613    886.95815   0.99465735 
   67000    296.10078    17.402156     125637.6   -37011.542    3678.7609   -40690.303     890.0885   0.99264873 
[...]
   84600    292.31849   -195.22917    124784.42   -37051.457    3631.7697   -40683.226    1120.1092   0.99943569 
   84700     292.1632    164.48679    124981.18   -37074.214    3629.8404   -40704.054    1122.0727   0.99786227 
   84800    297.38874    43.862668    124689.58   -37029.135    3694.7625   -40723.898    1121.7655    1.0001959 
   84900    294.49161    148.12251    124881.48   -37002.153    3658.7686   -40660.921    1124.5181   0.99865888 
   85000     303.1427    64.657775    125128.23   -36910.857    3766.2499   -40677.107    1126.7796    0.9966896 
   85100    297.45829   -29.969247    125089.32   -36947.924    3695.6267    -40643.55    1126.6071   0.99699963 
   85200     303.2887   -257.46814    125124.06   -36949.018    3768.0637   -40717.082    1128.0465    0.9967228 
   85300    288.70578   -139.17912    125045.78   -37000.131    3586.8853   -40587.017    1129.4197   0.99734677 
   85400    299.85288    244.72657    125156.33   -36983.739    3725.3771   -40709.116    1131.6968   0.99646581 
   85500    294.53814   -118.15392     125252.4   -36946.392    3659.3467   -40605.739    1133.2644    0.9957015 
   85600     297.0402   -147.02628       124908   -36904.091    3690.4323   -40594.524    1132.6911   0.99844685 
   85700    302.88365   -203.20682    124419.14   -36960.954    3763.0314   -40723.986    1130.7802    1.0023699 
   85800    299.80638    30.318303    124339.36   -36994.719    3724.7993   -40719.519    1129.8302    1.0030131 
   85900    303.01495    193.29006    124899.68   -36863.205    3764.6627   -40627.868    1133.7367   0.99851341 
   86000     297.1823    105.75413    124939.08    -36927.11    3692.1977   -40619.308    1135.7838   0.99819848 
   86100    297.54453   -84.736482    124824.65   -36915.008    3696.6981   -40611.706    1136.1549   0.99911362 
   86200    299.39118    142.31714    124684.08   -36858.841    3719.6409   -40578.482    1137.3254      1.00024 
   86300    297.82424    65.836388    124561.14   -36907.478    3700.1733   -40607.652    1138.1128    1.0012272 
   86400    301.61073    236.21579     124736.8   -36950.744    3747.2167    -40697.96    1141.8103   0.99981723 
   86500    296.53239    2.4372295    125053.27   -36883.662    3684.1232   -40567.785    1145.0287   0.99728699 
   86600    301.06301    150.14808    124910.54   -36811.028    3740.4117   -40551.439    1144.1086   0.99842654 
   86700    300.18747   -169.14936    125085.67   -36800.394     3729.534   -40529.928    1146.0215   0.99702868 
   86800    299.48388    77.895322    125077.43   -36874.254    3720.7925   -40595.047     1147.499   0.99709439 
   86900    301.66481      203.423    125026.68   -36808.176    3747.8886   -40556.064    1147.8112   0.99749914 
   87000    298.49086    5.5387757    125426.71   -36812.751    3708.4553   -40521.206    1150.9489   0.99431776 
   87100    296.80251    64.950036    125454.63   -36893.204    3687.4792   -40580.683    1151.7343   0.99409643 
   87200    300.01576   -118.52649    125283.29   -36892.227    3727.4007   -40619.628     1152.827   0.99545604 
   87300    297.29615   -31.681098    125102.71   -36920.001    3693.6122   -40613.613    1153.4613   0.99689291 
   87400    300.45571    144.55034    124923.47   -36951.939    3732.8666   -40684.805     1153.577   0.99832322 
   87500    296.67958    -130.1824       124899   -36930.843    3685.9519   -40616.795    1154.6002   0.99851886 
   87600     295.9718    -48.04027    125005.94   -36938.139    3677.1585   -40615.297    1157.2786   0.99766466 
   87700    299.03347   -11.719218    125118.65   -36942.223    3715.1967    -40657.42    1159.3558   0.99676588 
   87800    297.29732   -56.786305    124899.14   -36912.282    3693.6267   -40605.908    1158.2469   0.99851775 
   87900    295.35303     107.2052    124918.31   -36907.811    3669.4709   -40577.282    1159.7415   0.99836451 
   88000    295.31028    37.023912    125230.17   -36950.976    3668.9398   -40619.916    1163.0698   0.99587828 
   88100    301.40175    -179.4504    124899.62   -36895.727    3744.6202   -40640.347    1163.2254   0.99851388 
   88200    300.72556   -137.46929    124871.79    -36869.41    3736.2193    -40605.63       1164.4   0.99873638 
   88300    299.33768    13.532598    124743.26   -36893.102    3718.9762   -40612.079    1165.8217   0.99976549 
   88400    287.35121   -126.72733     124583.4   -37027.021    3570.0562   -40597.077    1167.2332    1.0010483 
   88500    302.33087    16.532125     124548.1   -36892.452    3756.1636   -40648.615    1166.8442    1.0013321 
   88600     299.1448   -47.082686    124606.91   -36843.948    3716.5799   -40560.528    1170.0219    1.0008595 
   88700    305.18286    420.57928    124571.78   -36825.192    3791.5968   -40616.789    1172.1841    1.0011417 
   88800     301.6938     -14.9355    124861.55   -36738.099    3748.2487   -40486.348    1174.3431   0.99881831 
   88900    299.47288    -200.0336    124648.76   -36797.881    3720.6559   -40518.537    1173.7057    1.0005234 
   89000    305.54683    39.384267    124585.08   -36775.678    3796.1188   -40571.796    1174.4591    1.0010348 
   89100    295.13259    76.600759     124505.9   -36923.995    3666.7321   -40590.727    1175.4756    1.0016715 
   89200    297.85287    188.68296     124558.5   -36959.588    3700.5289   -40660.117    1177.7443    1.0012484 
   89300    293.28621   -1.9415257    124674.75   -36976.028    3643.7927   -40619.821    1180.4088    1.0003149 
   89400    297.30202    561.48179    124793.67   -37018.735    3693.6852    -40712.42    1181.3717   0.99936161 
   89500    291.72936    45.287768    124760.97    -37093.31    3624.4504    -40717.76    1183.2532   0.99962351 
   89600    288.74364    133.35378    124811.09   -37158.773    3587.3557   -40746.129    1184.8918   0.99922213 
   89700    293.15196   -276.34737    124838.02   -37129.554    3642.1248   -40771.679    1186.3274   0.99900658 
   89800    294.48441    205.38614    124945.23   -37085.658    3658.6791   -40744.337    1188.3984   0.99814936 
   89900    291.15892   -14.252878    124828.87   -37146.199    3617.3631   -40763.562    1188.3603   0.99907985 
   90000    299.07425    6.7043284    124973.24   -37039.748    3715.7033   -40755.452    1190.0641   0.99792568 
   90100    295.67218   -148.64404    124726.81   -37059.773     3673.436   -40733.209    1187.3497   0.99989735 
   90200    292.51352   -33.388238       124682   -37104.258    3634.1928   -40738.451    1188.3514    1.0002566 
   90300      295.657    44.954619    124837.21   -37108.392    3673.2474   -40781.639    1189.4973   0.99901306 
   90400    301.26634   -159.65751    124826.17    -37099.04    3742.9379   -40841.978    1189.5689   0.99910142 
   90500    297.08264    36.703396    124677.41   -37051.412    3690.9595   -40742.372    1189.6916    1.0002935 
   90600    301.81293    149.38391    124730.32   -36942.242    3749.7288    -40691.97    1190.7496   0.99986916 
   90700    300.59071   -97.246352    125047.18   -36940.841    3734.5439   -40675.384    1194.4409   0.99733563 
   90800    299.61646   -285.09356    124962.35     -36955.4    3722.4398    -40677.84    1194.3799    0.9980126 
   90900    293.39659    160.82623    124981.61   -37062.135     3645.164   -40707.299    1196.4315   0.99785883 
   91000    297.41645    81.046314    125054.64    -37077.49    3695.1069   -40772.597    1197.8723   0.99727608 
   91100     293.7832    95.083035    124716.29   -37081.286    3649.9672   -40731.253     1197.043   0.99998169 
   91200    297.88098   -99.692682    124752.79   -37048.839    3700.8782   -40749.717    1199.2938   0.99968909 
   91300    298.62035   -153.27066    124550.41   -36911.199    3710.0641   -40621.263    1198.8943    1.0013134 
   91400    298.56124   -90.857446    124705.09   -36874.027    3709.3298   -40583.357    1201.2906    1.0000715 
   91500    301.00737    291.70181    125034.39   -36863.106    3739.7205   -40602.827    1204.8507   0.99743762 
   91600    296.49114    127.45537    124912.33   -36918.605    3683.6107   -40602.215     1204.641   0.99841225 
   91700    301.44559     259.6639    125358.67   -37009.124     3745.165   -40754.289    1209.7404   0.99485744 
   91800    295.41002   -130.47651    125455.33    -36960.38    3670.1789   -40630.559    1211.1455   0.99409092 
   91900    294.18264      22.3435     125474.9   -36957.451    3654.9299   -40612.381    1213.2633   0.99393589 
   92000    298.50077   -52.519823    125323.95   -36965.759    3708.5785   -40674.338    1214.3431   0.99513302 
   92100    289.94039   -284.12926    125173.34   -37052.892    3602.2242   -40655.116    1213.6429   0.99633041 
   92200     298.7626    136.35467    125005.34   -36949.763    3711.8314   -40661.594    1213.3451   0.99766941 
   92300    302.77837   -107.14243    124897.95   -36847.957    3761.7233    -40609.68    1213.5035   0.99852719 
   92400    302.38619    118.19303    124839.21   -36869.161     3756.851   -40626.012    1214.2305   0.99899703 
   92500    293.46125     58.56397       124714   -36910.172    3645.9674    -40556.14    1213.8119    1.0000001 
   92600    299.49109    82.362605    124703.55   -36868.158    3720.8822    -40589.04     1216.341    1.0000839 
   92700    301.63055    1.0608695    124464.29   -36848.171    3747.4628   -40595.633    1216.2444    1.0020063 
   92800    295.57545    54.907682    124454.64   -36901.785    3672.2341   -40574.019    1217.2004     1.002084 
   92900    301.45378   -142.37299    124385.84   -36859.168    3745.2666   -40604.435    1218.0335    1.0026383 
   93000    297.54303    184.32745    124839.37   -36884.217    3696.6794   -40580.896    1222.1995   0.99899575 
   93100    300.22366    217.33357    125027.03   -36796.917    3729.9836     -40526.9    1224.9949    0.9974963 
   93200    303.72902   -68.922921    125468.09   -36792.382    3773.5343   -40565.917    1229.6736   0.99398984 
   93300    297.91832   -226.47928    125241.63    -36809.79    3701.3421   -40511.132    1230.1028   0.99578716 
   93400    303.34056    23.874783    124930.26   -36875.868    3768.7081   -40644.576     1229.027   0.99826896 
   93500    288.66883   -47.036136    124893.61   -36941.303    3586.4263   -40527.729     1230.281   0.99856191 
   93600    293.43277   -223.60559    125020.09   -37020.037    3645.6135    -40665.65    1232.1783   0.99755171 
   93700    293.70129    152.83984    124633.37   -36979.936    3648.9496   -40628.886    1231.2085    1.0006469 
   93800     301.0026    19.321629    124663.88   -36937.076    3739.6612   -40676.738    1231.8002    1.0004021 
   93900     297.2241     162.7017    125084.61   -36915.496    3692.7171   -40608.213    1236.0254   0.99703716 
   94000    296.51315    3.4344753    125221.91   -36930.817    3683.8842   -40614.702     1238.152   0.99594397 
   94100    296.13825    58.983873    124976.27   -36939.787    3679.2264   -40619.013    1238.8376   0.99790145 
   94200    301.48579    129.76722    125096.85   -36932.071    3745.6644   -40677.736    1240.4331   0.99693959 
   94300    303.00993    45.495621    124998.77   -36908.202    3764.6003   -40672.803    1241.2077   0.99772181 
   94400    296.97993   -124.74795    124797.01   -36899.787    3689.6835   -40589.471    1241.4318   0.99933486 
   94500    297.63528   -54.752904    124779.13   -36800.384    3697.8255    -40498.21    1241.3554   0.99947803 
   94600    301.61843   -152.99385    124821.19   -36869.947    3747.3122    -40617.26    1242.6604   0.99914126 
   94700     296.2724   -80.360313    124843.54   -36937.663    3680.8931   -40618.556    1244.6595   0.99896241 
   94800    295.88937    158.77048    124807.63   -36914.373    3676.1343   -40590.507    1245.6389   0.99924984 
   94900    297.12306    53.184334    125299.09   -36853.377    3691.4617   -40544.839    1252.1645   0.99533046 
   95000    307.09414   -38.362876     125183.9   -36862.275    3815.3427   -40677.618    1253.0845   0.99624637 
   95100    298.45517   -172.72384    125182.65   -36850.348    3708.0119    -40558.36    1254.0569   0.99625629 
   95200     303.6492   -100.18967    125157.29    -36893.32    3772.5426   -40665.863    1253.7691    0.9964582 
   95300    308.38523    317.70919    125257.63   -36791.047    3831.3831   -40622.431    1256.0876   0.99565993 
   95400    300.51841    109.64248    125356.77   -36891.273    3733.6456   -40624.918    1260.3559    0.9948725 
   95500    300.04358    80.135204    125451.62   -36895.092    3727.7463   -40622.839    1262.9421    0.9941203 
   95600    300.75878   -5.2774526    125630.62   -36889.098     3736.632    -40625.73    1264.7264   0.99270384 
   95700     302.9993    207.54073    125325.66   -36964.833    3764.4683   -40729.301    1262.6149   0.99511949 
   95800    299.00489    13.007302    125346.62   -37014.659    3714.8417     -40729.5     1264.074    0.9949531 
   95900     300.4235   -78.732317    125242.04   -36947.885    3732.4665   -40680.351    1264.7396   0.99578387 
   96000    295.05874   -12.480498     125574.3   -37056.296    3665.8145    -40722.11    1268.0293    0.9931491 
   96100    302.10778   -271.61128    125778.63   -36994.698     3753.392    -40748.09     1269.927   0.99153575 
   96200    297.51571    229.92505    125411.51   -37061.987    3696.3401   -40758.327    1268.9808   0.99443828 
   96300    292.89321    34.677363    125394.46   -36980.169    3638.9101   -40619.079     1270.619   0.99457346 
   96400    293.14235    17.056749    125360.63    -36941.59    3642.0053   -40583.595    1273.2928   0.99484187 
   96500     298.0648     313.6276    125395.28   -37010.454    3703.1619   -40713.616    1275.9827   0.99456698 
   96600      294.184    103.55864    125093.59   -37003.177    3654.9468   -40658.124    1275.2284   0.99696556 
   96700    295.14954    57.107924    125272.97   -37073.295    3666.9427   -40740.237    1276.9762   0.99553805 
   96800    291.27942      41.0736    125153.28   -37135.496    3618.8603   -40754.356    1276.8844   0.99649013 
   96900     294.9363   -6.0757193    125071.87   -37045.379    3664.2934   -40709.673    1277.0819   0.99713872 
   97000    291.26368   -57.259326    125340.73   -37011.557    3618.6647   -40630.221    1279.4248   0.99499979 
   97100     293.7864   -463.59755    124984.39    -37028.72     3650.007   -40678.727    1279.6878   0.99783666 
   97200    295.18096    125.01572    125079.27   -37024.519     3667.333   -40691.852    1281.9936   0.99707968 
   97300    294.44065    88.771377    124778.17   -37023.005    3658.1354   -40681.141    1280.7457   0.99948575 
   97400    294.98607   -207.80245    124604.18   -37025.983    3664.9118   -40690.894    1280.1538    1.0008814 
   97500    304.56645    238.30796    124872.89   -36940.853    3783.9385   -40724.791    1283.1099   0.99872765 
   97600    293.72043   -14.937827    124947.13   -37028.076    3649.1875   -40677.263    1285.1183   0.99813421 
   97700    298.06956    127.52104    125121.38   -36888.524    3703.2211   -40591.745    1287.5401   0.99674415 
   97800    300.93441    24.675757    125081.75   -36878.314     3738.814   -40617.128      1288.94   0.99705995 
   97900    306.48427    71.601641    125123.95   -36836.322    3807.7656   -40644.087    1291.5059   0.99672367 
   98000    300.96969   -468.68308    125111.42   -36858.778    3739.2523    -40598.03    1293.6763   0.99682348 
   98100    297.88735   -215.20967    124822.55   -36980.159    3700.9572   -40681.116    1292.8611   0.99913036 
   98200    299.80899    -94.75881    124678.98    -36952.79    3724.8317   -40677.622    1292.9531    1.0002809 
   98300     299.1737    184.48562     124792.1   -36999.444    3716.9389   -40716.383    1295.9017   0.99937415 
   98400    299.25272    46.583807    124852.58   -37030.269    3717.9206    -40748.19    1298.0968   0.99889008 
   98500    291.31126    109.90763    124967.34   -37003.333    3619.2558   -40622.589    1300.3838   0.99797281 
   98600    296.56744    158.49132    125277.48   -37024.766    3684.5588   -40709.325    1305.1865   0.99550215 
   98700    290.01273   -33.190217    125034.74   -37114.096    3603.1229   -40717.219    1304.5498   0.99743486 
   98800    290.92461     23.62941    124916.78   -37073.427    3614.4521   -40687.879    1304.7999   0.99837671 
   98900    291.80373    83.480655    124928.21   -37090.882    3625.3743   -40716.257    1305.4989   0.99828535 
   99000    288.80457   -19.918802    125075.22   -37090.391    3588.1126   -40678.504    1307.7841   0.99711198 
   99100    300.14969    143.19433    125183.38   -36976.643    3729.0646   -40705.708    1309.4743   0.99625052 
   99200    294.51168   -14.127511    125361.37   -36963.046    3659.0179   -40622.064    1313.7119   0.99483598 
   99300    296.50136    30.334712    124888.31   -36907.083    3683.7377    -40590.82    1312.8312   0.99860431 
   99400    299.79007     41.96617    124951.24   -36868.357    3724.5967   -40592.953    1314.9724    0.9981014 
   99500    302.64912   -178.79608    124892.08   -36711.854    3760.1176   -40471.972    1316.7704   0.99857418 
   99600    308.23629   -184.09883     124768.1   -36729.683    3829.5326   -40559.216    1316.4093   0.99956644 
   99700    303.73911    133.13688    124900.86   -36754.028    3773.6596   -40527.688    1318.3544   0.99850398 
   99800    302.20073    -237.7568    124854.67   -36786.164    3754.5468   -40540.711    1320.8609   0.99887335 
   99900    302.62724   -68.310744    124738.02   -36840.042    3759.8458   -40599.887    1319.7312   0.99980748 
  100000    301.11079    89.472671    124701.61   -36862.731    3741.0053   -40603.736    1321.3751    1.0000994 
  100100    303.85486   -18.191238    125106.36   -36784.323    3775.0978    -40559.42    1324.8414   0.99686379 
  100200    303.51661   -116.92314    125481.63   -36814.857    3770.8953   -40585.752     1328.008   0.99388259 
  100300    305.55203    161.41824    125405.88   -36786.604    3796.1833   -40582.787    1329.7633   0.99448287 
  100400    296.69526   -79.405206    125153.78   -36833.852    3686.1467   -40519.999    1328.3106   0.99648609 
  100500     307.8942     13.78828    125013.11   -36738.705    3825.2825   -40563.988    1329.0148   0.99760737 
  100600    298.22685   -161.35013    124983.43   -36849.396    3705.1753   -40554.571    1329.7858   0.99784428 
  100627     300.2977    179.45338    125011.83   -36809.992    3730.9035   -40540.895    1330.3742   0.99761761 
Loop time of 124.507 on 11 procs for 100000 steps with 4169 atoms

Performance: 346.968 ns/day, 0.069 hours/ns, 803.166 timesteps/s
99.6% CPU use with 11 MPI tasks x no OpenMP threads

MPI task timing breakdown:
Section |  min time  |  avg time  |  max time  |%varavg| %total
---------------------------------------------------------------
Pair    | 87.185     | 104.21     | 107.88     |  55.7 | 83.70
Neigh   | 3.9476     | 4.7047     | 4.9514     |  12.5 |  3.78
Comm    | 6.6849     | 10.434     | 28.607     | 187.7 |  8.38
Output  | 0.16949    | 0.17072    | 0.18105    |   0.8 |  0.14
Modify  | 3.883      | 4.3425     | 4.7037     |  10.0 |  3.49
Other   |            | 0.6418     |            |       |  0.52

Nlocal:    379 ave 391 max 364 min
Histogram: 1 0 1 1 0 4 1 1 1 1
Nghost:    1752.64 ave 1781 max 1733 min
Histogram: 1 0 3 2 2 0 2 0 0 1
Neighs:    0 ave 0 max 0 min
Histogram: 11 0 0 0 0 0 0 0 0 0
FullNghs:  10953.6 ave 11367 max 10494 min
Histogram: 1 1 0 1 1 4 0 1 0 2

Total # of neighbors = 120490
Ave neighs/atom = 28.9014
Neighbor list builds = 7100
Dangerous builds = 0

undump              1
unfix               2
unfix               3
unfix               4


################################################
#######         Run Simulation         #########
################################################

reset_timestep      0
log                 log.run_${NAME}
log                 log.run_liquid_298K_1atm_ML
