
# Create simulation box of size 50 x 50 x 50 Angstrom
#
lattice	            sc 1
Lattice spacing in x,y,z = 1.0000000 1.0000000 1.0000000
region 	            all block 0 50 0 50 0 50 units box
create_box          1 all
Created orthogonal box = (0.0000000 0.0000000 0.0000000) to (50.000000 50.000000 50.000000)
  1 by 2 by 2 MPI processor grid

# fill box with 4169 randomly distributed atoms
#
create_atoms        1 random 4169 63782 all
Created 4169 atoms
  create_atoms CPU = 0.001 seconds
mass                1 18.015

# Define potential
#
pair_style          sw
pair_coeff          * * ML_mW.sw mW
Reading sw potential file ML_mW.sw with DATE: 2019-02-27

# Run minimization
#
minimize            1.0e-8 1.0e-8 10000 1000
WARNING: Using 'neigh_modify every 1 delay 0 check yes' setting during minimization (../min.cpp:187)
Neighbor list info ...
  update every 1 steps, delay 0 steps, check yes
  max neighbors/atom: 2000, page size: 100000
  master list distance cutoff = 6.0032907
  ghost atom cutoff = 6.0032907
  binsize = 3.0016454, bins = 17 17 17
  1 neighbor lists, perpetual/occasional/extra = 1 0 0
  (1) pair sw, perpetual
      attributes: full, newton on
      pair build: full/bin/atomonly
      stencil: full/bin/3d
      bin: standard
Per MPI rank memory allocation (min/avg/max) = 4.249 | 4.256 | 4.259 Mbytes
Step Temp E_pair E_mol TotEng Press 
       0            0    7783778.6            0    7783778.6    5891538.7 
     640            0   -45089.317            0   -45089.317   -66.004219 
Loop time of 2.26509 on 4 procs for 640 steps with 4169 atoms

99.5% CPU use with 4 MPI tasks x no OpenMP threads

Minimization stats:
  Stopping criterion = max force evaluations
  Energy initial, next-to-last, final = 
      7783778.60454636  -45089.1135678271  -45089.3166429425
  Force two-norm initial, final = 2.0191929e+08 3.8745506
  Force max component initial, final = 1.0948746e+08 1.0618003
  Final line search alpha, max atom move = 0.061176386 0.064957105
  Iterations, force evaluations = 640 1000

MPI task timing breakdown:
Section |  min time  |  avg time  |  max time  |%varavg| %total
---------------------------------------------------------------
Pair    | 1.8079     | 1.9442     | 2.0766     |   6.8 | 85.83
Neigh   | 0.053308   | 0.05474    | 0.055568   |   0.4 |  2.42
Comm    | 0.095909   | 0.22851    | 0.3655     |  20.0 | 10.09
Output  | 0          | 0          | 0          |   0.0 |  0.00
Modify  | 0          | 0          | 0          |   0.0 |  0.00
Other   |            | 0.03765    |            |       |  1.66

Nlocal:        1042.25 ave        1057 max        1017 min
Histogram: 1 0 0 0 0 1 0 0 0 2
Nghost:        1763.00 ave        1774 max        1743 min
Histogram: 1 0 0 0 0 0 0 1 1 1
Neighs:        0.00000 ave           0 max           0 min
Histogram: 4 0 0 0 0 0 0 0 0 0
FullNghs:      29797.0 ave       30476 max       28599 min
Histogram: 1 0 0 0 0 0 1 0 0 2

Total # of neighbors = 119188
Ave neighs/atom = 28.589110
Neighbor list builds = 28
Dangerous builds = 0

# Add velocity/set timestep
#
velocity            all create ${TEMP} 120598 rot yes dist gaussian
velocity            all create 298 120598 rot yes dist gaussian
timestep            5.0

# Define output
#
compute	            1 all msd
thermo	            100
thermo_style        custom step temp press vol etotal ke pe c_1[4] density

# Neighbor lists
#
neigh_modify        delay 0 every 1 check yes

# Set fixes
#
fix                 1 all momentum 10 linear 1 1 1 rescale
fix                 2 all nph iso ${PRES} ${PRES} ${PCOUPL}
fix                 2 all nph iso 1 ${PRES} ${PCOUPL}
fix                 2 all nph iso 1 1 ${PCOUPL}
fix                 2 all nph iso 1 1 10000.0
fix                 3 all temp/csvr ${TEMP} ${TEMP} ${TCOUPL} 837492
fix                 3 all temp/csvr 298 ${TEMP} ${TCOUPL} 837492
fix                 3 all temp/csvr 298 298 ${TCOUPL} 837492
fix                 3 all temp/csvr 298 298 5000.0 837492

# Run 0.5 ns equilibration
#
dump                1 all custom 1000 eq.${NAME}.dump id type x y z vx vy vz
dump                1 all custom 1000 eq.liquid_298K_1atm_ML_NPT.dump id type x y z vx vy vz
run                 100000
Per MPI rank memory allocation (min/avg/max) = 3.507 | 3.512 | 3.520 Mbytes
Step Temp Press Volume TotEng KinEng PotEng c_1[4] Density 
     640          298    1287.9411       125000    -41386.96    3702.3569   -45089.317 1.8478579e-33   0.99771203 
     700    150.28884    280.02263    125146.32   -41268.941    1867.1911   -43136.132   0.25871763   0.99654554 
     800    160.69477   -208.33545    125525.68   -41070.824    1996.4745   -43067.298   0.60222025   0.99353382 
     900    168.65834    -202.6662    125847.94   -40929.593     2095.414   -43025.007   0.91230964    0.9909896 
    1000    177.69881   -525.01891    126106.41   -40780.559    2207.7329   -42988.292    1.1748051   0.98895846 
    1100    186.31861   -242.29132    126167.23   -40635.688    2314.8254   -42950.514     1.456203   0.98848178 
    1200     192.3371     31.93114    126123.12   -40525.963    2389.5993   -42915.562    1.7468166   0.98882749 
    1300    198.43189   -34.443129    126057.51   -40403.506     2465.321   -42868.828    2.0588224    0.9893421 
    1400    200.27138    196.17935    125964.29   -40296.048    2488.1749   -42784.223     2.396928   0.99007428 
    1500    206.58449    218.41064     125947.4   -40171.516     2566.609   -42738.125    2.7383971   0.99020705 
    1600    213.90185    257.39154    126125.66   -40061.724      2657.52   -42719.244    3.0159301   0.98880757 
    1700    218.92118    18.939635    126555.55   -39980.552    2719.8803   -42700.432    3.3946001   0.98544873 
    1800    215.60522   -571.69712    127028.85   -39901.456    2678.6828   -42580.139    3.7583624   0.98177702 
    1900    224.56279   -470.72953    127134.87   -39824.854    2789.9717   -42614.826     4.061707   0.98095826 
    2000    223.76131   -66.401284    126945.91   -39755.267    2780.0142   -42535.281    4.2777651   0.98241848 
    2100     229.8675    259.84457    126771.89   -39645.455    2855.8775   -42501.332    4.7192843   0.98376703 
    2200    232.30448   -134.07689    126789.52   -39583.759    2886.1547   -42469.914    5.0545427    0.9836302 
    2300    234.25201   -14.776768    126879.99   -39530.221    2910.3508   -42440.572    5.4128346   0.98292884 
    2400    240.09937   -253.98807     126985.5   -39435.348    2982.9985   -42418.347    5.8741598   0.98211217 
    2500    241.12395   -248.08123    127054.95   -39349.887    2995.7279   -42345.615    6.2252325   0.98157536 
    2600    248.29992    25.045147    127105.91   -39253.893    3084.8823   -42338.775    6.6454146   0.98118175 
    2700     244.7142   -26.523324    127183.88   -39198.414    3040.3332   -42238.747    6.9729043   0.98058026 
    2800    248.06774   -299.67772    127231.57   -39129.927    3081.9977   -42211.924    7.5123146   0.98021269 
    2900    250.78457    34.491926    127136.85   -39063.628    3115.7515    -42179.38     7.905356   0.98094298 
    3000    249.51539    30.974138    127050.06   -38962.426    3099.9833   -42062.409    8.3152889   0.98161313 
    3100    251.09603    51.337477    127049.23   -38898.533    3119.6212   -42018.155    8.7629504   0.98161954 
    3200    254.33033   -379.61682    127057.13   -38804.194    3159.8042   -41963.998    9.3046288    0.9815585 
    3300    253.05726    -59.89086    126920.86   -38730.905    3143.9875   -41874.893    9.8836157   0.98261236 
    3400    257.51405    87.955902    126741.38   -38691.438    3199.3587   -41890.797    10.425346    0.9840038 
    3500    250.95275   -84.941077    126654.54   -38648.154    3117.8411   -41765.995    10.940988   0.98467848 
    3600    252.45593    15.973944    126570.92   -38624.391    3136.5166   -41760.908    11.350885   0.98532902 
    3700    255.22801    91.978057    126385.51   -38558.109    3170.9569   -41729.066    11.940384   0.98677454 
    3800    260.26942    60.692093    126180.59    -38523.66    3233.5916   -41757.252    12.505582   0.98837709 
    3900    259.74072   -174.14023    125988.23   -38459.653     3227.023   -41686.676    13.228898   0.98988617 
    4000    265.94203   -132.77113    125715.65   -38360.302    3304.0681    -41664.37    13.978691   0.99203241 
    4100    263.72295    242.41576    125403.42   -38356.196    3276.4982   -41632.694    14.572508   0.99450241 
    4200    266.84511   -45.888608    125109.68   -38303.307    3315.2879   -41618.595    15.336491   0.99683734 
    4300    263.18414    431.32229    124893.64   -38261.624    3269.8041   -41531.428    16.108913   0.99856164 
    4400     261.4065    638.88819    124875.46   -38226.414    3247.7186   -41474.132    16.805455   0.99870705 
    4500    262.58697    213.53305     125024.8   -38198.855    3262.3848   -41461.239    17.489078   0.99751414 
    4600    267.58257   -450.01526    125223.64   -38156.422    3324.4502   -41480.872    18.209597   0.99593015 
    4700    268.34404   -270.39705    125354.11   -38119.975    3333.9108   -41453.886    18.987422   0.99489361 
    4800    264.71343   -243.07719    125436.35   -38052.796     3288.804     -41341.6    19.817224   0.99424132 
    4900    265.66657    327.92444    125389.85   -38008.674    3300.6458    -41309.32    20.977301   0.99461001 
    5000    265.70833    308.95362    125337.64   -37979.833    3301.1647   -41280.997    21.722413   0.99502433 
    5100    274.47772    56.864881    125380.88   -37912.501    3410.1157   -41322.617    22.677771   0.99468122 
    5200    275.97631    -4.224696    125474.43   -37847.573    3428.7341   -41276.307    23.555441   0.99393961 
    5300    276.63598   -307.15526    125557.49   -37793.645    3436.9299   -41230.575    24.471896   0.99328204 
    5400     278.2099   -120.07275    125554.79   -37745.409    3456.4843   -41201.894    25.689834   0.99330343 
    5500    279.55309    13.046699    125420.94   -37723.452    3473.1721   -41196.625    26.657568   0.99436347 
    5600    279.24074    359.62909    125278.93   -37690.826    3469.2916   -41160.118    27.714982   0.99549067 
    5700    280.22584     231.6312    125373.19   -37683.637    3481.5304   -41165.168    28.743709   0.99474222 
    5800    278.62792    91.781115    125589.77   -37671.322    3461.6779       -41133    29.683638   0.99302675 
    5900    278.69537   -139.82358     125842.5   -37639.629    3462.5158   -41102.145    30.630232   0.99103245 
    6000    283.94465    -285.2809    126010.54    -37593.63    3527.7329   -41121.362    31.785271   0.98971092 
    6100     279.3149   -57.320981    126109.83   -37595.656    3470.2128   -41065.869     32.69517   0.98893168 
    6200     278.9421   -168.41967    126194.74   -37584.295    3465.5812   -41049.876    33.719424   0.98826623 
    6300    277.40904   -336.38307    126172.82   -37627.417    3446.5344   -41073.951    34.685503   0.98843792 
    6400     282.7429    149.36094    125947.76   -37593.117    3512.8024    -41105.92    35.495382   0.99020418 
    6500    284.94005   -74.449913    125764.48   -37544.975    3540.0998   -41085.075    36.300258    0.9916473 
    6600    282.79048     132.9672    125581.38   -37538.835    3513.3935   -41052.228    37.455696   0.99309311 
    6700    291.49474     200.3863    125459.28   -37506.763    3621.5353   -41128.298    38.601425   0.99405958 
    6800    283.95776     396.0427     125515.3   -37490.946    3527.8958   -41018.842    39.533484   0.99361598 
    6900    281.00962    199.77439    125672.08   -37459.699    3491.2681   -40950.967    40.645662   0.99237634 
    7000    288.64078   -214.16292    125843.02   -37409.619    3586.0777   -40995.696    41.895859   0.99102838 
    7100     282.9992   -201.56514    125895.23   -37430.659    3515.9867   -40946.646    42.964758   0.99061739 
    7200    283.72335   -83.188214    125814.58     -37384.3    3524.9836   -40909.283    43.807766   0.99125242 
    7300    285.10985   -163.14082    125660.34   -37394.585    3542.2094   -40936.794    44.767749   0.99246906 
    7400    285.46549   -82.484706    125475.07   -37394.353    3546.6278   -40940.981    45.802664   0.99393452 
    7500    280.79438   -233.09512    125252.97    -37362.54    3488.5939   -40851.134    46.896646   0.99569697 
    7600    287.00382    136.90892    124994.48    -37323.71    3565.7401    -40889.45    47.714634   0.99775607 
    7700    287.85614    313.97917    124827.22   -37287.834    3576.3293   -40864.163    48.736976   0.99909305 
    7800    283.87757    46.656268    124874.28   -37302.772    3526.8996   -40829.671    49.947254   0.99871648 
    7900    285.62061     221.4439    124965.09   -37277.747    3548.5551   -40826.302    50.894574   0.99799076 
    8000    284.42079   -40.024459    125043.93   -37248.891    3533.6486    -40782.54    51.998663   0.99736152 
    8100    289.56378   -398.61751    125129.33   -37212.766    3597.5451   -40810.312    53.279169   0.99668082 
    8200     290.3817   -147.75787    125066.97   -37247.779     3607.707   -40855.486    54.610081   0.99717779 
    8300    294.72196   -118.57302    124909.06   -37221.344    3661.6305   -40882.975    55.839453   0.99843843 
    8400    290.42478    176.20717    124698.61   -37188.606    3608.2421   -40796.848     57.38997    1.0001234 
    8500    289.61815    298.54253    124537.93   -37188.765    3598.2206   -40786.986    58.638422    1.0014138 
    8600    283.79256    -85.40267    124498.34    -37217.79    3525.8434   -40743.633    59.651452    1.0017323 
    8700    292.15982    114.53016    124430.72   -37183.959    3629.7983   -40813.758    60.638336    1.0022766 
    8800    290.56037    132.60338    124409.24   -37174.538    3609.9267   -40784.465    62.252439    1.0024497 
    8900    290.82069      120.038    124396.01   -37169.783    3613.1609   -40782.944    63.741787    1.0025563 
    9000    291.55278   -151.76875       124506   -37184.991    3622.2565   -40807.247    64.958313    1.0016706 
    9100    291.92408   -148.66389    124601.39   -37182.108    3626.8695   -40808.977    66.228321    1.0009038 
    9200    288.37512    39.669074    124584.57   -37187.313    3582.7772    -40770.09    67.420329     1.001039 
    9300    292.69829   -88.936802    124549.65    -37170.26    3636.4883   -40806.748    68.674737    1.0013196 
    9400    292.73521    161.15052    124503.12   -37135.203     3636.947    -40772.15      69.8435    1.0016938 
    9500    298.89864    846.27484    124513.76   -37166.267    3713.5216   -40879.788     71.40653    1.0016082 
    9600    287.52176    189.78047    124805.31   -37161.807     3572.175   -40733.982    72.619057   0.99926841 
    9700    291.34439   -285.15727    125201.99   -37143.108    3619.6675   -40762.776    73.984446   0.99610244 
    9800    290.21813   -488.82947    125426.39   -37146.004    3605.6747   -40751.679    75.569393   0.99432032 
    9900     287.5439   -181.20939     125362.3   -37175.439    3572.4501    -40747.89    77.221671   0.99482862 
   10000     290.8456   -47.644175    125198.08   -37174.511    3613.4705   -40787.982    78.659358    0.9961335 
   10100    291.68896    15.601531    125119.92   -37147.295    3623.9483   -40771.243    79.573594   0.99675578 
   10200    292.14701    483.72792    125145.43   -37138.342    3629.6392   -40767.981    80.818012   0.99655259 
   10300    298.58809    122.41728    125288.39    -37137.65    3709.6633   -40847.314    82.038608   0.99541551 
   10400    289.61358   -535.37174    125407.89   -37136.839    3598.1638   -40735.003    83.221752   0.99446696 
   10500    296.18048    325.49945    125374.53   -37127.123    3679.7512   -40806.874    84.205539   0.99473161 
   10600    294.15101   -244.91967    125439.88   -37126.442    3654.5369   -40780.979    85.620661   0.99421337 
   10700    292.67279    3.7916516    125402.99   -37122.378    3636.1715   -40758.549    87.131474   0.99450579 
   10800     291.9683    265.60143     125266.5   -37083.842     3627.419   -40711.261    88.322046   0.99558947 
   10900    296.92583    188.07987     125063.6   -37064.754    3689.0114   -40753.766    89.735864   0.99720464 
   11000    295.30469     197.5852    124965.69   -37069.006    3668.8703   -40737.877    90.708756   0.99798599 
   11100    296.71658    191.97829    124990.38   -37078.256    3686.4116   -40764.667    91.351911    0.9977888 
   11200    291.53062   -230.72116    125049.33   -37062.968    3621.9812   -40684.949    92.787999   0.99731845 
   11300    294.09458    92.715563    125058.15   -37044.273    3653.8359   -40698.109    94.437833   0.99724811 
   11400    293.27209   -201.70465    125094.08   -37047.339    3643.6172   -40690.956    95.107835   0.99696165 
   11500    294.07905   -114.82558    124943.81   -37024.614    3653.6429   -40678.257    95.919442   0.99816072 
   11600    296.60826    214.17014    124723.88   -37023.748    3685.0658   -40708.814    97.083585   0.99992081 
   11700    295.52223    186.76036    124694.96    -37059.16     3671.573   -40730.733    97.977776    1.0001528 
   11800    296.86665    -24.41828    124910.19   -37039.898    3688.2761   -40728.174    99.045214   0.99842936 
   11900    294.68116    38.821995    125164.49   -37048.884    3661.1236   -40710.008    100.08993   0.99640088 
   12000    295.50797    -211.4048    125428.47   -37060.711    3671.3958   -40732.107    101.56281   0.99430383 
   12100     290.7488   -305.59075    125601.19    -37073.22    3612.2679   -40685.487    103.08021   0.99293644 
   12200    297.67523    -582.1231    125605.81   -37066.002     3698.322   -40764.324     104.0414   0.99289998 
   12300    298.07435   -516.38754    125348.85    -37049.49    3703.2806   -40752.771    104.95149   0.99493539 
   12400     300.4666    21.474108    124944.69   -37058.072     3733.002   -40791.074    106.04292   0.99815367 
   12500    297.74143    75.346055    124647.22   -37037.958    3699.1444   -40737.102     107.0966    1.0005358 
   12600    296.13775   -8.9525888    124542.87   -37080.186    3679.2202   -40759.407    108.42041    1.0013741 
   12700    291.12481    -64.99548    124537.37    -37082.08    3616.9393   -40699.019    109.76585    1.0014183 
   12800    292.71404   -283.87759    124591.38   -37054.523     3636.684   -40691.207    111.15726    1.0009842 
   12900    292.00063    160.71615    124541.35     -37028.4    3627.8205   -40656.221    112.59824    1.0013863 
   13000    294.43347    24.939353     124528.9   -37045.392    3658.0462   -40703.438    114.41359    1.0014864 
   13100    296.05826   -114.17214    124582.05   -37057.818    3678.2326    -40736.05    115.88867    1.0010592 
   13200    294.60785   -454.33204    124656.06   -37050.806    3660.2127   -40711.019    117.12548    1.0004648 
   13300    291.75781    478.92384     124682.5       -37026    3624.8037   -40650.804    117.94876    1.0002527 
   13400    293.67885    59.925907    124875.51   -37037.436    3648.6708   -40686.107    119.60746   0.99870665 
   13500     295.3213   -273.92923    125131.95   -37055.684    3669.0766    -40724.76    121.42899   0.99665996 
   13600    299.55625    464.44241    125361.92   -37050.034    3721.6918   -40771.725    122.75541   0.99483163 
   13700    295.40708   -732.40678    125572.62   -37021.697    3670.1423   -40691.839    123.80481   0.99316241 
   13800    298.19626    -28.82765    125525.94   -37027.257    3704.7952   -40732.052    124.84801   0.99353171 
   13900     294.4807    309.33898    125452.85   -37060.936    3658.6331    -40719.57    126.26841   0.99411055 
   14000    302.04859   -117.80751     125411.7   -37045.992    3752.6566   -40798.648     127.2592   0.99443671 
   14100    292.49846    12.678118     125373.9   -37065.188    3634.0056   -40699.194    128.64492   0.99473655 
   14200    295.61148    149.82828     125456.4   -37099.635    3672.6819   -40772.317    130.27414   0.99408243 
   14300    296.18552   -74.691754    125547.73   -37109.053    3679.8137   -40788.866    131.57316    0.9933593 
   14400    294.17522   -14.079968    125532.16   -37098.597    3654.8378   -40753.435     133.0307   0.99348253 
   14500    286.11285    49.269006    125491.02   -37120.771    3554.6707   -40675.442    134.04286    0.9938082 
   14600    295.02917    127.27145    125498.59    -37114.79    3665.4472   -40780.237    135.71306   0.99374828 
   14700    290.18281   -283.50129    125585.89    -37083.24     3605.236   -40688.476    137.34319   0.99305742 
   14800    297.24878    -314.9725    125612.75   -37079.236    3693.0237    -40772.26    138.34278   0.99284512 
   14900    295.76215   -190.32106    125491.36   -37037.444    3674.5537   -40711.997    139.23082   0.99380549 
   15000    297.08623    153.63776    125320.92   -37045.392    3691.0041   -40736.397    140.21371   0.99515709 
   15100    297.70465   -249.96052    125113.32   -37054.443    3698.6874    -40753.13    141.49689   0.99680835 
   15200    293.94166   -47.356021    124790.51   -37077.633    3651.9359   -40729.569     142.7936   0.99938688 
   15300    288.47373    470.58589    124433.67    -37074.86    3584.0023   -40658.862    144.46481    1.0022529 
   15400    294.91336    506.62978    124332.32   -37068.182    3664.0084   -40732.191    145.38226    1.0030699 
   15500    294.20647     161.4092    124570.56   -37102.043     3655.226   -40757.269     146.7073    1.0011515 
   15600    293.76884   -159.22212     124930.7   -37144.385    3649.7888   -40794.174    148.48492   0.99826544 
   15700    297.35606    282.68877    125169.14   -37143.547    3694.3565   -40837.903    150.43297    0.9963638 
   15800    291.17241   -267.62405    125435.79   -37133.475    3617.5308   -40751.006    152.04262   0.99424578 
   15900    292.95023   -60.235934       125511   -37137.122    3639.6184   -40776.741    153.13791   0.99365001 
   16000    295.74578    193.40254    125451.02    -37112.08    3674.3504   -40786.431    153.76739   0.99412505 
   16100    292.79621   -436.94689    125406.59   -37099.671    3637.7049   -40737.376    155.27717   0.99447725 
   16200    293.90318   -286.11455    125225.85   -37104.793    3651.4579   -40756.251    156.05261   0.99591262 
   16300    295.99673    8.5811397    124946.84    -37111.07    3677.4683   -40788.538    157.12048   0.99813653 
   16400    295.62046    369.19702    124817.63   -37099.449    3672.7934   -40772.242    158.20679   0.99916975 
   16500    297.60551    279.06604    124987.23   -37088.098    3697.4557   -40785.553    159.32912     0.997814 
   16600    292.10551   -101.44649    125342.76   -37072.967    3629.1236    -40702.09      161.179   0.99498368 
   16700    292.99237   -385.67233    125677.01   -37037.883     3640.142   -40678.025    162.79187   0.99233746 
   16800    291.76106   -78.077791    125728.16   -37028.766    3624.8441    -40653.61    163.83825   0.99193377 
   16900    300.45647   -105.70837    125566.21   -36990.805    3732.8761   -40723.681    165.11239   0.99321309 
   17000    295.01436   -19.058737    125413.46   -37004.591    3665.2632   -40669.854    166.38007   0.99442276 
   17100     295.5581    -84.45897       125232   -37015.066    3672.0186   -40687.085    167.18311   0.99586373 
   17200     298.6739    426.17205    125087.16   -36980.645    3710.7293   -40691.374    168.65491    0.9970168 
   17300     303.7703    342.63815    125073.66   -36952.823    3774.0472   -40726.871    169.90171   0.99712445 
   17400    295.50562    436.08465    125256.06   -37004.223    3671.3666   -40675.589    171.33283   0.99567245 
   17500     297.7604   -302.62476    125663.41   -37028.895    3699.3801   -40728.275    173.36322   0.99244486 
   17600    292.01109   -249.74092    125951.89   -37000.943    3627.9506   -40628.893    174.30121   0.99017172 
   17700    296.87822   -267.35433    126024.37   -36986.682    3688.4198   -40675.102    175.67078   0.98960229 
   17800    300.52548     97.55581    125928.82    -36961.12    3733.7335   -40694.854    176.74508   0.99035313 
   17900    298.44563   -204.02281    125727.88   -36937.269    3707.8934   -40645.163    177.63597   0.99193598 
   18000    298.72842    -346.1903    125405.33   -36918.284    3711.4068    -40629.69    178.31041   0.99448726 
   18100    299.97704    106.43007     125050.3   -36903.827    3726.9197   -40630.746    179.52829   0.99731075 
   18200    300.72443    256.86251    124768.44   -36946.916    3736.2052   -40683.121    180.43622   0.99956372 
   18300    301.21185    156.93646    124653.01   -36910.912    3742.2609   -40653.173    181.96271    1.0004893 
   18400    300.69046    78.159634     124604.8   -36889.538    3735.7832   -40625.321    183.70977    1.0008764 
   18500    295.83417   -43.326878    124658.76    -36896.64    3675.4486   -40572.088    184.91276    1.0004432 
   18600     299.8705   -88.256339    124756.11   -36911.561     3725.596   -40637.157     186.6924   0.99966251 
   18700    297.80971    533.82045    124808.47   -36956.005    3699.9927   -40655.998    187.79993   0.99924315 
   18800    290.73407    158.85085    124935.79   -36992.569    3612.0849   -40604.654    189.11743   0.99822478 
   18900     300.9106   -327.35523     125075.2   -36940.767    3738.5182   -40679.286    190.80083   0.99711219 
   19000     294.3222     493.3333    125144.48   -36923.369    3656.6638   -40580.032    192.11685   0.99656016 
   19100    298.56512    76.241008    125281.08   -36939.288    3709.3779   -40648.666    193.67481    0.9954736 
   19200    298.82907   -148.14802    125394.89   -36902.199    3712.6573   -40614.856    195.15155   0.99457005 
   19300    296.50613    -150.2414    125427.28   -36895.776     3683.797   -40579.572      196.883   0.99431326 
   19400    301.77403   -190.02405    125410.76   -36875.218    3749.2455   -40624.464    198.32584   0.99444418 
   19500    303.78632   -80.670155    125308.41   -36889.869    3774.2462   -40664.116    198.81355   0.99525648 
   19600    301.16772    524.93914    125129.34   -36915.106    3741.7127   -40656.819     199.7197   0.99668071 
   19700    297.29706    228.70536    125067.32   -36884.255    3693.6235   -40577.878    201.11277   0.99717503 
   19800    307.58663   -336.31197    125088.58   -36884.457    3821.4614   -40705.918    202.05959   0.99700547 
   19900    295.14343    201.13363    125036.47   -36883.579    3666.8668   -40550.446    203.10668   0.99742102 
   20000    298.36382    110.25296    125072.71   -36909.547    3706.8769   -40616.424    204.54913   0.99713205 
   20100    299.45487   -150.40133    125216.46   -36923.733    3720.4322   -40644.166    205.78477    0.9959873 
   20200      298.889    273.93974    125273.42   -36925.134    3713.4018   -40638.536    207.16962   0.99553443 
   20300    298.02194    -247.3998    125351.24   -36892.676    3702.6295   -40595.306    208.93802   0.99491638 
   20400    299.66918    192.99092    125401.87   -36881.199    3723.0947   -40604.293    210.04774   0.99451471 
   20500    303.62821   -249.02809    125421.99   -36867.324    3772.2819   -40639.605    211.39143   0.99435515 
   20600     300.5756   -470.85513    125256.73   -36837.053    3734.3562   -40571.409    212.02102   0.99566706 
   20700    296.84985    197.66248    124996.31   -36835.851    3688.0674   -40523.919    212.12159   0.99774147 
   20800    301.99292   -118.91599    124810.59   -36859.273     3751.965   -40611.238    213.80641   0.99922617 
   20900    302.61195    444.07596    124544.59   -36867.746    3759.6558   -40627.402    215.32499    1.0013603 
   21000     299.4166   -33.164484    124458.06   -36856.821    3719.9567   -40576.778    216.61283    1.0020564 
   21100    308.54993    565.74678     124449.7   -36823.072    3833.4293   -40656.501    217.89263    1.0021238 
   21200    303.55398    274.99263    124654.75   -36801.044    3771.3596   -40572.404    219.10097    1.0004753 
   21300    300.40907    239.79677    124900.27   -36783.586    3732.2872   -40515.873     220.7471   0.99850865 
   21400    305.32669   -159.03503    125138.77   -36810.462    3793.3838   -40603.846     222.1867   0.99660565 
   21500    302.89719   -374.20649    125368.51   -36810.059    3763.1996   -40573.258    223.84684   0.99477931 
   21600    303.20974    -111.0054    125374.98   -36781.655    3767.0827   -40548.738     225.9347   0.99472799 
   21700    293.25269   -523.27089    125439.55    -36781.68    3643.3762   -40425.056    227.45516   0.99421596 
   21800    298.34468       203.24    125368.84   -36776.836    3706.6392   -40483.475     228.3513   0.99477669 
   21900    302.67856    78.074723    125304.48   -36810.485    3760.4834   -40570.968    229.74301   0.99528769 
   22000    300.85658   -66.510497    125228.83   -36830.181     3737.847   -40568.028    231.09166   0.99588895 
   22100    299.91371    94.386594    125163.96   -36824.165    3726.1328   -40550.297    231.94841    0.9964051 
   22200    300.45308   -453.83395    125090.93   -36812.552    3732.8339   -40545.385    233.17679   0.99698679 
   22300    303.28155    89.173575    124935.12   -36841.445    3767.9749    -40609.42    234.25169   0.99823012 
   22400    304.51715  -0.40805015     124943.9   -36828.884    3783.3261    -40612.21    235.90422   0.99815999 
   22500    303.49076   -72.525722    124992.98   -36829.236    3770.5741    -40599.81    237.48967   0.99776803 
   22600    297.37758    214.41869    125114.82   -36829.209    3694.6239   -40523.833    238.88651   0.99679642 
   22700    305.97317   -195.10459    125334.55   -36819.609    3801.4156   -40621.024    241.15316   0.99504887 
   22800    299.91183   -76.349113    125315.82   -36803.407    3726.1094   -40529.516    243.44248   0.99519759 
   22900    294.83387     149.5408    125179.35   -36801.972    3663.0208   -40464.993     244.3367   0.99628254 
   23000    298.97305    18.518825    125177.28   -36821.761    3714.4461   -40536.207    246.05168     0.996299 
   23100    305.73689   -346.09546     125159.2   -36819.805      3798.48   -40618.285    247.44775   0.99644298 
   23200    301.49677    235.47655    125083.72   -36793.574    3745.8008   -40539.375     249.3961   0.99704428 
   23300    303.43698    -32.44081    125157.42   -36805.265     3769.906   -40575.171    250.87181   0.99645713 
   23400    303.81307   -390.80219    125179.14   -36791.834    3774.5785   -40566.413    252.90354   0.99628421 
   23500    304.62538    401.30206    124901.99   -36797.895    3784.6707   -40582.566    254.07905   0.99849496 
   23600    301.65062   -147.74765    124701.79    -36771.38    3747.7122   -40519.092    255.71667     1.000098 
   23700    302.47506    303.06879    124608.91   -36786.508    3757.9551   -40544.463    257.17944    1.0008434 
   23800    309.40519    102.55591    124625.88   -36829.878    3844.0552   -40673.933    258.90166    1.0007071 
   23900     301.2529    76.479755    124719.97   -36801.552     3742.771   -40544.323    260.65552    0.9999522 
   24000    304.51674   -41.562398    124826.28   -36815.649     3783.321    -40598.97    262.19666   0.99910055 
   24100    304.05084   -167.14627     124993.4   -36826.339    3777.5326   -40603.871    264.21284    0.9977647 
   24200    305.23165   -205.93605    125054.88   -36836.552    3792.2029   -40628.755     265.5713   0.99727416 
   24300    298.82791    93.420178    125005.79   -36863.036    3712.6428   -40575.679    267.09736   0.99766581 
   24400    296.73817    259.61454    125010.64    -36863.07    3686.6798    -40549.75    268.28203   0.99762709 
   24500     298.9113    -464.6195    125051.69   -36848.038    3713.6789   -40561.717    270.08249   0.99729964 
   24600    295.70282     302.7208    125008.09    -36866.18    3673.8167   -40539.996    271.24116   0.99764743 
   24700    304.73964    201.69043    125030.27   -36848.035    3786.0902   -40634.126    272.98739   0.99747052 
   24800    300.07568   -267.79563    125070.73   -36841.753    3728.1451   -40569.898    274.15156   0.99714779 
   24900    301.45093   -112.41306       125007   -36823.199    3745.2313   -40568.431    275.45399   0.99765618 
   25000    302.34329   -97.455564    124957.25   -36853.498     3756.318   -40609.816    276.31493    0.9980534 
   25100    295.57848   -297.00227    124971.12   -36869.095    3672.2718   -40541.367    277.89447   0.99794258 
   25200    298.63009   -28.775435    124860.46    -36876.26    3710.1851   -40586.445    278.56339   0.99882706 
   25300    302.47173    88.620094    124727.03   -36889.459    3757.9137   -40647.373    279.72754   0.99989559 
   25400    298.63143   -152.55378    124593.07    -36889.31    3710.2018   -40599.512     280.4791    1.0009706 
   25500    300.26554    336.28204    124380.95   -36898.092    3730.5039   -40628.596    281.60353    1.0026777 
   25600     298.5668     176.0237    124219.25   -36919.701    3709.3988     -40629.1    283.00283    1.0039829 
   25700    294.33991     497.7907     124210.1   -36899.451    3656.8838   -40556.335    284.54163    1.0040569 
   25800    297.54613    -58.93855    124423.48   -36905.833     3696.718   -40602.551    285.81577     1.002335 
   25900    298.76455    107.96925    124614.18   -36882.933    3711.8557   -40594.789    287.57797     1.000801 
   26000    300.42159   -72.693269    124793.15   -36870.288    3732.4427   -40602.731    289.24701    0.9993658 
   26100    300.35998   -322.29151    125003.18   -36891.643    3731.6773    -40623.32    291.51649   0.99768663 
   26200    296.25895    271.39616    125028.36   -36906.657     3680.726   -40587.383    292.33577   0.99748569 
   26300    297.51729   -600.48789    125001.64   -36908.748    3696.3597   -40605.107    293.75639   0.99769895 
   26400    299.47269   -157.12748    124890.25   -36904.402    3720.6535   -40625.055    294.75193   0.99858883 
   26500    299.99356     -157.699     124695.4   -36896.778    3727.1249   -40623.903     295.8982    1.0001492 
   26600    296.80603    146.12919     124482.7   -36917.394    3687.5229   -40604.917    296.87434    1.0018582 
   26700    298.85474   -2.8771514    124393.04   -36938.694    3712.9762    -40651.67    297.76287    1.0025802 
   26800    298.72655    487.46301     124382.2    -36915.12    3711.3836   -40626.504    298.78101    1.0026676 
   26900    300.15847    224.79174     124524.3   -36897.012    3729.1737   -40626.186    300.55322    1.0015234 
   27000    297.68374     268.7398    124712.82   -36874.205    3698.4277   -40572.633    301.40895    1.0000095 
   27100    296.84825    279.18758    124910.64   -36879.593    3688.0475   -40567.641    303.97876   0.99842578 
   27200    295.11121   -566.88616    125110.14   -36906.176    3666.4665   -40572.642    305.69623   0.99683373 
   27300    297.51961   -204.24536    125161.25   -36918.757    3696.3884   -40615.146    307.66106   0.99642666 
   27400    301.16357   -33.579361    125079.59   -36946.065    3741.6612   -40687.726    308.98709   0.99707719 
   27500    296.29461    57.064739    124853.47   -36975.445     3681.169   -40656.614    309.53792   0.99888294 
   27600    293.05029    205.28922    124648.08   -36994.641    3640.8615   -40635.503    311.64034    1.0005289 
   27700    293.18584    308.76972    124602.12   -36994.105    3642.5457   -40636.651    312.75719    1.0008979 
   27800    300.39753    152.54104    124715.47   -36982.125    3732.1438   -40714.268     314.5453   0.99998825 
   27900    298.54562    242.73083    124871.39   -36988.272    3709.1356   -40697.407    316.62903   0.99873965 
   28000    300.18535    221.13257    125040.14   -36971.291    3729.5077   -40700.799    318.22708   0.99739172 
   28100    296.51475    -217.7623    125189.84   -36948.958    3683.9041   -40632.862    320.22751   0.99619905 
   28200    297.46296    317.40312    125229.87   -36915.452    3695.6846   -40611.137    321.82278   0.99588066 
   28300    296.07157    175.90254    125344.21   -36915.597    3678.3981   -40593.995    323.74739   0.99497217 
   28400    300.22799   -209.39399    125468.85   -36906.575    3730.0374   -40636.612    324.93245   0.99398382 
   28500    295.35731    481.07355    125468.53   -36905.114     3669.524   -40574.638    326.14167   0.99398636 
   28600    298.05549   -206.47559    125518.87   -36877.484    3703.0462    -40580.53    326.08143   0.99358768 
   28700    303.33289   -71.565012    125500.76   -36873.265    3768.6128   -40641.878    327.34989   0.99373106 
   28800    301.40649   -377.57864    125429.34   -36883.292    3744.6792   -40627.972    328.57336   0.99429691 
   28900    298.15196    215.93088    125271.35   -36874.468    3704.2448   -40578.713     330.8268   0.99555091 
   29000    298.49744    370.71962    125023.96   -36886.431     3708.537   -40594.969    331.24977    0.9975208 
   29100    302.10421   -285.44045    124849.94   -36886.944    3753.3477   -40640.292    332.60993   0.99891117 
   29200    298.43671   -8.5081606     124727.6   -36846.878    3707.7826   -40554.661    333.53928   0.99989102 
   29300    303.81251    591.63236    124719.28   -36820.721    3774.5715   -40595.293    334.18391   0.99995766 
   29400    302.28408    386.94546    124960.99   -36817.375    3755.5823   -40572.957    336.26776   0.99802347 
   29500    297.66505   -478.18447    125298.66   -36857.595    3698.1954   -40555.791    338.37321   0.99533387 
   29600    302.51804      236.991    125351.88   -36856.135    3758.4891   -40614.624    340.82304   0.99491135 
   29700    299.37759   -174.49204    125304.56   -36876.482    3719.4721   -40595.954    341.82163   0.99528703 
   29800    296.90764   -24.755523    125235.13   -36866.396    3688.7854   -40555.181    342.62903   0.99583881 
   29900    305.75376    76.534339     125206.4   -36855.699    3798.6896   -40654.389    343.93668   0.99606731 
   30000    297.15205   -66.244321    125345.61   -36874.699    3691.8219    -40566.52    345.52691    0.9949611 
   30100    294.29987    176.87589    125500.31   -36877.217    3656.3863   -40533.604    346.68484   0.99373466 
   30200    300.18804      211.027    125660.75   -36861.012    3729.5412   -40590.553    348.11444   0.99246588 
   30300     301.3039   -337.09586    125847.56   -36838.328    3743.4045   -40581.732    349.28353   0.99099264 
   30400    303.15385   -416.46373    125879.95   -36849.464    3766.3884   -40615.853    351.31033   0.99073766 
   30500    302.21487   -194.04809    125764.67   -36829.831    3754.7225   -40584.553    351.51333   0.99164575 
   30600    301.80383   -143.97503    125578.42   -36801.886    3749.6157   -40551.502    352.28417   0.99311653 
   30700    307.98297   -321.19317    125372.48   -36834.064    3826.3855   -40660.449    353.03562   0.99474787 
   30800    304.90111   -50.729336    125219.54   -36806.416    3788.0964   -40594.512     354.4082   0.99596283 
   30900    301.17174    220.94416    125222.71   -36812.166    3741.7626   -40553.928    355.67065   0.99593761 
   31000    305.58253   -238.03098    125159.12   -36818.075    3796.5623   -40614.637    356.45986   0.99644358 
   31100    303.19214   -313.30161    124976.35   -36873.056     3766.864    -40639.92    357.28725   0.99790084 
   31200    304.46793    350.56604    124766.87   -36836.643    3782.7146   -40619.358    357.84452   0.99957624 
   31300    300.56187     401.5374    124710.22   -36882.345    3734.1855   -40616.531    359.64098    1.0000303 
   31400     295.4563   -133.58354    124749.15   -36879.586    3670.7538    -40550.34    360.76223   0.99971828 
   31500    294.85559    423.80538     124773.8   -36923.847    3663.2907   -40587.138    361.06801    0.9995208 
   31600    297.63547   -94.130134    124850.14   -36929.676     3697.828   -40627.504    362.78843   0.99890956 
   31700    298.31051   -119.39758    124904.32   -36926.331    3706.2146   -40632.546     364.8051   0.99847627 
   31800    301.76154   -116.26086    124948.29   -36903.418    3749.0903   -40652.508    366.34111   0.99812494 
   31900      300.701    89.358456    124963.94   -36893.607    3735.9141   -40629.521    368.06953    0.9979999 
   32000    299.46567   -118.64644    124959.72   -36902.167    3720.5664   -40622.733    369.33669   0.99803365 
   32100    301.55489   -43.752618    124942.25   -36904.175    3746.5229   -40650.698    370.16326   0.99817322 
   32200    295.26502    -230.8923    124877.42    -36913.21    3668.3775   -40581.587    371.00679   0.99869141 
   32300    297.38393    96.331647    124721.25   -36901.252    3694.7028   -40595.955    371.88798   0.99994188 
   32400    301.91173   -177.11241    124654.59   -36898.118    3750.9563   -40649.075    372.97621    1.0004766 
   32500    299.46223    -60.02895    124609.44   -36916.651    3720.5236   -40637.174    374.66429    1.0008391 
   32600    293.48088   -90.612401     124542.5    -36915.27    3646.2112   -40561.481    375.67849    1.0013771 
   32700    299.36734    316.38957    124496.62   -36935.551    3719.3447   -40654.896    377.36503    1.0017461 
   32800    301.81831    700.03145    124641.56   -36944.974    3749.7957   -40694.769    378.75776    1.0005812 
   32900    298.62395    397.44903    124972.55    -36931.97    3710.1089   -40642.079    380.91589   0.99793116 
   33000    299.61694    30.104078    125353.83   -36934.393    3722.4457   -40656.838    383.92091   0.99489583 
   33100    298.32883   -213.98942    125631.56   -36954.047    3706.4422    -40660.49    385.87124   0.99269645 
   33200     299.0382    205.85634    125679.46   -36951.108    3715.2555   -40666.364    387.21898   0.99231813 
   33300    298.93085    139.25563    125642.92   -36931.602    3713.9218   -40645.524    388.53375   0.99260666 
   33400    304.80611    216.44139    125560.57    -36917.82    3786.9161   -40704.736    389.49343    0.9932577 
   33500    301.41856    88.991107    125509.53    -36924.03    3744.8291   -40668.859    391.60851   0.99366162 
   33600    296.36653   -149.19237    125492.81    -36958.01    3682.0626   -40640.073    393.01456   0.99379402 
   33700    296.29783   -113.80944    125388.86   -36947.485     3681.209   -40628.694    394.35402   0.99461789 
   33800    298.47608    74.287733    125332.06   -36951.751    3708.2716   -40660.023    395.55455   0.99506864 
   33900     292.9142   -176.65464    125285.08   -36979.155    3639.1708   -40618.326    397.10552   0.99544176 
   34000     296.7703   -196.46576     125100.2   -36996.557     3687.079   -40683.636    398.39667   0.99691291 
   34100     301.4227   -150.73004    124795.11   -36959.213    3744.8805   -40704.093    399.40307   0.99935012 
   34200    300.43031    293.56528    124581.62   -36967.878     3732.551   -40700.429    400.30535    1.0010626 
   34300    301.06263    481.89971    124579.08   -36984.451     3740.407   -40724.858    401.33937     1.001083 
   34400    299.23153   -200.91913    124769.63   -36965.155    3717.6574   -40682.812    403.22915    0.9995542 
   34500    299.47673   -219.17588    124983.34   -36967.317    3720.7038    -40688.02    404.14721   0.99784504 
   34600    303.17098   -85.434066     125220.2   -36968.098    3766.6011     -40734.7    405.99666   0.99595756 
   34700     300.1092    40.833695    125511.58   -36966.311    3728.5616   -40694.873    408.19595   0.99364536 
   34800    296.40193   -106.00812    125658.67   -36987.786    3682.5024   -40670.288    409.34363    0.9924823 
   34900    296.17847   -255.03793    125552.26    -36988.44    3679.7261   -40668.166     410.5509   0.99332342 
   35000    299.36898    185.40904    125331.42   -36983.215    3719.3651    -40702.58     410.5946   0.99507371 
   35100    297.48263    125.15968    125206.49   -36992.845     3695.929   -40688.774    411.33205    0.9960666 
   35200    298.47768   -246.77865     125140.3   -37022.916    3708.2915   -40731.207    412.24281   0.99659347 
   35300    291.03975    115.86992    125028.95   -37037.755    3615.8826   -40653.638    412.74367   0.99748097 
   35400    297.80297     172.6828    125019.22   -37028.073    3699.9089   -40727.982    413.12877   0.99755866 
   35500    297.89968    451.74609     125162.4   -37040.348    3701.1104   -40741.459    414.34642   0.99641748 
   35600    295.58941    194.58517     125365.4   -37016.197    3672.4076   -40688.604    414.74271   0.99480401 
   35700    294.59113   -86.077125    125550.39    -37021.57     3660.005   -40681.575    416.60947   0.99333825 
   35800    296.23016   -257.13143    125644.45    -37043.23    3680.3684   -40723.598    417.87879   0.99259464 
   35900    298.94499   -76.587865     125580.4   -37020.004    3714.0975   -40734.102    419.26281   0.99310083 
   36000    298.90413   -89.258379    125499.48   -36993.843    3713.5898   -40707.433    420.57425   0.99374116 
   36100     294.9653   -131.87792    125482.19   -36993.745    3664.6537   -40658.398    422.74236   0.99387814 
   36200    304.00735   -316.75061    125404.85   -36993.416    3776.9923   -40770.408     423.4658   0.99449108 
   36300    297.17728    1.6386621     125179.2     -36948.3    3692.1353   -40640.435    424.56853   0.99628379 
   36400    301.10497     556.1263    124975.46   -36989.801    3740.9331   -40730.734    425.71012   0.99790795 
   36500    296.13934   -458.57121    124814.18   -36980.471      3679.24   -40659.711    426.91509   0.99919737 
   36600    296.36003   -97.014067    124489.81   -36971.479    3681.9819   -40653.461    426.73856    1.0018009 
   36700    297.19302    216.67752    124201.85   -36996.523    3692.3309   -40688.854     428.2806    1.0041235 
   36800    300.50345    663.92768    124135.89   -36974.804    3733.4597   -40708.264     429.8042    1.0046571 
   36900    296.37237   -49.065292     124399.3   -36980.123    3682.1351   -40662.258    431.73288    1.0025298 
   37000     297.3175    51.574964    124785.54   -36986.362    3693.8774   -40680.239     434.2282   0.99942671 
   37100    296.59709   -284.34544    125195.19   -36974.283     3684.927    -40659.21    437.32197    0.9961565 
   37200    295.51017    -268.2343    125365.27    -36952.61    3671.4232   -40624.033    439.32352   0.99480502 
   37300    296.35787    138.12341    125337.31   -36939.774     3681.955   -40621.729    440.49808   0.99502694 
   37400     294.3027     -453.826    125364.48   -36958.229    3656.4215   -40614.651    440.37511   0.99481133 
   37500    300.57779    352.39265    125323.03   -36945.715    3734.3833   -40680.098    441.87892   0.99514035 
   37600    298.23909   -316.53672    125347.32   -36951.653    3705.3273    -40656.98    443.18153   0.99494754 
   37700    297.26461   -41.534225    125331.93   -36978.232    3693.2204   -40671.453    444.33998   0.99506969 
   37800    297.89671   -264.14848    125323.35   -36969.248    3701.0736   -40670.322    445.92656   0.99513784 
   37900    300.76115   -198.60106     125181.9   -36957.915    3736.6615   -40694.576    446.95596    0.9962623 
   38000    298.30748   -203.57861    125034.77   -36983.966    3706.1769   -40690.143    447.73427   0.99743455 
   38100    294.71915    466.80218    124883.76   -36989.388    3661.5956   -40650.984    448.93487   0.99864072 
   38200     296.7819    -10.95847    124861.71   -36977.248    3687.2231   -40664.471    450.47091   0.99881705 
   38300    301.26166    381.22013    124957.24   -36975.409    3742.8798   -40718.289    451.37479   0.99805341 
   38400    296.35554   -119.54861    125151.94    -36972.26    3681.9261   -40654.186    453.02005   0.99650074 
   38500    292.87721   -75.225882    125277.52   -37012.226    3638.7112   -40650.937    454.25919   0.99550184 
   38600    298.87099   -274.93137    125271.29   -37018.827    3713.1781   -40732.005    455.24127   0.99555137 
   38700    295.15515   -308.92318     125133.1   -37044.034    3667.0124   -40711.047    456.80416   0.99665082 
   38800    291.80733   -74.318006    124860.91   -37042.768     3625.419   -40668.187    457.98843   0.99882345 
   38900    292.75063    397.89331    124636.87   -37068.508    3637.1385   -40705.646    459.47542    1.0006188 
   39000    296.33321    348.09325    124624.34   -37094.197    3681.6486   -40775.845    462.00515    1.0007195 
   39100    294.30553     8.687391    124765.99   -37077.067    3656.4567   -40733.524     464.1337   0.99958337 
   39200    293.69672   -20.296676    124878.77   -37105.974    3648.8928   -40754.866    464.74857   0.99868057 
   39300    293.46977    -109.5663     125047.7   -37091.043    3646.0732   -40737.116    466.36103   0.99733145 
   39400     291.2805   -442.34148    125128.67   -37069.669    3618.8736   -40688.543    468.10147   0.99668606 
   39500      296.904   -150.46171    125078.23   -37078.583    3688.7401   -40767.323    469.61647   0.99708801 
   39600    294.26742   -206.40811    125011.21   -37060.587    3655.9832    -40716.57    470.43339   0.99762258 
   39700    293.10688   -135.69017    124902.34   -37064.442    3641.5647   -40706.006    471.66391   0.99849216 
   39800    296.77966   -33.785583    124797.51   -37049.484    3687.1953   -40736.679    472.94939   0.99933084 
   39900    295.34482    301.76563    124710.38   -37052.048    3669.3689   -40721.417    474.81599    1.0000291 
   40000    291.55471   -66.710753    124855.32   -37100.116    3622.2804   -40722.396    476.37857    0.9988682 
   40100     294.9773   -172.33455    125087.85   -37120.906    3664.8027   -40785.709    479.11286   0.99701129 
   40200     289.4851   -131.43993     125163.8   -37130.619    3596.5676   -40727.186    480.33877   0.99640636 
   40300    293.42725    135.04036    125127.58   -37119.061    3645.5449   -40764.606    481.61342    0.9966948 
   40400    291.41541    84.749245    125100.45   -37136.928    3620.5497   -40757.478    483.44759   0.99691093 
   40500    293.88301   -222.03129    125171.94   -37114.074    3651.2073   -40765.281     485.2483   0.99634152 
   40600    297.26918   -244.95979    125258.81   -37100.579    3693.2771   -40793.856    487.49653   0.99565053 
   40700    296.85499    168.46144     125227.8   -37062.365    3688.1313   -40750.497    488.36466   0.99589707 
   40800    293.11949    176.29198    125287.03   -37066.512    3641.7214   -40708.234    489.75259   0.99542625 
   40900    292.99011   -27.094061    125402.11   -37014.585    3640.1139   -40654.699     490.9446   0.99451279 
   41000     297.0811    253.48918    125425.75   -37002.915    3690.9404   -40693.855    492.11968   0.99432533 
   41100    298.56785   -213.25258    125406.07    -36990.48    3709.4118   -40699.892    493.72961   0.99448142 
   41200    287.28821   -122.02048    125279.49   -37027.909    3569.2734   -40597.182    495.11314   0.99548621 
   41300    296.75037    298.92025    125168.83   -37028.909    3686.8314    -40715.74    495.80485   0.99636626 
   41400    294.14626   -268.98266    125183.92   -37011.934    3654.4779   -40666.412    496.80802   0.99624619 
   41500    297.44288   -343.69693    125161.05   -37033.227    3695.4352   -40728.663    497.72725    0.9964282 
   41600    294.57364    337.11204    125050.05   -36992.017    3659.7877   -40651.804    498.51694   0.99731272 
   41700    297.50915   -106.81663    125072.17   -36995.862    3696.2585    -40692.12    500.47643   0.99713631 
   41800    294.49703   -364.95606     125011.1   -36961.276    3658.8358   -40620.112      501.651    0.9976234 
   41900     294.6419     378.6769    124717.03   -36957.965    3660.6358   -40618.601    502.87678   0.99997575 
   42000    297.79278    314.82281    124577.61   -36959.573    3699.7823   -40659.356    503.09376    1.0010948 
   42100    299.53022    368.35813    124735.01   -36987.915    3721.3684   -40709.284    505.44895   0.99983163 
   42200    292.39512    165.92313    125162.64   -37011.447    3632.7217   -40644.168    507.74133   0.99641558 
   42300    291.97612   -538.01403    125564.76   -37001.174    3627.5161   -40628.691    509.42364   0.99322455 
   42400    290.58105    -128.7577    125800.84   -37020.823    3610.1837   -40631.006    510.98997   0.99136062 
   42500    298.20881   -277.57211    125911.28   -36992.015    3704.9511   -40696.966    512.74556   0.99049113 
   42600    294.10496   -235.13191    125833.39   -37014.626    3653.9649    -40668.59    513.55997    0.9911042 
   42700    294.37627   -297.15843    125630.88   -37011.642    3657.3356   -40668.977    515.75773   0.99270182 
   42800    298.36356    193.91314    125390.55   -36979.009    3706.8737   -40685.882    518.08134   0.99460452 
   42900    298.25231   -32.740567     125271.5    -36969.16    3705.4916   -40674.652     519.8835   0.99554968 
   43000    291.32991   -193.46989    125217.09   -36974.163    3619.4876   -40593.651    522.06758   0.99598226 
   43100    290.88934    456.49655    125051.22    -36948.12    3614.0139   -40562.133    523.00925   0.99730335 
   43200    295.93417    47.629044    124971.01   -36965.178    3676.6909   -40641.869    524.84618    0.9979435 
   43300    300.05837   -105.15621    124938.44   -36969.211    3727.9301   -40697.141    525.22599   0.99820359 
   43400    298.68332    164.47168    124824.69   -36970.098    3710.8465   -40680.944    526.21924   0.99911326 
   43500    298.17986    36.095146    124680.53   -36976.861    3704.5915   -40681.452    525.94543    1.0002685 
   43600    299.42304    52.658631    124608.25   -36984.306    3720.0367   -40704.343    526.93598    1.0008487 
   43700    299.43913    288.43345    124614.46   -37000.957    3720.2367   -40721.193    528.04329    1.0007989 
   43800    296.75787    21.224693    124772.36    -37023.65    3686.9247   -40710.575    529.85266   0.99953232 
   43900    290.34795    -81.05186    124959.66   -37012.299    3607.2877   -40619.586    531.45075   0.99803409 
   44000     296.3964   -276.00731    125157.99    -37005.39    3682.4338   -40687.823    532.46282   0.99645256 
   44100    296.99091    126.57784    125301.49   -36991.555    3689.8199   -40681.375    533.84557   0.99531141 
   44200    292.92208   -137.33574    125477.69   -36998.895    3639.2687   -40638.164    536.26356   0.99391378 
   44300    294.63078   -157.63766     125534.6   -36980.318    3660.4976   -40640.815    537.96408   0.99346315 
   44400    301.11694    216.72211    125444.38   -36989.453    3741.0818   -40730.535    539.30241   0.99417768 
   44500     295.5085    167.60481    125382.88   -36954.023    3671.4025   -40625.425    540.51362   0.99466535 
   44600    297.83013   -91.044995    125365.92   -36929.543    3700.2464    -40629.79    542.04653   0.99479988 
   44700    294.57194    83.427696    125267.02   -36918.952    3659.7666   -40578.719    543.24992   0.99558531 
   44800    298.38134    107.01534    125167.13   -36935.601    3707.0946   -40642.696    544.75547   0.99637985 
   44900    299.17144   -323.77815    125145.51   -36917.402    3716.9108   -40634.313    545.89005   0.99655194 
   45000    297.14625   -144.66624    125100.95   -36917.264    3691.7499   -40609.014    547.38452   0.99690692 
   45100    300.16871    263.45138     125026.5    -36949.46     3729.301   -40678.761    549.77365   0.99750058 
   45200    300.30703   -426.81301    125012.92   -36955.082    3731.0195   -40686.101    551.26154   0.99760889 
   45300    301.14995    174.60954    125004.34   -36962.088    3741.4919    -40703.58     552.3537   0.99767736 
   45400    300.40242   -337.81236    125143.01   -36934.148    3732.2045   -40666.352    553.96147   0.99657186 
   45500    296.89568   -234.87502    125208.97   -36917.544    3688.6367    -40606.18    555.76779   0.99604685 
   45600    300.80025    -26.91499    125182.38   -36910.661    3737.1472   -40647.808    557.85789   0.99625848 
   45700    301.89632    297.40756    125111.55   -36905.259    3750.7648   -40656.023    558.68087   0.99682249 
   45800    297.87686    236.46065    125138.51   -36900.404    3700.8269   -40601.231    559.92223   0.99660773 
   45900    295.00926    358.84035    125286.07   -36881.721    3665.1999    -40546.92     561.6132   0.99543389 
   46000    303.72922   -467.94383    125539.81   -36878.172    3773.5368   -40651.709    563.37656   0.99342193 
   46100    307.25259    73.013533    125799.37   -36870.328    3817.3112   -40687.639    566.21792   0.99137221 
   46200    302.52467   -588.58975    126071.53    -36880.39    3758.5715   -40638.961    567.89709   0.98923207 
   46300      296.229   -480.23255    126113.43   -36873.991    3680.3539   -40554.345    569.80987   0.98890346 
   46400    294.81554   -359.62163    125930.07   -36911.738    3662.7931   -40574.531    569.40589   0.99034332 
   46500     295.3524    179.67464     125551.3   -36888.762     3669.463   -40558.225    569.11316   0.99333106 
   46600    299.96076     76.73772    125241.41   -36894.979    3726.7174   -40621.696    569.39299   0.99578888 
   46700    300.22072    144.71861    124992.64   -36924.059    3729.9471   -40654.006    569.54197   0.99777081 
   46800    299.45571    123.88441    124870.91   -36917.072    3720.4426   -40637.515    569.76974   0.99874346 
   46900     299.2726    22.803246    124914.26   -36938.822    3718.1677    -40656.99     572.1287   0.99839688 
   47000    297.81544     205.3987    125048.07   -36964.929    3700.0638   -40664.992    574.62518   0.99732851 
   47100    297.92626   -373.88392    125277.73    -36987.33    3701.4407    -40688.77    576.74296   0.99550017 
   47200    296.75134   -515.17755    125451.28   -36966.304    3686.8435   -40653.147    578.94342   0.99412303 
   47300    298.36913   -380.57947    125399.41   -36992.088     3706.943   -40699.031    580.17502   0.99453424 
   47400    298.66537   -144.44907    125218.23   -36958.727    3710.6235   -40669.351    580.92083   0.99597319 
   47500    302.00501    26.034215    125064.56   -36965.036    3752.1151   -40717.151    581.23944   0.99719699 
   47600    302.19342     -43.9252    125026.83   -36955.698     3754.456   -40710.154    583.16233   0.99749795 
   47700    301.26717   -70.366199    124979.55   -36953.835    3742.9483   -40696.784    584.74255   0.99787524 
   47800    296.08078   -16.619454    124885.02   -36965.796    3678.5124   -40644.309    586.49715   0.99863057 
   47900    298.10775   -312.13596     124843.6   -36976.505    3703.6956   -40680.201    588.19447   0.99896195 
   48000     294.2339    13.817032    124874.76   -36950.113    3655.5668    -40605.68    589.43415   0.99871264 
   48100    303.93018    377.10137    124961.35   -36933.749    3776.0335   -40709.782    591.71885   0.99802059 
   48200    304.75905   -23.714094    125158.13   -36914.648    3786.3314    -40700.98    593.67306   0.99645147 
   48300    294.69385    142.29577    125432.47   -36938.308    3661.2812   -40599.589    595.43241   0.99427212 
   48400    296.08928    179.41987    125685.08    -36941.93    3678.6181   -40620.548    598.67292   0.99227371 
   48500    298.74529   -177.49802    125790.88   -36932.735    3711.6164   -40644.351    599.87117   0.99143918 
   48600    298.41639   -251.17627    125759.68   -36916.442    3707.5301   -40623.972    600.73357   0.99168509 
   48700    300.03799   -259.80159    125624.56   -36920.862    3727.6769   -40648.539    602.19733   0.99275173 
   48800    296.19582   -497.90084    125319.11   -36889.777    3679.9417   -40569.719    602.91096   0.99517151 
   48900    298.77202     696.9889    124956.28   -36906.545    3711.9484   -40618.493    603.41221    0.9980611 
   49000    299.15413    382.34834    124891.86   -36927.988    3716.6958   -40644.684    605.60502   0.99857592 
   49100    294.61453    148.59615     125047.8   -36947.018    3660.2957   -40607.314     607.6876   0.99733066 
   49200    295.88911    408.22359    125180.05   -36941.669    3676.1312     -40617.8    610.50506     0.996277 
   49300    296.88966     219.3383    125290.21   -36918.157    3688.5619   -40606.719    612.89396   0.99540105 
   49400    297.42476    145.07916    125429.08   -36924.523    3695.2101   -40619.733    614.99792   0.99429897 
   49500    302.14363   -111.96338    125523.91   -36899.443    3753.8373    -40653.28    617.07767   0.99354778 
   49600    297.92556   -81.433071    125540.02   -36909.004     3701.432   -40610.436    618.69466   0.99342031 
   49700    298.67485   -177.58188    125502.33   -36858.937    3710.7412   -40569.678    619.48934   0.99371865 
   49800     303.4467    -531.9294    125415.49   -36848.504    3770.0267   -40618.531    620.46723   0.99440669 
   49900    304.30681    178.22455    125186.63   -36800.398    3780.7127   -40581.111    621.34389   0.99622463 
   50000    300.59464    420.98851    124898.45   -36791.971    3734.5927   -40526.564    621.60594   0.99852321 
   50100    299.92914    -9.263175    124676.08   -36843.049    3726.3245   -40569.373    621.63329    1.0003042 
   50200    302.73877   -81.664553    124509.02   -36862.378    3761.2314   -40623.609    623.54493    1.0016463 
   50300    296.85864    188.93781    124399.22   -36859.448    3688.1766   -40547.624    624.67399    1.0025304 
   50400    295.19459    159.66364    124290.35   -36885.436    3667.5023   -40552.938     625.5386    1.0034086 
   50500    295.67925   -1.0472414    124205.68   -36887.082    3673.5238   -40560.606    626.01008    1.0040926 
   50600    298.64076     300.3582    124230.54   -36858.777    3710.3176   -40569.094    626.80987    1.0038917 
   50700     297.4364    32.910953    124420.31   -36857.061    3695.3546   -40552.416    628.42402    1.0023605 
   50800     300.0339    319.06906    124559.11   -36836.343     3727.626   -40563.969    630.14113    1.0012435 
   50900    293.05465    108.71567    124681.08   -36833.139    3640.9157   -40474.055     632.1373    1.0002641 
   51000    297.13027   -93.240624     124835.7   -36861.796    3691.5513   -40553.348    634.06568   0.99902517 
   51100    299.69201    438.38217     124975.5   -36882.208    3723.3784   -40605.586    636.34752   0.99790758 
   51200    298.78303   -201.00711     125118.9   -36899.381    3712.0852   -40611.467     637.9401   0.99676394 
   51300    300.87428   -24.745039    125187.08   -36864.193    3738.0669   -40602.259    638.93677   0.99622102 
   51400     300.5128    278.69564    125292.64   -36865.849     3733.576   -40599.425    640.43574   0.99538172 
   51500    298.66121    158.46325    125471.73    -36881.33    3710.5717   -40591.902    643.51858   0.99396098 
   51600    301.63914   -243.24056    125678.16   -36875.627    3747.5696   -40623.197    645.15619   0.99232841 
   51700      299.007   -164.34524    125783.32   -36884.381    3714.8679   -40599.249    645.85411   0.99149876 
   51800     308.7209   -134.50179    125804.98    -36870.38    3835.5535   -40705.933    647.10532   0.99132803 
   51900    301.58918    301.79691    125740.04   -36886.795    3746.9489   -40633.744    647.87042      0.99184 
   52000    296.09213    113.24649     125668.4   -36925.022    3678.6534   -40603.675    648.69452   0.99240543 
   52100    296.91134    186.54045    125582.71   -36929.015    3688.8314   -40617.846    649.31779    0.9930826 
   52200     300.8472   -301.18873    125446.97   -36925.977    3737.7305   -40663.707    649.90069   0.99415714 
   52300    301.29035    118.82228    125153.02   -36917.158    3743.2362   -40660.395    649.59387   0.99649219 
   52400    301.77025     580.7412    124864.97   -36912.243    3749.1985   -40661.442    649.93277   0.99879097 
   52500    303.43834     72.09323    124759.04   -36914.425    3769.9229   -40684.348    650.97813     0.999639 
   52600    298.78595    64.772113    124807.76   -36899.153    3712.1215   -40611.274    651.77041   0.99924876 
   52700    294.73099    150.44182    124985.07   -36929.771    3661.7426   -40591.514    653.05725   0.99783119 
   52800    304.47936    195.47817    125183.53   -36932.693    3782.8565   -40715.549    654.74175   0.99624927 
   52900    298.18603     250.1882    125357.07   -36926.806    3704.6681   -40631.475    656.60534    0.9948701 
   53000    297.59262   -171.18193    125490.78   -36957.665    3697.2956   -40654.961    658.32822   0.99381011 
   53100    295.04592    133.45167    125527.86   -36934.475    3665.6553    -40600.13    660.13105   0.99351652 
   53200    305.36353    -102.7113    125502.31   -36900.616    3793.8415   -40694.457    660.52679   0.99371877 
   53300    297.37417    177.55882    125520.81   -36910.087    3694.5816   -40604.668    660.74833   0.99357236 
   53400    297.44763    -326.8114    125438.49    -36920.57    3695.4942   -40616.064    661.50676   0.99422438 
   53500    296.45894    614.54499    125113.66     -36923.5    3683.2107   -40606.711    661.78555   0.99680566 
   53600    291.65413    405.54112    124977.43    -36924.99    3623.5157   -40548.506    662.84103   0.99789222 
   53700    301.56047    475.83708    125005.23    -36906.36    3746.5922   -40652.952    664.21373    0.9976703 
   53800    301.34274   0.30980774    125153.28   -36885.741    3743.8871   -40629.628    665.56493   0.99649012 
   53900    303.76529   -245.31629     125266.6   -36937.315    3773.9849   -40711.299    666.82694   0.99558863 
   54000    292.16037   -42.272865    125389.15    -36986.43    3629.8052   -40616.235    667.46304   0.99461557 
   54100    301.37321   -46.944898    125569.78    -36958.97    3744.2656   -40703.235    668.06797   0.99318489 
   54200    298.88073   -214.03262    125628.23   -36944.169    3713.2991   -40657.468    669.61811    0.9927228 
   54300     301.0798    85.941554    125511.72   -36964.569    3740.6203   -40705.189    670.27911   0.99364426 
   54400    302.84232   -201.65605    125417.67   -36909.975     3762.518   -40672.493    670.91796   0.99438945 
   54500    299.98955   -208.73082    125313.43   -36895.601    3727.0751   -40622.676    670.89864   0.99521657 
   54600    299.17021   -143.98255    125134.44   -36906.863    3716.8956   -40623.758    671.16297    0.9966401 
   54700    303.29443    125.44687    124915.39   -36921.545     3768.135    -40689.68    672.35118   0.99838784 
   54800    302.27456    245.02564    124793.12   -36921.827     3755.464   -40677.291    673.48357   0.99936599 
   54900    302.41698    196.87271    124870.97    -36935.08    3757.2335   -40692.313     676.1291   0.99874298 
   55000    300.31593   -106.49879     125045.6   -36946.495      3731.13   -40677.625    678.14705    0.9973482 
   55100    302.01306   -205.07082    125159.85   -36934.532    3752.2151   -40686.747    680.17165    0.9964378 
   55200    297.27046    23.929571    125135.94   -36946.554     3693.293   -40639.847    680.92872   0.99662817 
   55300    295.68999    54.303965     124982.6   -36928.878    3673.6572   -40602.535    681.18374    0.9978509 
   55400    293.66354    114.87608    124866.59   -36935.242    3648.4806   -40583.723    683.05609   0.99877801 
   55500    294.44082    184.67326     124832.3   -36896.516    3658.1375   -40554.654    684.48683   0.99905238 
   55600    301.10523    268.39705    124815.84   -36904.352    3740.9363   -40645.288    685.46722   0.99918411 
   55700    301.18477    -185.6761    124959.96    -36889.88    3741.9245   -40631.805    687.82379   0.99803174 
   55800     299.0026    273.65415    125219.99   -36905.336    3714.8132   -40620.149      689.807   0.99595918 
   55900    301.76008   -465.50647    125488.21   -36875.853    3749.0721   -40624.925    692.06518   0.99383042 
   56000    304.10007    -585.6956    125647.95   -36829.186    3778.1442    -40607.33    694.12445   0.99256697 
   56100    301.10277   -141.72658    125609.12   -36835.277    3740.9057   -40576.183    694.37264    0.9928738 
   56200    300.36198   -87.067356    125438.77   -36835.129    3731.7021   -40566.831     694.9681   0.99422212 
   56300    292.26146   -140.78032    125270.68   -36860.734    3631.0612   -40491.796    696.29169   0.99555618 
   56400    298.67642     271.0682    125122.42   -36875.106    3710.7607   -40585.867    696.29203   0.99673583 
   56500    302.41106    123.74971    125065.52   -36867.002    3757.1599   -40624.162    697.81817   0.99718934 
   56600    303.33107    460.64936    125055.38   -36868.409    3768.5902   -40636.999    699.53984   0.99727023 
   56700    296.98723   -320.96557    125208.64   -36915.132    3689.7742   -40604.906    702.09867    0.9960495 
   56800    293.32955    -616.8978    125327.23   -36881.654    3644.3311   -40525.985    704.62116   0.99510699 
   56900    299.91488    288.97245    125215.24   -36854.489    3726.1473   -40580.637     705.9672   0.99599699 
   57000    295.06119   -67.715819    125125.16   -36850.062     3665.845   -40515.907    707.33176   0.99671405 
   57100    294.03986   -228.12264    125109.33    -36874.41     3653.156   -40527.566    709.22613   0.99684016 
   57200     296.3548     8.891291    125056.88   -36911.747    3681.9169   -40593.664    711.02108   0.99725822 
   57300    296.25576    117.15691    125020.71   -36907.432    3680.6864   -40588.118    711.65649   0.99754675 
   57400     297.2792   -82.482106    124953.88   -36922.089    3693.4016   -40615.491    712.48105   0.99808029 
   57500    292.65761   -147.24215    124874.75   -36913.609    3635.9829   -40549.592    713.33998   0.99871275 
   57600    303.45509   -143.16523    124796.76   -36900.393     3770.131   -40670.524    714.57282   0.99933689 
   57700     297.6636    118.48592    124594.55   -36913.716    3698.1775   -40611.893    714.74924    1.0009587 
   57800    301.22384    535.34123    124445.03    -36901.61      3742.41    -40644.02    714.83253    1.0021614 
   57900     303.3672    119.51637    124509.08   -36898.268    3769.0391   -40667.307    716.47924    1.0016458 
   58000    296.04998    274.89023    124627.15   -36921.954    3678.1298   -40600.084    718.12018    1.0006969 
   58100    302.20058    111.12219    124787.54    -36927.29     3754.545   -40681.835    720.14921    0.9994107 
   58200    295.60835   -634.94602    125042.18   -36937.618     3672.643   -40610.261     722.1557   0.99737545 
   58300    298.99493   -170.07028    125178.33   -36948.309    3714.7179   -40663.027    724.26277   0.99629065 
   58400    297.40839   -247.47353    125176.89   -36925.246    3695.0067   -40620.252    725.80408   0.99630211 
   58500    300.09516    40.216819     125093.6   -36898.055    3728.3872   -40626.443    726.50887   0.99696553 
   58600    298.97352    216.58265     124939.2   -36910.764    3714.4518   -40625.216    727.21462   0.99819752 
   58700    302.11447    21.955849     124932.2   -36897.747    3753.4751   -40651.223    729.03866   0.99825349 
   58800    298.07888   -247.03791    125006.84   -36957.784    3703.3369   -40661.121    730.51543   0.99765742 
   58900    296.27921    113.80327    125070.61   -36967.199    3680.9777   -40648.177    732.52667   0.99714879 
   59000     294.3084    24.588922    125108.55   -36962.975    3656.4923   -40619.467    733.41933    0.9968464 
   59100    293.84393    265.05765     125124.3    -36956.05    3650.7218   -40606.772    734.05177    0.9967209 
   59200    304.76845    330.87942    125163.32   -36959.705    3786.4482   -40746.153    735.05676   0.99641014 
   59300    294.19819    257.74896    125264.84   -36924.869    3655.1231   -40579.992    736.57676   0.99560261 
   59400    298.40363   -340.29964    125404.29   -36949.311    3707.3716   -40656.682    739.47856   0.99449552 
   59500     299.4893   -497.88962    125418.37   -36925.666    3720.8599   -40646.526    741.95113    0.9943839 
   59600    298.64128    283.50871    125253.33    -36899.93    3710.3241   -40610.254    742.15239   0.99569409 
   59700    302.37965    112.11733    125039.49   -36891.397    3756.7697   -40648.166    743.70784   0.99739691 
   59800    304.81885  -0.57339809    124957.81   -36863.097    3787.0744   -40650.171    744.62795   0.99804887 
   59900    303.31132    17.697834    124986.49    -36862.42    3768.3448   -40630.764    746.53768   0.99781989 
   60000     299.0935   -23.006409    125120.15   -36866.717    3715.9425   -40582.659    749.24254   0.99675399 
   60100    300.75867   -6.6694884    125336.47   -36906.175    3736.6306   -40642.806     751.0069   0.99503361 
   60200    295.60874    201.75964    125520.52   -36895.976    3672.6478   -40568.624    753.38314   0.99357465 
   60300    297.55046   -252.92899    125662.06   -36895.284    3696.7718   -40592.056    755.94541   0.99245554 
   60400    299.21575   -383.03568    125752.56   -36864.055    3717.4614   -40581.516    757.49541   0.99174125 
   60500    297.17712   -494.30997    125661.66   -36853.726    3692.1334   -40545.859    758.39949   0.99245864 
   60600    301.16539   -568.16292    125339.05   -36858.212    3741.6837   -40599.896    758.15044   0.99501312 
   60700    301.50523   -14.881679    124785.11   -36848.649    3745.9059   -40594.555    757.36393   0.99943018 
   60800    300.24993    74.980826    124335.96   -36842.889      3730.31   -40573.199    757.99866    1.0030405 
   60900    301.51661    511.71081    124218.02   -36824.261    3746.0473   -40570.308    758.60041    1.0039928 
   61000    300.07289    213.23802    124368.08   -36817.719    3728.1105   -40545.829    760.73753    1.0027814 
   61100    299.73765   -81.949871    124661.19   -36826.899    3723.9454   -40550.844    762.89771    1.0004236 
   61200    299.45103   -264.86359    124956.69   -36838.782    3720.3844   -40559.167    764.92696   0.99805783 
   61300    296.69256   -262.17748    125185.02   -36832.449    3686.1132   -40518.563    766.02279    0.9962374 
   61400    300.50118   -9.5700947     125225.9   -36860.732    3733.4316   -40594.164    767.16019   0.99591225 
   61500    300.08692    -66.42071    125269.17   -36850.411    3728.2848   -40578.696    768.45423   0.99556818 
   61600    299.77606   -184.66141    125304.04   -36884.329    3724.4227   -40608.752    768.67183   0.99529113 
   61700    301.91682   -48.511822    125299.16    -36872.71    3751.0195    -40623.73    768.98949    0.9953299 
   61800    306.67978   -124.20465    125250.77   -36881.775    3810.1945   -40691.969    769.39008   0.99571447 
   61900     302.8493   -2.2372231    125283.47   -36871.613    3762.6047   -40634.218    770.39268   0.99545458 
   62000    300.93248   -140.75145    125412.54   -36887.494      3738.79   -40626.284    772.58421   0.99443006 
   62100     299.3279    70.070265    125578.22   -36894.176    3718.8547   -40613.031    775.46537   0.99311807 
   62200    299.20909    386.26026    125805.52   -36882.318    3717.3786   -40599.696     777.7304   0.99132375 
   62300    294.87784   -97.568186    126078.31   -36890.776     3663.567   -40554.343    779.99307    0.9891789 
   62400    298.96727   -319.63117    126168.89   -36892.549    3714.3742   -40606.923    781.26134   0.98846872 
   62500    300.78924   -289.47982    126175.86   -36914.168    3737.0104   -40651.178    782.52671   0.98841415 
   62600    298.93872   -30.839224    125993.04   -36897.954    3714.0196   -40611.974    783.67506   0.98984837 
   62700    298.46665   -263.97131    125664.34   -36927.716    3708.1546   -40635.871    784.24773   0.99243752 
   62800    291.43502    290.84779    125220.33   -36909.025    3620.7934   -40529.819    784.63716   0.99595648 
   62900    303.65646    172.74852    124874.45   -36877.785    3772.6328   -40650.417    785.18885    0.9987151 
   63000    302.74005    269.01962    124668.88   -36876.493    3761.2473   -40637.741    786.17272    1.0003619 
   63100    297.79852    637.35768    124651.89   -36855.138    3699.8537   -40554.992    788.34445    1.0004983 
   63200    302.21958   -89.981145    124894.41   -36881.928     3754.781   -40636.709    791.32455   0.99855552 
   63300    298.77614   -4.1208214    125165.45   -36922.309    3711.9997   -40634.309    792.66616   0.99639319 
   63400     302.7098   -474.25963    125366.48   -36906.033    3760.8714   -40666.904    794.99511   0.99479547 
   63500    303.27215    92.150482    125437.32   -36936.081    3767.8581   -40703.939     796.5057   0.99423366 
   63600    296.42244    4.1100728     125451.8   -36922.401    3682.7573   -40605.158    797.30463   0.99411889 
   63700    297.97374    249.34551    125368.03     -36897.7    3702.0306   -40599.731     798.5633   0.99478315 
   63800    305.29004   -202.03676    125307.59   -36898.268    3792.9285   -40691.196    800.75498   0.99526295 
   63900    301.08262   -195.86218    125225.02   -36903.754    3740.6553   -40644.409    801.31557   0.99591925 
   64000    299.31239    96.703712    125145.69   -36861.077     3718.662   -40579.739    802.65018   0.99655052 
   64100    296.26331   -56.852041    125170.04   -36866.398    3680.7802   -40547.178     805.0965    0.9963567 
   64200    298.98668   -22.694434    125195.94   -36862.237    3714.6154   -40576.853    806.58701   0.99615055 
   64300    307.10753   -99.954565    125137.68   -36870.045     3815.509   -40685.553    806.93381   0.99661431 
   64400    300.33067    263.58827    124977.07   -36862.374    3731.3132   -40593.687    807.21221    0.9978951 
   64500    306.97712    262.04607    124925.65   -36859.324    3813.8887   -40673.212    809.56022   0.99830586 
   64600    307.40393   -378.33258    125035.82   -36839.897    3819.1915   -40659.088    811.00216    0.9974262 
   64700    304.22043    121.54714    125155.81   -36859.563    3779.6396   -40639.202    813.17032   0.99646998 
   64800    297.74735    -89.87141    125315.44   -36853.685    3699.2179   -40552.903     815.5263   0.99520064 
   64900    300.07568   -487.11125    125335.81   -36869.844    3728.1452   -40597.989    816.76063   0.99503891 
   65000     306.0714   -105.87392    125256.54   -36872.783    3802.6361   -40675.419    818.00941   0.99566863 
   65100    303.26868    128.28748    125158.29   -36882.873    3767.8151   -40650.688     819.3675   0.99645017 
   65200    295.34194    65.547202    125123.26   -36930.942    3669.3331   -40600.275    820.29495   0.99672916 
   65300    296.83449    178.76689    125160.35     -36910.3    3687.8765   -40598.177    821.73639   0.99643379 
   65400    302.15122   -133.35815    125288.58   -36899.894    3753.9317   -40653.825    823.59077     0.995414 
   65500    288.69574   -280.88069    125428.82   -36919.498    3586.7606   -40506.259    825.09926   0.99430106 
   65600    298.12776   -106.36031    125514.86   -36888.602    3703.9441   -40592.547    826.24524   0.99361939 
   65700    300.11373   -261.88534    125582.82   -36893.035    3728.6178   -40621.653    828.79501   0.99308174 
   65800    303.42723   -10.339151    125542.09   -36910.041    3769.7848   -40679.826    828.66136   0.99340392 
   65900    298.49166    36.700693    125598.03   -36913.157    3708.4653   -40621.622    828.78106   0.99296146 
   66000    296.06639   -199.50083    125742.17   -36887.996    3678.3337   -40566.329    832.02434   0.99182324 
   66100     301.5186   -1.6207238    125659.67   -36902.384     3746.072   -40648.456    833.12689   0.99247436 
   66200    299.82468   -79.671866    125504.14    -36923.36    3725.0267   -40648.387    832.39249    0.9937043 
   66300    294.33253   -172.38871    125385.92   -36897.311    3656.7922   -40554.103    832.52367   0.99464121 
   66400    298.51346    81.738651    125172.66   -36883.252    3708.7361   -40591.988     833.8065   0.99633585 
   66500    300.72927   -120.65031    125058.47   -36871.384    3736.2653   -40607.649    834.92228   0.99724552 
   66600    302.05198   -97.824341    125055.49    -36876.59    3752.6987   -40629.289    834.52067    0.9972693 
   66700    295.91897    93.507658    124974.27   -36889.161    3676.5021   -40565.663    834.46511   0.99791746 
   66800    302.85695   -111.57267    124899.72   -36878.617    3762.6997   -40641.317    835.57503   0.99851307 
[...]
   84600    300.30178    63.439952    125214.55   -36913.507    3730.9542   -40644.461    1078.6252    0.9960025 
   84700    298.22696   -83.667119     125132.6   -36900.655    3705.1766   -40605.832    1079.8487   0.99665478 
   84800    301.09886   -193.83436    124983.75   -36943.751    3740.8571   -40684.608    1079.7542   0.99784178 
   84900    300.82444    282.98097    124691.43   -36929.186    3737.4477   -40666.634    1078.9436     1.000181 
   85000    301.06729      -190.04    124458.26   -36896.403    3740.4649   -40636.868     1078.785    1.0020548 
   85100    298.65533    216.06374    124285.96   -36882.463    3710.4986   -40592.961    1078.7156     1.003444 
   85200    297.23432    340.39348    124241.28   -36852.483     3692.844   -40545.327    1078.2731    1.0038049 
   85300    296.54148    321.51464    124404.38   -36866.148    3684.2361   -40550.384    1080.4472    1.0024888 
   85400    300.49231   -211.23115     124760.7   -36865.569    3733.3214   -40598.891     1083.082    0.9996257 
   85500    303.59881    170.28376    125109.45   -36864.738    3771.9166   -40636.654    1087.0014   0.99683919 
   85600    301.26115   -250.59136    125411.51   -36901.598    3742.8735   -40644.471    1089.6855   0.99443826 
   85700    300.98121    -335.0486    125543.77   -36897.094    3739.3955    -40636.49    1091.5145   0.99339065 
   85800    298.97214     9.324727    125448.84   -36949.531    3714.4348   -40663.966    1091.2841   0.99414234 
   85900    297.87721     69.98728    125291.31   -36915.651    3700.8314   -40616.482    1092.4947   0.99539232 
   86000    296.23895   -273.80233    125230.99   -36937.521    3680.4775   -40617.998    1093.4399   0.99587174 
   86100    302.40272   -110.42791    125076.08   -36938.057    3757.0563   -40695.113    1093.3177   0.99710516 
   86200    301.50909     348.2369    124870.85     -36893.4    3745.9538   -40639.353    1093.8595   0.99874397 
   86300    300.90616    195.87573    124885.36   -36877.124     3738.463   -40615.587    1096.4226    0.9986279 
   86400    299.96966   -318.37757    125001.13   -36889.892     3726.828   -40616.719     1098.056   0.99770301 
   86500    303.09086   -371.43157    125008.87   -36877.559    3765.6058   -40643.165    1098.3616   0.99764126 
   86600    297.99261   -21.406358    124868.09   -36859.694    3702.2651   -40561.959    1097.7716   0.99876599 
   86700    297.25656    418.69948    124700.96   -36826.103    3693.1203   -40519.223    1097.7601    1.0001046 
   86800    299.64589   -41.698366    124662.33   -36858.278    3722.8054   -40581.083     1098.556    1.0004145 
   86900    298.75976    83.747612    124717.86   -36837.339    3711.7961   -40549.135    1101.7312   0.99996907 
   87000    301.08691    176.49565    124860.69   -36840.045    3740.7087   -40580.754    1103.8127   0.99882522 
   87100    303.34729   -80.432886    124966.93   -36804.991    3768.7917   -40573.783    1105.6847   0.99797608 
   87200    298.52618   -482.24087    125049.75   -36828.213    3708.8942   -40537.107    1107.4174   0.99731511 
   87300    302.10267    -160.3715    125058.62   -36846.103    3753.3285   -40599.431    1110.6332   0.99724433 
   87400    300.75223   -313.97219    125028.95   -36834.601    3736.5506   -40571.151    1111.9829   0.99748101 
   87500    298.28353   -20.425121    124837.28   -36836.365    3705.8794   -40542.244     1113.505   0.99901251 
   87600    304.73471   -280.82703    124584.68   -36831.079     3786.029   -40617.108    1113.0022     1.001038 
   87700    303.30941    56.637842    124314.41   -36840.882    3768.3211   -40609.203    1113.9249    1.0032144 
   87800    297.19748    518.22001    124163.81   -36844.834    3692.3863   -40537.221    1115.1855    1.0044312 
   87900    293.76867    118.37975    124280.17   -36846.781    3649.7867   -40496.568    1117.7244    1.0034908 
   88000    300.67414    60.245512    124533.94   -36827.799    3735.5805   -40563.379    1121.0847    1.0014459 
   88100    299.86019    103.09506    124756.62    -36825.86    3725.4678   -40551.328    1124.1904   0.99965839 
   88200      297.799    114.62332    124990.72   -36803.547    3699.8596   -40503.407    1127.1624   0.99778612 
   88300    298.17834     236.4234    125189.75   -36799.147    3704.5725    -40503.72    1129.0006    0.9961998 
   88400    303.21854   -183.72431    125369.18   -36790.774    3767.1921   -40557.966    1132.3064   0.99477399 
   88500    296.54554   -350.65208     125449.2   -36813.703    3684.2866   -40497.989    1134.6307    0.9941395 
   88600    302.80978   -63.194939    125416.55   -36803.266    3762.1137    -40565.38    1134.6409   0.99439827 
   88700    303.61891    119.30109    125340.03   -36821.216    3772.1663   -40593.382    1134.6673   0.99500535 
   88800    299.14254   -7.8346217    125294.34   -36796.322    3716.5518   -40512.874    1134.8405   0.99536825 
   88900    301.54987   -312.20238    125195.12   -36805.747    3746.4604   -40552.208      1134.97   0.99615704 
   89000    304.98436     201.3483    124943.78   -36772.776    3789.1306   -40561.906    1135.5705   0.99816099 
   89100    300.28522    144.16546    124820.22   -36747.725    3730.7484   -40478.473    1135.7062   0.99914902 
   89200    305.16701    206.19398    124811.14   -36732.218    3791.3999   -40523.618    1137.6863   0.99922174 
   89300    307.74235   -182.45892    124919.07   -36705.954     3823.396    -40529.35    1140.1405   0.99835843 
   89400    302.53877     406.0881    124981.74   -36705.262    3758.7467   -40464.009    1140.6388   0.99785779 
   89500    301.53457    36.610445    125135.05   -36745.703    3746.2704   -40491.973    1143.0069    0.9966353 
   89600    301.63036   -420.25489    125275.03   -36771.293    3747.4606   -40518.754    1145.8291   0.99552167 
   89700    298.08627   -375.61192    125255.05   -36775.573    3703.4287   -40479.002    1148.2224   0.99568043 
   89800    308.04204    274.97247    125017.91   -36751.931    3827.1193    -40579.05    1147.6009    0.9975691 
   89900    302.61303    139.23004    124894.32   -36769.636    3759.6692   -40529.305    1147.5996   0.99855627 
   90000    307.22373    157.59898    124873.87    -36793.47    3816.9526   -40610.423    1149.1163   0.99871979 
   90100    306.25241    36.558724    124945.02   -36764.547    3804.8849   -40569.432    1150.2777   0.99815103 
   90200    304.84341    34.446228    125066.05   -36753.038    3787.3795   -40540.418    1153.5122   0.99718514 
   90300    300.05454   -438.61533    125220.89   -36759.288    3727.8825    -40487.17    1155.4332   0.99595208 
   90400    304.92197   -255.50516    125195.16   -36751.367    3788.3555   -40539.722    1155.9565   0.99615673 
   90500    304.92399     354.2602     125057.3   -36757.256    3788.3806   -40545.636    1156.3818    0.9972549 
   90600    306.81903   -13.168538    125052.66   -36777.843    3811.9247   -40589.768    1158.3139   0.99729187 
   90700     303.8648    262.46705    125095.42   -36746.699    3775.2212    -40521.92    1159.9389   0.99695097 
   90800    308.49116   -123.62279    125181.93   -36753.443    3832.6992   -40586.143    1162.4273   0.99626204 
   90900    302.75354   -287.42456    125221.21   -36764.071     3761.415   -40525.486    1164.5646    0.9959495 
   91000    307.26682    -197.3033    125230.07   -36742.533     3817.488   -40560.021    1164.6359   0.99587908 
   91100    303.93209   -258.37449    125183.12   -36713.223    3776.0573    -40489.28    1165.8899   0.99625252 
   91200    306.10543    96.627758    125103.55    -36694.66    3803.0588   -40497.719    1166.2609   0.99688624 
   91300     304.2229  -0.36400561    125165.36   -36689.239    3779.6703   -40468.909     1166.986   0.99639395 
   91400     307.9319   -48.520929    125247.83   -36712.287     3825.751   -40538.038    1168.4127    0.9957378 
   91500    301.98327   -54.746622    125249.07   -36716.159     3751.845   -40468.004    1169.5512   0.99572799 
   91600    299.99257    5.0338553    125140.01   -36725.884    3727.1125   -40452.997    1171.0888   0.99659576 
   91700    304.01755   -517.03032    125072.25   -36723.111     3777.119    -40500.23    1170.9212   0.99713569 
   91800    300.34478    289.53057    124949.32   -36712.141    3731.4884    -40443.63    1171.8286   0.99811674 
   91900    308.91992   -57.651959    124765.14   -36731.156    3838.0261   -40569.182    1171.2611   0.99959011 
   92000    303.96495    539.51354    124559.74   -36742.301    3776.4655   -40518.766    1170.3812    1.0012384 
   92100    301.59969    70.997258    124598.01    -36766.11    3747.0795    -40513.19     1171.842    1.0009309 
   92200    301.82602   -145.20276    124696.69   -36776.542    3749.8914   -40526.434    1173.3076    1.0001388 
   92300    304.13234   -74.238094    124757.02   -36815.883    3778.5452   -40594.429    1174.3557   0.99965518 
   92400    304.79104   -171.69599    124763.02    -36810.73    3786.7288   -40597.459    1175.3414   0.99960711 
   92500    303.26196   -75.904179     124751.4   -36828.582    3767.7315   -40596.313    1175.8055   0.99970025 
   92600    300.88238    192.20267    124718.16   -36852.359    3738.1676   -40590.527    1176.8657   0.99996668 
   92700    298.32847     96.42502    124729.71   -36865.398    3706.4378   -40571.836    1178.3835   0.99987409 
   92800     302.2702    401.66967    124781.43    -36828.19    3755.4099   -40583.599     1180.337   0.99945962 
   92900    300.59904   -114.77902    124981.52   -36816.853    3734.6474   -40551.501    1183.3968   0.99785957 
   93000    298.95798   -169.62467    125212.15   -36833.207    3714.2588   -40547.466    1187.6191   0.99602155 
   93100    300.34314    293.16448    125334.59   -36825.197    3731.4681   -40556.665    1190.5929   0.99504853 
   93200     301.3146    315.23566    125402.83   -36841.805    3743.5375   -40585.343     1191.924   0.99450707 
   93300    299.91505   -178.43401    125520.45   -36857.319    3726.1494   -40583.468    1194.8033   0.99357517 
   93400    296.32625    92.939116     125489.4   -36874.769    3681.5622   -40556.331    1195.8629     0.993821 
   93500    302.52205   -291.21394    125333.08   -36877.409    3758.5389   -40635.948    1195.9815   0.99506058 
   93600    300.72833    153.42831    125126.47   -36888.577    3736.2536    -40624.83    1195.9092    0.9967036 
   93700    304.37159    314.34525    125044.61   -36872.554    3781.5176   -40654.072     1197.299   0.99735609 
   93800    305.53611   -111.06814    125038.97   -36864.003    3795.9856   -40659.989    1198.8747   0.99740105 
   93900    306.65517    115.02241    125008.53   -36847.841    3809.8888    -40657.73    1199.3788   0.99764399 
   94000    301.52824    276.82325    125128.24   -36875.716    3746.1918   -40621.908    1202.0096    0.9966895 
   94100     299.0764   -582.20962    125375.01   -36868.439    3715.7301   -40584.169    1205.0281    0.9947278 
   94200    295.85268   -482.67553    125397.89   -36869.694    3675.6786   -40545.373    1207.9726   0.99454631 
   94300    295.50592    62.969711    125319.28   -36853.176    3671.3704   -40524.546    1208.5728   0.99517015 
   94400     302.0916   -57.066247    125344.18   -36845.975    3753.1909   -40599.166    1208.9499   0.99497241 
   94500    291.55979   -393.54538    125334.02   -36839.415    3622.3436   -40461.759    1210.4173   0.99505309 
   94600     298.0147   -514.25544     125112.5   -36839.895    3702.5395   -40542.434    1211.0088   0.99681489 
   94700    298.00948    291.12922    124813.82   -36813.579    3702.4746   -40516.054    1209.2316   0.99920031 
   94800    305.56813    331.08383    124632.17   -36813.158    3796.3834   -40609.542    1209.9709    1.0006566 
   94900    299.62118   -231.27313    124608.27   -36799.941    3722.4984    -40522.44    1212.1105    1.0008485 
   95000     301.6788    382.50637     124584.7   -36784.777    3748.0623   -40532.839    1214.0735    1.0010379 
   95100    304.25685   -26.999437     124643.7   -36788.608    3780.0921     -40568.7    1216.1717     1.000564 
   95200    303.20164     372.0356    124728.56   -36800.364    3766.9821   -40567.346    1219.2621   0.99988332 
   95300    305.81629    -90.56248     124985.9   -36796.136    3799.4666   -40595.603     1222.454   0.99782462 
   95400    300.43257   -33.863114    125224.54   -36787.128    3732.5791   -40519.707    1224.6618   0.99592304 
   95500    297.72108    -38.80152    125322.05   -36803.347    3698.8915   -40502.238    1225.1508   0.99514811 
   95600    303.50989    204.69551    125315.67   -36826.004    3770.8118   -40596.816    1227.7166   0.99519881 
   95700    301.36605   -153.28066    125234.65   -36829.374    3744.1767   -40573.551    1226.8757   0.99584264 
   95800    302.04014     312.3577    125077.83   -36822.672    3752.5517   -40575.224    1228.1496   0.99709119 
   95900    300.55796    335.38859    124957.36   -36831.875    3734.1369   -40566.012    1229.0686   0.99805251 
   96000     298.9471    194.18769     124940.4    -36846.75    3714.1236   -40560.873    1230.1762   0.99818794 
   96100     299.7618    260.02866    124998.79   -36847.317    3724.2455   -40571.562    1232.4364   0.99772171 
   96200    299.19706    24.938739    125102.09    -36858.09    3717.2291   -40575.319    1232.6698   0.99689786 
   96300    300.17321    141.00085    125227.22   -36862.681    3729.3568   -40592.038    1235.1661   0.99590172 
   96400    305.27985    116.93328    125353.49   -36865.995    3792.8018   -40658.797    1236.9486   0.99489852 
   96500    304.09261    15.616277    125561.61   -36872.509    3778.0516    -40650.56    1240.4175   0.99324951 
   96600    305.64308   -130.66237    125726.28    -36857.32    3797.3147   -40654.635    1242.7727   0.99194861 
   96700     298.5739   -70.302809    125718.74   -36862.579     3709.487   -40572.066    1244.1694   0.99200809 
   96800    296.44946   -146.13789    125660.53   -36850.458     3683.093   -40533.551    1245.1975    0.9924676 
   96900    302.01897   -124.11336    125500.57   -36821.314    3752.2886   -40573.603    1245.6068    0.9937326 
   97000    300.86412    292.36994    125302.36   -36832.396    3737.9407   -40570.336    1245.9751   0.99530449 
   97100    301.10732   -31.391097    125181.46   -36834.549    3740.9623   -40575.512    1246.2996    0.9962658 
   97200     297.8022    71.163593    124996.74   -36818.225    3699.8993   -40518.125    1247.8739   0.99773801 
   97300    291.01394    358.16294    124799.84    -36810.77    3615.5619   -40426.332    1248.7344    0.9993122 
   97400    296.54683     289.3379    124817.27   -36820.636    3684.3027   -40504.939    1250.7799   0.99917262 
   97500    298.54045   -271.42109    124971.25   -36834.935    3709.0714   -40544.006    1254.3353   0.99794157 
   97600    301.02299   -547.34442    125064.22   -36805.123    3739.9145   -40545.038    1256.1937   0.99719967 
   97700    297.23667    119.82575    124975.16   -36809.925    3692.8732   -40502.798    1256.5358   0.99791033 
   97800    302.53851    114.11657    124861.63   -36850.632    3758.7434   -40609.376    1256.1191   0.99881771 
   97900    302.42613   -125.10561     124719.4   -36852.924    3757.3471   -40610.271    1257.3421   0.99995677 
   98000    302.77445    231.34872    124598.15   -36863.972    3761.6747   -40625.647    1256.8634    1.0009299 
   98100    305.30438   -123.95018    124560.89   -36891.965    3793.1066   -40685.071    1258.6454    1.0012292 
   98200     300.1257    336.25494    124490.83   -36873.679    3728.7666   -40602.446     1260.216    1.0017927 
   98300    298.55747    314.01399    124441.64   -36850.103    3709.2829   -40559.386    1260.6775    1.0021887 
   98400    300.19552    340.32281    124432.01   -36845.333     3729.634   -40574.967    1261.2746    1.0022662 
   98500     297.9281    136.48467    124492.27   -36888.624    3701.4636   -40590.088    1263.1775    1.0017811 
   98600    303.78274    266.88023    124674.29    -36899.74    3774.2017   -40673.942    1266.7653    1.0003185 
   98700    300.58445   -439.78562    124976.84   -36903.932    3734.4661   -40638.398    1269.9557   0.99789689 
   98800    294.80281    42.251706    125232.13     -36909.8    3662.6349   -40572.434    1273.2044   0.99586267 
   98900    298.32246   -398.82046    125377.93   -36920.029    3706.3631   -40626.392    1274.7014   0.99470459 
   99000    293.94118   -165.45311    125238.22   -36945.034      3651.93   -40596.964    1274.8671   0.99581423 
   99100    300.83916    25.415117    125077.75   -36907.968    3737.6306   -40645.599    1275.5249   0.99709186 
   99200    301.51006   -22.822361    125009.46   -36923.792    3745.9659   -40669.757    1275.7852   0.99763649 
   99300    297.03175     419.9012    125026.79    -36955.61    3690.3273   -40645.937    1277.9776   0.99749827 
   99400    298.16906   -67.844351    125096.22   -36935.805    3704.4573   -40640.262    1279.8052   0.99694464 
   99500    297.99967   -421.50135    125085.63   -36929.849    3702.3528   -40632.202    1280.2327   0.99702903 
   99600    297.31523    5.4525545    125063.39   -36920.111    3693.8493   -40613.961    1281.4181   0.99720634 
   99700    300.87094    149.03851     125082.7   -36926.157    3738.0255   -40664.183    1282.4863   0.99705235 
   99800    296.82247    275.85023    125156.97   -36952.426    3687.7272   -40640.153    1283.1901   0.99646073 
   99900    300.31371   -445.35638    125267.84   -36968.781    3731.1024   -40699.884    1284.9455   0.99557881 
  100000    300.92818    4.8908361    125190.29   -37015.077    3738.7366   -40753.814    1285.7158   0.99619547 
  100100    296.21328    16.478957    125055.03     -36994.1    3680.1587   -40674.259    1285.5099   0.99727301 
  100200    297.08296   -17.468134    124971.67    -37001.15    3690.9635   -40692.114    1285.1329   0.99793816 
  100300    295.38606    268.30098    124925.96   -36995.568    3669.8813    -40665.45    1286.0967   0.99830334 
  100400    291.79024   -298.97374    124980.89   -36999.881    3625.2066   -40625.087    1287.3455    0.9978646 
  100500    296.71272    253.61918    125036.19   -36996.609    3686.3637   -40682.973     1289.158   0.99742322 
  100600    297.70153   -234.56746    125244.86   -36994.831    3698.6487    -40693.48    1291.0878   0.99576144 
  100640    299.49471    -143.2053    125335.43   -36976.128    3720.9271   -40697.056    1292.7089   0.99504189 
Loop time of 246.329 on 4 procs for 100000 steps with 4169 atoms

Performance: 175.375 ns/day, 0.137 hours/ns, 405.962 timesteps/s
99.7% CPU use with 4 MPI tasks x no OpenMP threads

MPI task timing breakdown:
Section |  min time  |  avg time  |  max time  |%varavg| %total
---------------------------------------------------------------
Pair    | 199.56     | 202.08     | 205.7      |  16.8 | 82.04
Neigh   | 14.302     | 14.367     | 14.437     |   1.6 |  5.83
Comm    | 18.563     | 22.241     | 24.829     |  51.3 |  9.03
Output  | 0.33394    | 0.33724    | 0.34691    |   1.0 |  0.14
Modify  | 5.9516     | 5.9783     | 6.0069     |   0.8 |  2.43
Other   |            | 1.329      |            |       |  0.54

Nlocal:        1042.25 ave        1049 max        1034 min
Histogram: 1 0 0 0 1 0 0 0 1 1
Nghost:        1780.75 ave        1783 max        1778 min
Histogram: 1 0 0 0 1 0 0 0 1 1
Neighs:        0.00000 ave           0 max           0 min
Histogram: 4 0 0 0 0 0 0 0 0 0
FullNghs:      30066.5 ave       30283 max       29606 min
Histogram: 1 0 0 0 0 0 0 0 1 2

Total # of neighbors = 120266
Ave neighs/atom = 28.847685
Neighbor list builds = 7037
Dangerous builds = 0

undump              1
unfix               2
unfix               3


################################################
#######         Run Simulation         #########
################################################

reset_timestep      0
log                 log.run_${NAME}
log                 log.run_liquid_298K_1atm_ML_NPT
