
# Create simulation box of size 50 x 50 x 50 Angstrom
#
lattice	            sc 1
Lattice spacing in x,y,z = 1 1 1
region 	            all block 0 50 0 50 0 50 units box
create_box          1 all
Created orthogonal box = (0 0 0) to (50 50 50)
  2 by 2 by 3 MPI processor grid

# fill box with 4169 randomly distributed atoms
#
create_atoms        1 random 4169 63782 all
Created 4169 atoms
  create_atoms CPU = 0.00171065 secs
mass                1 18.015

# Define potential
#
pair_style          sw
pair_coeff          * * ML_mW.sw mW
Reading potential file ML_mW.sw with DATE: 2019-02-27

# Run minimization
#
minimize            1.0e-8 1.0e-8 10000 1000
WARNING: Using 'neigh_modify every 1 delay 0 check yes' setting during minimization (../min.cpp:168)
Neighbor list info ...
  update every 1 steps, delay 0 steps, check yes
  max neighbors/atom: 2000, page size: 100000
  master list distance cutoff = 6.00329
  ghost atom cutoff = 6.00329
  binsize = 3.00165, bins = 17 17 17
  1 neighbor lists, perpetual/occasional/extra = 1 0 0
  (1) pair sw, perpetual
      attributes: full, newton on
      pair build: full/bin/atomonly
      stencil: full/bin/3d
      bin: standard
Per MPI rank memory allocation (min/avg/max) = 4.218 | 4.221 | 4.224 Mbytes
Step Temp E_pair E_mol TotEng Press 
       0            0    7705170.9            0    7705170.9    5820553.1 
     598            0   -42654.189            0   -42654.189   -4026.6343 
Loop time of 1.44689 on 12 procs for 598 steps with 4169 atoms

99.5% CPU use with 12 MPI tasks x no OpenMP threads

Minimization stats:
  Stopping criterion = max force evaluations
  Energy initial, next-to-last, final = 
         7705170.90324     -42654.1214273      -42654.189472
  Force two-norm initial, final = 2.01924e+08 1.82325
  Force max component initial, final = 1.09491e+08 0.464691
  Final line search alpha, max atom move = 0.185696 0.0862913
  Iterations, force evaluations = 598 1000

MPI task timing breakdown:
Section |  min time  |  avg time  |  max time  |%varavg| %total
---------------------------------------------------------------
Pair    | 1.1156     | 1.2436     | 1.3852     |   7.8 | 85.95
Neigh   | 0.0092633  | 0.0095871  | 0.0099699  |   0.3 |  0.66
Comm    | 0.030045   | 0.17208    | 0.30041    |  21.0 | 11.89
Output  | 0          | 0          | 0          |   0.0 |  0.00
Modify  | 0          | 0          | 0          |   0.0 |  0.00
Other   |            | 0.02163    |            |       |  1.49

Nlocal:    347.417 ave 362 max 331 min
Histogram: 1 1 0 2 1 1 3 0 2 1
Nghost:    949.417 ave 986 max 903 min
Histogram: 1 0 1 1 1 1 3 3 0 1
Neighs:    0 ave 0 max 0 min
Histogram: 12 0 0 0 0 0 0 0 0 0
FullNghs:  10262.8 ave 11055 max 9502 min
Histogram: 3 0 1 0 1 1 3 1 1 1

Total # of neighbors = 123154
Ave neighs/atom = 29.5404
Neighbor list builds = 17
Dangerous builds = 0

# Add velocity/set timestep
#
velocity            all create ${TEMP} 120598 rot yes dist gaussian
velocity            all create 298 120598 rot yes dist gaussian
timestep            5.0

# Define output
#
compute	            1 all msd
thermo	            50
thermo_style        custom step temp press vol etotal ke pe c_1[4] density

# Neighbor lists
#
neigh_modify        delay 0 every 1 check yes

# Set fixes
#
fix                 1 all momentum 10 linear 1 1 1 rescale
fix                 2 all nve
fix                 3 all temp/csvr ${TEMP} ${TEMP} 500.0 928347
fix                 3 all temp/csvr 298 ${TEMP} 500.0 928347
fix                 3 all temp/csvr 298 298 500.0 928347
fix                 4 all press/berendsen iso ${PRES} ${PRES} 1000.0 modulus 20000
fix                 4 all press/berendsen iso 1 ${PRES} 1000.0 modulus 20000
fix                 4 all press/berendsen iso 1 1 1000.0 modulus 20000

# Run 1 ns equilibration
#
dump                1 all custom 1000 eq.${NAME}.dump id type x y z vx vy vz
dump                1 all custom 1000 eq.liquid_298K_1atm_ML.dump id type x y z vx vy vz
run                 200000
Per MPI rank memory allocation (min/avg/max) = 3.468 | 3.471 | 3.474 Mbytes
Step Temp Press Volume TotEng KinEng PotEng c_1[4] Density 
     598          298    -2672.689       125000   -38951.833    3702.3569   -42654.189 3.9375579e-33   0.99771203 
     600    275.89268   -2124.7217    124851.98   -38954.968    3427.6951   -42382.663 0.0041473166   0.99889488 
     650    178.60368   -992.28979    123503.32    -38117.55     2218.975   -40336.525   0.33093811    1.0098028 
     700    209.34738   -485.08694    122491.62   -37436.496    2600.9353   -40037.431   0.76122245    1.0181432 
     750    226.03632   -588.31118    121796.93     -36997.2    2808.2789   -39805.479    1.2580543    1.0239503 
     800     239.3229   -248.11791    121350.44   -36605.223    2973.3516   -39578.575    1.7891402    1.0277177 
     850       252.09   -355.20831    120983.23   -36328.917    3131.9703   -39460.888    2.3717503    1.0308371 
     900    262.53943   -470.23623    120869.54   -36048.011    3261.7942   -39309.805     3.025946    1.0318067 
     950     272.5029    346.54057    120514.56   -35827.593    3385.5804   -39213.174    3.7595036     1.034846 
    1000    272.90938    99.728702     120712.1   -35706.389    3390.6306   -39097.019    4.4661979    1.0331525 
    1050    277.04517  -0.67342706    120918.98   -35531.038    3442.0137   -38973.051    5.1960727    1.0313849 
    1100    278.59329    25.237815    120806.07   -35447.768    3461.2475   -38909.016    5.9410317    1.0323488 
    1150    278.24494   -93.275054       120799   -35484.563    3456.9197   -38941.482    6.7164119    1.0324092 
    1200    280.06583   -14.792321    120957.03     -35446.4    3479.5424   -38925.943    7.5060505    1.0310604 
    1250    280.99465   -133.18263     121187.3   -35334.916    3491.0821   -38825.998    8.1212219    1.0291013 
    1300    286.74718   -2.9472649    121299.12   -35277.531    3562.5516   -38840.082    8.8790934    1.0281526 
    1350     285.4355   -129.21372    121347.51   -35262.365    3546.2554    -38808.62    9.7191071    1.0277426 
    1400    285.47717   -91.205583    121174.35   -35266.301    3546.7731   -38813.074    10.498051    1.0292113 
    1450    288.69454   -35.814915    121146.86   -35194.856    3586.7457   -38781.602    11.177481    1.0294448 
    1500    291.80785    290.25997    121414.15   -35102.707    3625.4254   -38728.133    11.907807    1.0271785 
    1550    289.74189    144.49454    121552.46   -34999.999     3599.758   -38599.757    12.673955    1.0260097 
    1600    291.96753     18.34695    121869.76    -34948.26    3627.4093   -38575.669    13.506716    1.0233384 
    1650     299.7686    -163.1823    121820.63   -34900.658      3724.33   -38624.988     14.38982    1.0237511 
    1700    295.18996    104.29263    122104.06    -34953.65    3667.4448   -38621.095    15.255349    1.0213748 
    1750    290.47357   -76.958726     122104.5   -35008.036    3608.8484   -38616.885    16.158306     1.021371 
    1800    289.71282    59.567392    122270.27   -35015.095    3599.3968   -38614.492      17.0765    1.0199863 
    1850    292.48164     32.60656    122180.85   -34991.669    3633.7967   -38625.466    17.907938    1.0207328 
    1900    297.41663    117.33923    122222.66   -34928.584     3695.109   -38623.693    18.774216    1.0203836 
    1950    294.12048    -142.1514    122456.59   -34932.966    3654.1577   -38587.123    19.713753    1.0184344 
    2000    297.66177    113.66388    122332.34     -34783.4    3698.1547   -38481.555    20.635639    1.0194688 
    2050    296.02833    73.279814    122505.96   -34738.613    3677.8608   -38416.473    21.541208     1.018024 
    2100    300.39786    -350.2129    122380.88   -34771.417    3732.1479   -38503.565    22.401805    1.0190644 
    2150    303.80207    194.34734    122539.81   -34759.506    3774.4419   -38533.948    23.424397    1.0177428 
    2200    300.47514     529.9179    122975.96   -34772.229     3733.108   -38505.337    24.300543    1.0141332 
    2250    298.72584   -82.369897    123288.29   -34765.695    3711.3747    -38477.07    25.244396     1.011564 
    2300    298.95037    184.28857    123404.35   -34778.991    3714.1643   -38493.155    26.148708    1.0106127 
    2350    299.41393    129.34653    123493.92   -34750.067    3719.9235   -38469.991    26.964871    1.0098797 
    2400    297.19562   -96.629068    123420.41   -34788.758    3692.3632   -38481.121    27.930497    1.0104812 
    2450     304.1503    203.34056    123606.41     -34695.9    3778.7682   -38474.668    28.810256    1.0089606 
    2500    303.55488     245.1733    123774.55       -34630    3771.3708    -38401.37    29.744196      1.00759 
    2550    303.82542   -344.56045    123608.87   -34624.841     3774.732   -38399.573    30.610753    1.0089406 
    2600    304.69528     40.71197    123701.36   -34598.773    3785.5391   -38384.312    31.573465    1.0081862 
    2650    297.06699   -139.53534    123837.86   -34617.266    3690.7651   -38308.031    32.438822    1.0070749 
    2700    296.64958    317.34646    123774.11     -34585.9    3685.5792   -38271.479    33.354681    1.0075936 
    2750    299.28961   -42.654763     123757.8   -34599.084     3718.379   -38317.463    34.242004    1.0077264 
    2800    296.51243    133.57561    123919.59   -34583.435    3683.8753   -38267.311    35.121012    1.0064107 
    2850    304.14759   -242.28409    123692.83   -34634.632    3778.7346   -38413.366    35.759606    1.0082557 
    2900    298.70777   -100.43428    123882.92   -34682.313    3711.1502   -38393.463    36.579973    1.0067086 
    2950    302.68605   -214.96154     123821.2    -34711.29    3760.5765   -38471.866    37.350049    1.0072104 
    3000    306.96997    4.0007504    123670.25   -34684.364    3813.7999   -38498.164    38.257409    1.0084398 
    3050    301.87321    -442.0761    123730.49   -34642.783    3750.4777    -38393.26    39.172512    1.0079488 
    3100    300.02021    209.57181    123599.03    -34668.01     3727.456   -38395.466      40.2189    1.0090209 
    3150    298.66316     -71.7161    123679.07   -34708.871    3710.5959   -38419.467     41.32777    1.0083679 
    3200    296.84926    167.40191    123857.19   -34736.841    3688.0601   -38424.901    42.380181    1.0069178 
    3250    301.81046   -342.85108    123793.55   -34737.373     3749.698   -38487.071    43.432117    1.0074354 
    3300     300.7058   -176.93899    123646.73   -34709.084    3735.9737   -38445.057    44.295513    1.0086317 
    3350    302.25056   -173.90274     123357.7   -34752.781    3755.1659   -38507.947      45.0895    1.0109948 
    3400    301.95453   -69.592454    123435.79   -34729.565     3751.488   -38481.053     46.16184    1.0103553 
    3450    293.30167   -176.88366    123526.06   -34827.945    3643.9848   -38471.929    47.128083    1.0096169 
    3500    295.45392   -239.38687    123334.65    -34811.69    3670.7243   -38482.414    47.919349    1.0111838 
    3550    304.65526   -218.06477    123147.61   -34817.942    3785.0419   -38602.983    48.613943    1.0127197 
    3600    294.65197    46.755114    123113.01   -34869.638    3660.7609   -38530.399    49.521908    1.0130042 
    3650    289.30373     147.1537    123114.11   -34895.161    3594.3143   -38489.475    50.583649    1.0129952 
    3700    297.40891   -387.98421    123104.86   -34871.498    3695.0131   -38566.511    51.631533    1.0130713 
    3750    294.24646   -120.33972    123365.44   -34850.099    3655.7229   -38505.821    52.589392    1.0109315 
    3800    292.97078   -567.12241    123294.25   -34865.337    3639.8737    -38505.21    53.271682    1.0115152 
    3850    302.07338   -178.51548    123089.94   -34868.794    3752.9646   -38621.759    54.295578    1.0131942 
    3900    297.08029   -498.54045    122797.62   -34846.814    3690.9304   -38537.745     55.11698     1.015606 
    3950    298.15456    284.29002    122691.82   -34867.314    3704.2772   -38571.591    55.899675    1.0164818 
    4000    293.37578   -110.52897    122487.98   -34854.653    3644.9054   -38499.558    56.664318    1.0181734 
    4050     295.5069    141.54939    122612.71   -34862.425    3671.3825   -38533.808    57.309613    1.0171377 
    4100    292.45537     481.6345    122960.21   -34808.685    3633.4703   -38442.155    57.953085    1.0142631 
    4150    296.61903    56.483544    122846.88   -34835.267    3685.1997   -38520.467    58.470346    1.0151988 
    4200    293.98927    146.55101     122658.2   -34798.173    3652.5275   -38450.701    58.918431    1.0167604 
    4250    291.37378    68.652823    122900.94   -34837.714    3620.0326   -38457.747    59.875632    1.0147522 
    4300     299.2042   -192.01911    122910.07   -34806.164    3717.3179   -38523.482    60.739718    1.0146769 
    4350    300.53253    41.247737    122645.99   -34867.331    3733.8211   -38601.152    61.545111    1.0168617 
    4400    292.45981    201.39135    122791.65   -34837.718    3633.5254   -38471.243    62.458249    1.0156554 
    4450    301.45819    229.11487    122955.66   -34789.177    3745.3214   -38534.499    63.353396    1.0143007 
    4500    291.88793    147.31173    122957.81   -34857.217    3626.4204   -38483.637    64.076444    1.0142829 
    4550    294.19194   -322.44942    123000.62   -34878.818    3655.0454   -38533.864    64.728698    1.0139299 
    4600    302.62753    271.45614    123142.59   -34900.742    3759.8493   -38660.592    65.621284    1.0127609 
    4650    297.02519    227.40733    123362.76   -34861.042    3690.2458   -38551.288    66.321415    1.0109535 
    4700    291.47894    69.793292     123601.1   -34798.097    3621.3391   -38419.436    66.935398     1.009004 
    4750    294.26222    182.58065    123686.81   -34832.023    3655.9186   -38487.941    67.524995    1.0083048 
    4800    298.06097    126.24259    123709.59   -34747.102    3703.1144   -38450.217    68.240284    1.0081191 
    4850    305.69196    -71.01105    123797.34   -34656.235    3797.9219   -38454.157    69.227862    1.0074045 
    4900    306.80539    293.55792    123756.51   -34610.855    3811.7551    -38422.61    70.074895    1.0077369 
    4950    301.67079    4.7262624    124129.82    -34580.61    3747.9628   -38328.573    71.167827    1.0047062 
    5000    299.94671   -38.240897    124343.63    -34607.05    3726.5428   -38333.593    71.861434    1.0029786 
    5050    299.49015   -143.92339    124378.97   -34663.646    3720.8705   -38384.517    72.791123    1.0026937 
    5100    300.24806    30.157855    124217.05   -34686.538    3730.2868   -38416.824    73.736697    1.0040007 
    5150    298.10943   -122.89362    124012.49   -34763.156    3703.7164   -38466.872    74.447366    1.0056568 
    5200    296.09321     156.6695     123976.7   -34736.163    3678.6669    -38414.83    75.272457    1.0059471 
    5250    302.96599    100.30873    124043.55   -34666.325    3764.0545    -38430.38    76.097079     1.005405 
    5300    295.63833   -397.36823    123899.35   -34776.298    3673.0154   -38449.313    76.735242    1.0065751 
    5350    302.54475    98.184203    123765.82   -34708.836    3758.8209   -38467.657    77.498832    1.0076611 
    5400    298.35762    265.04361    123792.34   -34712.149       3706.8   -38418.949    78.349047    1.0074452 
    5450    296.21956    139.91909    124037.17   -34723.187    3680.2367   -38403.423    78.983358    1.0054567 
    5500    297.21951    146.30267    124294.71   -34723.678    3692.6601   -38416.338    79.820653    1.0033734 
    5550    296.62584    -177.1491    124395.41   -34740.588    3685.2843   -38425.872    80.759575    1.0025611 
    5600    296.34157   -242.79063    124222.15   -34769.146    3681.7525   -38450.898      81.4772    1.0039595 
    5650    293.53838     254.2347    124231.09   -34747.267    3646.9256   -38394.193    82.275774    1.0038872 
    5700    296.42959   -71.317997     124011.3   -34798.031     3682.846   -38480.877     82.92542    1.0056665 
    5750    299.11314   -259.38804    123957.03   -34727.024    3716.1865   -38443.211    83.754225    1.0061068 
    5800    297.11203   -12.555612    123888.41   -34749.551    3691.3247   -38440.876    84.441091     1.006664 
    5850     297.0349   -100.35877    123948.17   -34810.919    3690.3665   -38501.285    85.124662    1.0061787 
    5900    292.01088    373.03197    124037.58    -34830.73    3627.9479   -38458.678    85.940695    1.0054534 
    5950    290.41549   -179.71261    123993.84    -34840.84    3608.1268   -38448.967    86.620232     1.005808 
    6000    299.35361    222.24746    123875.66    -34771.83    3719.1741   -38491.004    86.956815    1.0067676 
    6050    295.82743   -138.03803    124223.86   -34763.798    3675.3648   -38439.163     87.71821    1.0039457 
    6100    294.89057    -16.44345    124405.92   -34804.999    3663.7252   -38468.725    88.493553    1.0024764 
    6150    294.44102    302.82711    124347.95   -34803.247    3658.1401   -38461.387    89.474908    1.0029438 
    6200    291.85714   -44.821783    124385.63   -34823.774    3626.0379   -38449.812     90.52709      1.00264 
    6250    293.93117   -57.533197    124296.11   -34779.032    3651.8056   -38430.838     91.36118    1.0033621 
    6300    297.18565   -392.33346    124226.05   -34752.975    3692.2394   -38445.215    92.117773    1.0039279 
    6350    298.73434    49.406441    123911.42   -34750.489    3711.4803   -38461.969    92.928604     1.006477 
    6400    301.75734    131.64947    123982.62   -34672.187     3749.038   -38421.225    93.905165    1.0058991 
    6450     295.8579    32.635342    124166.45   -34663.206    3675.7433   -38338.949    95.295404    1.0044098 
    6500    294.96468    274.70708    124271.76    -34660.12     3664.646   -38324.766    96.257713    1.0035586 
    6550    300.48737   -163.84607    124125.73   -34696.252      3733.26   -38429.512    97.257162    1.0047393 
    6600    287.39387    30.127197    124261.39   -34804.956    3570.5861   -38375.542    98.285317    1.0036424 
    6650    297.47093   -216.98855    123893.97   -34768.948    3695.7837   -38464.732    98.810349    1.0066188 
    6700    291.66228    549.60791    124153.12   -34780.629    3623.6169   -38404.246    100.08527    1.0045177 
    6750    299.64056   -423.07206    123776.23   -34687.608    3722.7392   -38410.347    100.81026    1.0075763 
    6800    301.42385   -47.171063    123800.59   -34722.107    3744.8948   -38467.002    101.62483    1.0073781 
    6850    300.31532   -73.423765    123747.76   -34687.179    3731.1225   -38418.301    102.64358    1.0078082 
    6900    295.16033    -109.3098    123928.77    -34633.95    3667.0768   -38301.026    103.45821    1.0063361 
    6950    299.20948     2.687878    123882.49   -34644.163    3717.3834   -38361.547    104.38046    1.0067121 
    7000    303.51873    65.986252    123987.89   -34636.493    3770.9217   -38407.415    105.46427    1.0058563 
    7050    292.82142    82.081129    124051.58    -34690.83    3638.0182   -38328.849    106.46451    1.0053399 
    7100    299.90372   -51.515578    124064.28   -34688.728    3726.0087   -38414.736    107.26046     1.005237 
    7150    293.48237   -259.13103    123991.35   -34694.771    3646.2298   -38341.001    108.24271    1.0058282 
    7200    294.80623   -338.76439    124086.67   -34768.601    3662.6774   -38431.278    109.21987    1.0050556 
    7250    293.03514   -113.42083    123788.18   -34808.201    3640.6734   -38448.875    110.00345    1.0074791 
    7300    294.45384   -113.29139    123759.38   -34857.228    3658.2993   -38515.527    110.79509    1.0077135 
    7350    293.12526    -121.1176    123760.66   -34843.864     3641.793   -38485.657    111.49133    1.0077031 
    7400    295.95904    123.01077    123571.61    -34821.71    3676.9999    -38498.71    112.23388    1.0092448 
    7450    291.80853    542.84119    123821.84   -34849.975    3625.4339   -38475.409    112.93401    1.0072052 
    7500    294.19099    616.06842    124027.19   -34886.583    3655.0336   -38541.616    113.48947    1.0055376 
    7550    294.23754   -451.04877    124022.97   -34919.992     3655.612   -38575.604    114.06869    1.0055718 
    7600    289.77525     335.1788    124064.25   -34914.623    3600.1725   -38514.796    114.72923    1.0052373 
    7650      289.226   -181.96678    124047.16   -34835.897    3593.3485   -38429.246    115.61977    1.0053757 
    7700    302.66825   -118.66172    123838.96   -34739.161    3760.3552   -38499.516    116.58599    1.0070659 
    7750    294.46484     355.4951    123882.56   -34778.968     3658.436   -38437.404    117.63994    1.0067116 
    7800    296.04763    136.06712    123974.35   -34746.357    3678.1006   -38424.458    118.66622    1.0059662 
    7850    299.14973   -431.08845    123767.17   -34830.475    3716.6411   -38547.116    119.07876    1.0076501 
    7900    297.24027    36.824457    123705.75   -34864.553     3692.918   -38557.471    119.42025    1.0081504 
    7950    294.71559    11.853529     123806.2   -34850.924    3661.5513   -38512.476     120.2386    1.0073325 
    8000    290.19323    131.94855    123748.61   -34872.933    3605.3654   -38478.299    121.30731    1.0078013 
    8050    291.97528   -328.41669    123468.65   -34906.007    3627.5056   -38533.513     121.6221    1.0100864 
    8100    289.20853   -192.35646    123250.26   -34905.484    3593.1315   -38498.615    122.19285    1.0118762 
    8150    292.75265    179.68557    123058.13   -34926.103    3637.1637   -38563.267    122.42752     1.013456 
    8200    290.18123    300.85022    123357.64   -34923.849    3605.2163   -38529.065    123.22902    1.0109954 
    8250    290.13166   -262.23172     123284.5   -34907.583    3604.6004   -38512.183    123.81526    1.0115952 
    8300    288.74586    135.60368     123353.6   -34843.534    3587.3833   -38430.917    124.85482    1.0110285 
    8350    295.73957    48.575905    123385.17   -34824.945    3674.2733   -38499.219    125.78773    1.0107698 
    8400    295.49713    339.84138    123498.93   -34748.255    3671.2611   -38419.516    126.71694    1.0098387 
    8450    303.63332    -171.4288    123520.53   -34743.729    3772.3453   -38516.075    127.95658    1.0096621 
    8500    301.23395   -240.96038    123372.95   -34717.564    3742.5354   -38460.099    129.38074    1.0108699 
    8550      301.707    34.198351    123344.08   -34765.444    3748.4126   -38513.856    130.35015    1.0111065 
    8600    299.15796    151.79285     123350.1   -34733.339    3716.7433   -38450.082    131.26522    1.0110571 
    8650     300.8366    101.52008    123622.84   -34729.193    3737.5988   -38466.792    132.35342    1.0088266 
    8700    292.80437   -121.81029    123557.62    -34793.05    3637.8063   -38430.856    133.29285     1.009359 
    8750    302.96971    308.27349    123461.18   -34777.629    3764.1006   -38541.729    133.92118    1.0101475 
    8800    292.51928     23.77868    123541.86    -34868.92    3634.2643   -38503.184    134.88987    1.0094878 
    8850    296.34341    96.855486    123650.12    -34868.35    3681.7753   -38550.125    135.86316     1.008604 
    8900    292.98027   -115.32626    123706.39   -34847.042    3639.9916   -38487.034     136.8255    1.0081452 
    8950     292.2617    154.89923    123524.36   -34842.423    3631.0641   -38473.487    137.96111    1.0096308 
    9000    294.57748   -210.92238    123593.64   -34824.168    3659.8354   -38484.003    138.98296    1.0090649 
    9050    287.90884    -180.6107    123412.18   -34920.567    3576.9841   -38497.551    140.00968    1.0105486 
    9100    295.93548   -675.61218    122976.05   -34913.013    3676.7072    -38589.72    140.67633    1.0141325 
    9150    291.42783    306.30211    123046.33   -34806.334    3620.7042   -38427.038    141.86873    1.0135532 
    9200    297.41732    196.28247    123088.19   -34769.255    3695.1176   -38464.373    142.97487    1.0132086 
    9250    295.44887    261.64965    123435.27   -34796.556    3670.6616   -38467.217    144.61062    1.0103595 
    9300    291.70809   -26.286133    123707.55   -34837.334    3624.1861    -38461.52    145.76484    1.0081357 
    9350    296.02547    46.436719     123603.5   -34785.494    3677.8252   -38463.319    146.85222    1.0089844 
    9400     293.3845    96.935795    123685.94   -34719.359    3645.0138   -38364.373    147.72245    1.0083119 
    9450    296.68342   -104.62747    123488.03   -34733.017    3685.9996   -38419.016    148.40982    1.0099279 
    9500    296.22358   -43.444783    123697.86   -34766.035    3680.2866   -38446.322    149.76202    1.0082147 
    9550     300.3495   -260.04927    123892.86   -34741.906    3731.5471   -38473.453    151.26982    1.0066279 
    9600    301.92655   0.82572896    124064.87   -34673.135    3751.1403   -38424.275    152.46042    1.0052322 
    9650    298.67645    51.316335    124139.37   -34679.044    3710.7611   -38389.805    153.64095     1.004629 
    9700    299.55639    319.46305     124316.6   -34673.746    3721.6935   -38395.439    154.94198    1.0031967 
    9750    296.61351   -114.03607    124210.64   -34702.474    3685.1311   -38387.606    155.64489    1.0040525 
    9800    298.69806    -46.56925    124042.87   -34739.474    3711.0296   -38450.503    156.51585    1.0054105 
    9850    296.78532   -99.480509    124042.07   -34752.568    3687.2657   -38439.833    157.53091     1.005417 
    9900    292.79718    192.50087     124027.9   -34795.562     3637.717   -38433.279     158.1111    1.0055319 
    9950    294.27144   -198.02664    123967.56   -34819.564    3656.0332   -38475.597      158.907    1.0060213 
   10000    292.71522   -489.89393    123789.88   -34861.646    3636.6987   -38498.345    159.35979    1.0074653 
   10050    296.71329    194.24564     123470.5   -34828.637    3686.3708   -38515.008    160.00691    1.0100713 
   10100     297.1442   -304.51528    123593.48   -34804.022    3691.7244   -38495.746     161.1444    1.0090662 
   10150    290.73753    -66.75646    123526.55   -34868.939    3612.1278   -38481.066    161.79306    1.0096129 
   10200    292.52962    11.658441    123494.84   -34899.531    3634.3927   -38533.924     162.6563    1.0098722 
   10250    292.34856   -132.07446    123299.37   -34939.968    3632.1432   -38572.111    163.38044    1.0114732 
   10300    293.80741    27.747055    123480.67   -34842.028    3650.2681   -38492.296    164.78901    1.0099881 
   10350    295.32471    -82.12292    123354.23   -34858.695     3669.119   -38527.814    165.45115    1.0110233 
   10400     294.9279    -360.6039    123364.22   -34828.904     3664.189   -38493.093    166.27861    1.0109415 
   10450    299.86599    4.9733541    123192.83   -34807.388      3725.54   -38532.928    166.54321    1.0123479 
   10500    292.78143    423.77824    123454.26   -34784.659    3637.5212    -38422.18     167.5819    1.0102041 
   10550    297.38528    107.17735    123543.08   -34710.178    3694.7196   -38404.898    168.65403    1.0094778 
   10600    303.20848   -146.45217    123562.98   -34628.611    3767.0671   -38395.678    169.54125    1.0093153 
   10650    299.77669    130.06475    123456.82   -34655.736    3724.4305   -38380.167    170.42185    1.0101832 
   10700    298.04332    139.09619    123523.08   -34670.088     3702.895   -38372.983    171.38298    1.0096413 
   10750    296.48033    102.26817    123509.73   -34695.646    3683.4764   -38379.122    172.01656    1.0097504 
   10800    295.29022   -36.283975    123744.44   -34664.011    3668.6905   -38332.701    173.22232    1.0078352 
   10850     301.3986     188.8181    123580.66   -34673.125    3744.5811   -38417.706    173.80422    1.0091709 
   10900    303.42223    131.41882       123607   -34626.288    3769.7227   -38396.011    174.33506    1.0089558 
   10950    296.71893    336.07636    123824.78   -34699.171    3686.4408   -38385.612    175.11756    1.0071813 
   11000    293.70122   -192.60359    123636.15   -34677.305    3648.9488   -38326.253    175.85339    1.0087179 
   11050    297.50143    164.88588    123590.04   -34692.071    3696.1626   -38388.234     176.6217    1.0090943 
   11100    303.78195    239.09461    123726.79   -34714.807    3774.1918   -38488.998    177.00995     1.007979 
   11150    300.20936   -284.99085    123670.49    -34727.72    3729.8059   -38457.526    177.44339    1.0084379 
   11200    302.09046   -17.570816    123678.06   -34661.833    3753.1768    -38415.01    178.31045    1.0083761 
   11250    297.91927   -36.274874    123400.93    -34734.31    3701.3539   -38435.664     178.9299    1.0106407 
   11300    295.91293    46.457302    123405.22   -34733.111    3676.4271   -38409.538    179.63132    1.0106056 
   11350    296.40756    294.03973    123672.71   -34755.697    3682.5724   -38438.269    180.79139    1.0084198 
   11400    300.91613   -356.37109     123880.4   -34716.141    3738.5869   -38454.728     181.8887    1.0067291 
   11450    296.60625   -261.11422    124047.16   -34767.976    3685.0409   -38453.017    183.18648    1.0053757 
   11500    298.94105    225.27982    124037.58    -34765.38    3714.0485   -38479.429    184.15071    1.0054534 
   11550    297.40948    243.19952    124180.63    -34731.13    3695.0202    -38426.15    185.39492    1.0042952 
   11600    296.61192   -71.514063    124241.44   -34707.547    3685.1114   -38392.658    186.50696    1.0038036 
   11650    299.61423    -323.2865    124072.19   -34671.405    3722.4121   -38393.818    187.31593    1.0051729 
   11700    298.47436    112.20577    123751.98   -34634.501    3708.2503   -38342.751    187.91358    1.0077738 
   11750    301.81867    132.87507    124035.53   -34706.247       3749.8   -38456.047    189.65198      1.00547 
   11800    294.60031    -250.7358    123988.68    -34729.65    3660.1191   -38389.769    190.37018    1.0058499 
   11850    300.01606   -27.655644    124082.93   -34699.044    3727.4044   -38426.448    191.23353    1.0050859 
   11900     296.9934     6.542754    123935.28   -34796.453    3689.8508   -38486.303    192.02765    1.0062833 
   11950    300.49377   -317.71269    123910.48   -34757.788    3733.3395   -38491.128    192.98836    1.0064847 
   12000    299.32463    30.411478    123752.03   -34762.601    3718.8141   -38481.415    193.77733    1.0077734 
   12050    303.68343     72.33388    123702.98   -34705.012    3772.9679    -38477.98    194.33331     1.008173 
   12100    303.55577   -104.50371    123568.08   -34639.011    3771.3818   -38410.393    194.45652    1.0092736 
   12150     297.3592    379.67705    123856.11   -34660.733    3694.3955   -38355.128    195.38054    1.0069265 
   12200    300.20296     93.55895    123911.89   -34705.541    3729.7265   -38435.268    196.60535    1.0064732 
   12250    305.35873   -371.92795    123763.29   -34720.232    3793.7818   -38514.014    197.05484    1.0076817 
   12300    296.88139     248.8247     123571.7   -34703.296    3688.4592   -38391.755    197.73413    1.0092441 
   12350    299.86039   -305.10851    123901.34   -34723.269    3725.4704    -38448.74    198.73963     1.006559 
   12400    298.31727    323.01223    123960.14   -34706.693    3706.2986   -38412.991    199.76236    1.0060815 
   12450    299.67086   -91.545102    123814.22   -34827.506    3723.1157   -38550.622    200.14626    1.0072672 
   12500     293.7123   -73.585377    123688.75   -34785.676    3649.0864   -38434.762    201.10232     1.008289 
   12550     300.3038   -241.60481    123750.59   -34727.602    3730.9793   -38458.581    202.22095    1.0077851 
   12600    298.75571   -46.244127    123977.99    -34637.57    3711.7458   -38349.316    203.23168    1.0059367 
   12650    305.00889   -220.85789    123845.72    -34686.37    3789.4355   -38475.806    203.53736     1.007011 
   12700    302.77863    44.897699    123839.79   -34610.816    3761.7266   -38372.543     204.4672    1.0070592 
   12750    300.50267    239.49057    123766.99    -34651.03      3733.45    -38384.48    205.09841    1.0076516 
   12800    298.16094    189.91197    123782.43   -34680.623    3704.3563   -38384.979    206.09225    1.0075259 
   12850    299.82145    112.79187    123687.32   -34712.875    3724.9865   -38437.861    206.95973    1.0083006 
   12900    295.30377   -151.40611    123352.96   -34769.564    3668.8588   -38438.423    207.20971    1.0110337 
   12950    301.54092    45.539053    123312.98   -34682.057    3746.3493   -38428.406    207.74633    1.0113615 
   13000    300.55458     83.32286    123601.38   -34613.868     3734.095   -38347.963    208.46106    1.0090017 
   13050    305.39593     33.94822    123534.09   -34650.223     3794.244   -38444.467    209.64331    1.0095513 
   13100    304.96981    99.055817     123566.9   -34599.742    3788.9499   -38388.692    210.48597    1.0092833 
   13150    305.73654    153.59646    123658.29   -34574.001    3798.4758   -38372.477    211.27386    1.0085373 
   13200    301.46382    7.5793406    123732.41   -34567.268    3745.3914   -38312.659    212.30339    1.0079332 
   13250     302.0623   -9.6043942    123841.31   -34579.931     3752.827   -38332.758    213.38028    1.0070468 
   13300     301.6509   -122.67723    123968.47   -34605.584    3747.7157     -38353.3     214.2689    1.0060139 
   13350     292.6202   -487.71067    124058.95   -34721.987    3635.5182   -38357.505     215.3379    1.0052802 
   13400    299.57388   -64.893794    123966.52   -34710.867    3721.9107   -38432.777     216.1402    1.0060298 
   13450    289.28253    106.99775    124165.21   -34765.048    3594.0508   -38359.099    217.37645    1.0044199 
   13500    296.45657   -492.86257    124140.09   -34725.975    3683.1812   -38409.156    217.62209    1.0046231 
   13550    296.54244    112.33959    124201.52   -34763.628    3684.2481   -38447.876    218.69409    1.0041263 
   13600    295.19471   -564.92916    123847.87   -34774.488    3667.5038   -38441.992    219.05385    1.0069935 
   13650    300.95274    58.016598    123685.53   -34725.354    3739.0418   -38464.396     219.5639    1.0083152 
   13700    293.27439    287.27529    123919.95   -34726.133    3643.6458   -38369.778    220.50199    1.0064078 
   13750    302.60392    5.3742935     123815.4   -34723.538    3759.5561   -38483.094    221.52197    1.0072576 
   13800    295.51507    205.50919    124107.21   -34704.836    3671.4841    -38376.32    223.35489    1.0048892 
   13850    292.70602    -182.8377    124251.98   -34731.723    3636.5844   -38368.308    225.03899    1.0037184 
   13900    296.74841    2.8991394    124096.64    -34682.23    3686.8071   -38369.037    225.89697    1.0049749 
   13950    297.14148     268.1979    124052.74   -34683.047    3691.6906   -38374.738    226.73483    1.0053305 
   14000    299.18374   -59.338127    124196.07   -34637.564    3717.0636   -38354.627    228.18351    1.0041703 
   14050    303.06698    107.07556    123984.59   -34657.907    3765.3091   -38423.216    229.11154    1.0058831 
   14100      299.179   -161.52482    123830.64   -34723.362    3717.0048   -38440.367      229.756    1.0071336 
   14150    297.49158    17.560685    123748.39   -34745.951    3696.0402   -38441.992    230.51282     1.007803 
   14200    299.52784    -109.8385    123750.51   -34724.123    3721.3387   -38445.461    231.68147    1.0077857 
   14250    291.42754     119.1243    124028.38   -34796.983    3620.7005   -38417.684    233.08827    1.0055279 
   14300     295.6091   -279.73315    123715.62   -34849.097    3672.6523    -38521.75    233.86975    1.0080699 
   14350    297.91402    308.67541    123684.79   -34767.516    3701.2886   -38468.805    234.49777    1.0083213 
   14400    297.73435   -124.24604    123563.17   -34809.717    3699.0564   -38508.774    234.79945    1.0093137 
   14450    298.22822    102.75393     123316.1   -34745.284    3705.1923   -38450.477    235.27607    1.0113359 
   14500    293.92606    -70.27231    123503.22   -34798.714    3651.7421   -38450.456    236.77474    1.0098036 
   14550    300.17798   -127.99542    123434.64   -34751.548    3729.4161   -38480.964    237.73453    1.0103647 
   14600    295.36359   -68.178695    123757.13   -34735.671     3669.602   -38405.273    238.68526    1.0077319 
   14650    295.24231   -123.59781    123846.16   -34770.693    3668.0953   -38438.789    239.83036    1.0070074 
   14700    293.68718   -216.23268       123706   -34800.471    3648.7744   -38449.245    240.49753    1.0081483 
   14750    295.91008   -427.26951    123564.74   -34820.914    3676.3917   -38497.306    241.54122    1.0093009 
   14800    294.73111   -93.814857    123343.19   -34904.913    3661.7441   -38566.657    241.89978    1.0111138 
   14850    292.49448    75.523419    123132.46   -34932.098    3633.9561   -38566.054    242.53759    1.0128442 
   14900    294.01841   -319.89117       122784   -34885.086    3652.8895   -38537.976    242.40116    1.0157187 
   14950      294.961    217.19831    122873.08   -34918.515    3664.6002   -38583.115    243.19598    1.0149823 
   15000    289.35066   -120.79792     122923.1   -34939.747    3594.8974   -38534.644    244.40834    1.0145693 
   15050    292.48695    39.896447    122693.45   -34971.915    3633.8627   -38605.778    245.38604    1.0164683 
   15100     289.0247    130.14773    122740.85   -34928.662    3590.8476   -38519.509    246.06377    1.0160757 
   15150    290.91225    58.272096    122909.07   -34891.948    3614.2985   -38506.247    247.11673    1.0146851 
   15200    292.64169    259.48643     123010.9   -34891.889    3635.7851   -38527.675    248.30851    1.0138451 
   15250    292.07961   -271.37602    123108.71   -34878.287    3628.8018   -38507.089    249.32683    1.0130397 
   15300    296.37023    -190.7066    123185.97   -34871.782    3682.1086    -38553.89    250.21753    1.0124043 
   15350    291.51617     -33.7907    123342.35   -34851.169    3621.8016    -38472.97    251.02376    1.0111207 
   15400    294.51917    180.17066     123182.6   -34801.722     3659.111   -38460.833    251.75174     1.012432 
   15450    299.24511   -5.1417977     123360.9   -34830.381    3717.8262   -38548.207    253.27973    1.0109687 
   15500    299.28713    32.181043    123469.69   -34831.279    3718.3482   -38549.627    254.34582    1.0100779 
   15550     298.7574   -35.710313    123579.24   -34766.955    3711.7668   -38478.722    255.26872    1.0091824 
   15600    294.26702   -233.31624    123713.59   -34757.779    3655.9783   -38413.758     256.5931    1.0080865 
   15650    299.13543   -228.42645    123748.04    -34824.93    3716.4635   -38541.393     257.3292    1.0078059 
   15700    296.35393    614.33681    123831.81   -34820.473     3681.906   -38502.379    258.13089    1.0071241 
   15750    289.26641    295.85568     124010.8   -34831.291    3593.8506   -38425.141    259.07031    1.0056705 
   15800    294.81629   -312.40593    123835.46   -34872.111    3662.8023   -38534.914    259.57551    1.0070945 
   15850    296.89495   -292.77649    123711.12   -34858.745    3688.6277   -38547.373     260.3264    1.0081067 
   15900    291.68111    153.77476    123633.21   -34921.224    3623.8509   -38545.075    260.98171     1.008742 
   15950    291.84101   -59.185489    123625.84   -34850.171    3625.8375   -38476.009    261.84063    1.0088021 
   16000    296.37663   -283.14197    123790.16   -34796.969     3682.188   -38479.157    262.69561    1.0074629 
   16050    295.42228    298.77649    123936.47   -34699.735    3670.3312   -38370.067    263.96867    1.0062737 
   16100    300.21061   -19.729847    124075.15   -34768.829    3729.8215   -38498.651    264.79605    1.0051489 
   16150    292.29031   -246.21411    124095.47   -34765.402    3631.4196   -38396.822    265.25421    1.0049843 
   16200    293.99942   -112.31581    123813.28   -34810.665    3652.6536   -38463.319    265.72236    1.0072749 
   16250    295.93439    239.20052    123917.71   -34772.472    3676.6936   -38449.165    266.60884     1.006426 
   16300    292.05088   -5.7864926    123777.46   -34793.737    3628.4449   -38422.182    267.23361    1.0075664 
   16350    298.30448   -53.279922    124020.35   -34687.265    3706.1397   -38393.405    268.76511    1.0055931 
   16400    297.30104    35.003745    123855.31   -34654.398    3693.6729   -38348.071    269.75992    1.0069331 
   16450    303.28266   -91.909249    124071.11   -34652.803    3767.9887   -38420.792    270.94838    1.0051817 
   16500    296.69859    258.92114    124538.04   -34662.471    3686.1882   -38348.659    272.51138     1.001413 
   16550    304.77268    83.381732     124266.9   -34641.852    3786.5008   -38428.353    272.88761    1.0035979 
   16600    298.28971    332.89513     124437.6   -34679.312    3705.9562   -38385.268    273.38857    1.0022212 
   16650    298.05929   -585.08693    124199.06   -34635.859    3703.0935   -38338.952    273.40066    1.0041461 
   16700    297.80811    369.93787    124127.27   -34649.628    3699.9729   -38349.601    274.25265    1.0047269 
   16750    299.28179   -20.294052    124175.08   -34668.863    3718.2819   -38387.145    275.08154      1.00434 
   16800    305.87164   -144.28309    124040.18   -34611.758    3800.1542   -38411.912    275.43154    1.0054323 
   16850    305.17597    214.86316    124378.89   -34569.611    3791.5113   -38361.122    276.58146    1.0026943 
   16900    296.14291    -40.52383    124472.42   -34636.518    3679.2844   -38315.802    277.68223    1.0019408 
   16950    301.08486    257.44446    124384.24   -34622.912    3740.6832   -38363.595    278.86331    1.0026511 
   17000    298.59251   -18.227081    124403.12   -34605.117    3709.7182   -38314.835    279.65866     1.002499 
   17050    302.59203    88.622271    124538.99   -34517.321    3759.4083   -38276.729    280.80473    1.0014053 
   17100    303.24763   -359.43821    124280.73   -34489.768    3767.5536   -38257.321    281.66647    1.0034863 
   17150    305.01896    154.14974    124195.04   -34538.666    3789.5605   -38328.227    282.71002    1.0041786 
   17200    300.42592   -163.64536    124357.19   -34593.915    3732.4965   -38326.412    283.79855    1.0028693 
   17250    298.37858   -337.78968    124179.31   -34651.991    3707.0603   -38359.051    284.14056    1.0043058 
   17300    300.80532    -35.01733    124167.17   -34629.775    3737.2102   -38366.985    285.06086     1.004404 
   17350    300.73326    19.306509    124299.91   -34646.058    3736.3149   -38382.373     286.2637    1.0033314 
   17400    297.76967   -230.57709    124543.91   -34616.017    3699.4953   -38315.512    287.46566    1.0013657 
   17450    298.15865   -35.104631    124537.46   -34629.865    3704.3279   -38334.193    288.40264    1.0014176 
   17500     297.9483   -39.615205    124461.16    -34701.02    3701.7145   -38402.734    289.25707    1.0020315 
   17550    297.88946    25.416346    124361.17   -34651.425    3700.9835   -38352.409    289.92576    1.0028371 
   17600    301.19759    119.35765    124283.25   -34633.368    3742.0837   -38375.452    290.68337    1.0034659 
   17650    302.57021    56.658695    124355.88   -34651.367    3759.1373   -38410.505    291.46173    1.0028798 
   17700    300.86022   -311.09282    124229.11   -34707.779    3737.8922   -38445.671    292.56123    1.0039032 
   17750    304.49335   -186.00535    124128.67   -34638.441    3783.0303   -38421.471    293.10816    1.0047156 
   17800    298.79928    179.96272    124330.42   -34670.208    3712.2871   -38382.495      294.562    1.0030852 
   17850    295.44434   -101.87847    124223.74   -34718.909    3670.6053   -38389.514    295.81043    1.0039466 
   17900    301.86692     93.49448    124161.23   -34648.502    3750.3995   -38398.902    296.36032     1.004452 
   17950    309.20485   -134.52365    124246.08   -34607.632     3841.566   -38449.198    297.46746    1.0037661 
   18000    298.29678    86.356238     124182.6    -34615.08    3706.0441   -38321.124    297.94216    1.0042792 
   18050    293.99217    66.229592    124127.16   -34695.765    3652.5635   -38348.328    298.80961    1.0047278 
   18100     293.0006    144.50603    124113.02   -34706.287    3640.2442   -38346.532    299.69034    1.0048423 
   18150    299.85909   -152.29447    124091.29   -34686.634    3725.4543   -38412.088    300.83114    1.0050182 
   18200    298.96036   -168.79022    123949.05   -34635.996    3714.2884   -38350.285    301.44842    1.0061715 
   18250    303.86568    104.54009    123947.95   -34622.608    3775.2322    -38397.84    302.37774    1.0061805 
   18300    298.56418    -133.9844    123828.58   -34578.669    3709.3662   -38288.036    303.05249    1.0071504 
   18350    296.19482    237.73883    123450.73   -34654.216    3679.9293   -38334.145    303.67799     1.010233 
   18400    303.80836     19.63943    123234.04   -34593.515      3774.52   -38368.035    304.03402    1.0120094 
   18450    296.41333   -342.67115    123283.03   -34681.511     3682.644   -38364.155    305.60364    1.0116072 
   18500    297.71023    281.38249     123220.9   -34691.255    3698.7568   -38390.012    306.62066    1.0121173 
   18550    301.44117   -86.746754    123271.43   -34684.501      3745.11   -38429.611    307.41626    1.0117024 
   18600    301.64072    325.68898    123173.13   -34690.518    3747.5892   -38438.107    308.20095    1.0125098 
   18650    298.25021    -320.7981    123221.46   -34679.854    3705.4654    -38385.32      308.737    1.0121127 
   18700    300.56127    11.219889     123199.1   -34686.378    3734.1781   -38420.556    310.02793    1.0122964 
   18750    302.52102    92.477094    123274.93   -34661.869    3758.5261   -38420.395    310.73091    1.0116737 
   18800    295.97514      198.896    123399.87   -34740.079    3677.1999   -38417.279    311.40593    1.0106494 
   18850    300.95437   -160.00021    123463.96   -34676.917     3739.062   -38415.979    311.87952    1.0101248 
   18900    300.75124    481.97008    123432.46   -34766.268    3736.5383   -38502.806    312.17299    1.0103826 
   18950    299.87435   -163.40529    123514.65   -34717.674    3725.6438   -38443.318    312.97869    1.0097102 
   19000     295.5903        27.13    123468.85   -34765.362    3672.4188   -38437.781    313.44474    1.0100848 
   19050    295.18165     195.4846     123572.8   -34746.784    3667.3417   -38414.126    314.11338    1.0092351 
   19100    299.75917   -84.190504    123604.24   -34776.555    3724.2128   -38500.768    314.87714    1.0089784 
   19150    298.67774    75.288263    123391.67   -34755.114    3710.7771   -38465.891     315.6015    1.0107165 
   19200    301.16844     245.2907     123548.9   -34685.862    3741.7216   -38427.584    316.34807    1.0094303 
   19250    302.54147    75.760508    123561.89   -34639.763    3758.7802   -38398.543    317.35713    1.0093242 
   19300    298.42916   -113.00422    123542.72   -34644.176    3707.6887   -38351.865     317.7773    1.0094808 
   19350    301.72673    55.922862    123539.26    -34632.52    3748.6578   -38381.178    318.43177    1.0095091 
   19400    299.58934   -123.38555    123640.94    -34657.69    3722.1029   -38379.792    320.13169    1.0086789 
   19450    304.29138    116.30572     123595.2   -34615.105     3780.521   -38395.626    321.28764    1.0090521 
   19500    294.12621    363.79891    123798.04   -34663.022    3654.2288   -38317.251     322.3015    1.0073989 
   19550    297.88698    31.887272    123889.49   -34660.321    3700.9527   -38361.274    323.38517    1.0066553 
   19600    300.28918    160.09539    124249.42   -34689.738    3730.7977   -38420.536    324.95045    1.0037391 
   19650    299.15861   -440.99804    123939.97   -34734.313    3716.7514   -38451.064     325.1778    1.0062452 
   19700    299.11493   -547.38125    123736.64   -34691.643    3716.2088   -38407.852    325.47767    1.0078987 
   19750    302.06437   -22.819625    123748.66   -34698.362    3752.8527   -38451.215    326.44508    1.0078009 
   19800    299.74841    81.731872    123697.73    -34705.19    3724.0791   -38429.269    326.97327    1.0082158 
   19850    290.07443   -123.96606    123923.77   -34718.777    3603.8894   -38322.666    328.11225    1.0063767 
   19900    294.91074     87.46957    123558.42   -34720.683    3663.9759   -38384.659    328.18323    1.0093525 
   19950    299.65705   -450.44717    123392.16   -34743.188    3722.9441   -38466.132    328.44022    1.0107126 
   20000    300.46124    126.62727    123284.66   -34730.813    3732.9354   -38463.748    329.09405    1.0115939 
   20050    298.26988   -45.173138    123223.77    -34717.96    3705.7099    -38423.67    329.88325    1.0120937 
   20100    297.68635    212.73263    123313.68   -34770.721    3698.4601   -38469.181    330.99238    1.0113558 
   20150    295.68657    87.150991    123268.07   -34814.943    3673.6148   -38488.558    331.40855      1.01173 
   20200    298.22671    -439.8762    123040.63   -34781.018    3705.1735   -38486.192    331.89884    1.0136001 
   20250    292.70006    178.33355    123498.11   -34850.936    3636.5103   -38487.447    333.25113    1.0098455 
   20300     292.3379   -373.50516    123548.13   -34879.062    3632.0108   -38511.073    334.42386    1.0094366 
   20350    294.93296    195.23962    123465.44   -34828.161     3664.252   -38492.413    335.32541    1.0101127 
   20400    294.10376    145.96372    123509.73   -34847.495    3653.9499   -38501.445     336.3847    1.0097504 
   20450    292.82762    12.246855    123577.13   -34825.075    3638.0952    -38463.17    337.34968    1.0091997 
   20500    295.62135    170.46539    123819.14   -34817.745    3672.8045   -38490.549    339.16331    1.0072272 
   20550    291.03583   -85.764462    123821.81   -34844.708    3615.8339   -38460.542    340.00294    1.0072054 
   20600    292.65004    69.520426    123797.02   -34832.397    3635.8889   -38468.286    340.91698    1.0074071 
   20650    293.20112    11.843994    123834.89   -34791.919    3642.7355   -38434.654     342.0257    1.0070991 
   20700    293.81833   -8.1447793     123741.3   -34702.876    3650.4037    -38353.28    342.74074    1.0078608 
   20750    297.75048    219.86163    124049.76   -34693.404    3699.2568   -38392.661    344.58937    1.0053546 
   20800    296.82777    46.396513    124103.88   -34717.416     3687.793   -38405.209    345.95472    1.0049162 
   20850    293.42604   -40.783267    124264.91   -34750.698    3645.5299   -38396.228     347.5215     1.003614 
   20900     296.6861   -118.34668    124030.66   -34748.175    3686.0329   -38434.208    348.23645    1.0055095 
   20950    289.84676    -428.8128    123813.56   -34830.096    3601.0609   -38431.157    348.99161    1.0072726 
   21000    291.82381    216.37712    123670.68   -34900.452    3625.6238   -38526.075    349.87621    1.0084363 
   21050    291.15987    189.06713    123837.75    -34875.94     3617.375   -38493.315    351.30227    1.0070758 
   21100    288.54882    -233.0965    123680.43   -34875.664    3584.9353     -38460.6    351.89315    1.0083568 
   21150    298.82366   -229.27382    123581.85   -34849.995      3712.59   -38562.585    353.01506    1.0091612 
   21200    294.30069    334.66371    123557.17   -34831.891    3656.3965   -38488.287    354.12383    1.0093628 
   21250    298.77945   -220.53248    123496.85    -34846.63    3712.0407   -38558.671    355.19103    1.0098557 
   21300    298.00305     49.08256    123196.93   -34851.608    3702.3948   -38554.003    355.71649    1.0123142 
   21350    300.01708   -96.392029    123088.88   -34860.797     3727.417   -38588.214    356.36116    1.0132029 
   21400    296.33982    103.60184     123198.1    -34831.65    3681.7307    -38513.38    356.91889    1.0123046 
   21450    292.01119   -8.4582259    123379.81   -34843.412    3627.9517   -38471.363    358.48895    1.0108137 
   21500    291.76638    264.25141    123448.91   -34830.002    3624.9103   -38454.913    359.74449    1.0102479 
   21550    294.49947    242.26088    123275.66    -34811.63    3658.8662   -38470.496    360.33388    1.0116677 
   21600    302.61477    212.55086    123384.43   -34761.282    3759.6908   -38520.973    362.06054    1.0107759 
   21650    301.19003   -345.90466     123309.4    -34744.67    3741.9899    -38486.66    362.83785    1.0113909 
   21700    297.29866   -382.45339    123399.71   -34743.836    3693.6434   -38437.479    364.39636    1.0106507 
   21750    301.92018   -49.146347    123535.78   -34724.406    3751.0613   -38475.468    364.99363    1.0095375 
   21800      297.869   -87.310445    123520.94   -34725.025    3700.7293   -38425.755    365.67421    1.0096588 
   21850    301.53843   -273.15124    123515.61   -34741.615    3746.3184   -38487.934    366.37892    1.0097024 
   21900    294.65335   0.59564252    123593.36    -34729.54     3660.778   -38390.318    367.55657    1.0090672 
   21950    296.42694   -113.36658    123513.09   -34763.827    3682.8131    -38446.64    367.94745    1.0097229 
   22000    298.59964    -185.0093     123433.7   -34771.051    3709.8068   -38480.858    368.52128    1.0103724 
   22050    294.15414    362.45275    123535.32   -34701.408    3654.5758   -38355.984    370.30776    1.0095413 
   22100    294.09359   -92.871351    123498.97   -34740.334    3653.8236   -38394.158    371.09226    1.0098384 
   22150    300.24311   -70.328085    123680.36   -34756.057    3730.2253   -38486.283    372.04589    1.0083574 
   22200    302.68465   -44.106525    123669.38   -34713.505    3760.5591   -38474.064      373.701    1.0084469 
   22250    297.53564    295.84039    123613.92   -34753.318    3696.5877   -38449.906    374.26864    1.0088994 
   22300    297.62863   -55.266947    123963.28   -34728.225    3697.7429   -38425.968    375.31949     1.006056 
   22350    306.93513   -117.71888    123662.36   -34695.519     3813.367   -38508.886    375.50384    1.0085042 
   22400     302.0118    79.371156    123877.64   -34698.444    3752.1995   -38450.644    376.43162    1.0067515 
   22450     292.3855    228.20027    124031.86   -34723.333    3632.6022   -38355.935    377.55338    1.0054997 
   22500    303.85727     119.0588    123998.16   -34624.033    3775.1276   -38399.161     378.7909     1.005773 
   22550    303.21477   -179.49887    124089.76   -34620.374    3767.1453    -38387.52    379.70825    1.0050306 
   22600    300.19475    119.03194    124173.22   -34675.392    3729.6244   -38405.017    380.22309    1.0043551 
   22650    300.35794   -94.598657    123965.31   -34608.496    3731.6519   -38340.148    380.71094    1.0060396 
   22700    303.87613    97.892433    123966.05   -34692.302     3775.362   -38467.664    381.18352    1.0060335 
   22750    299.13369    496.68691    124121.33   -34681.237    3716.4418   -38397.679    382.74656     1.004775 
   22800    293.68564    138.31648    124201.68   -34695.405    3648.7552    -38344.16     384.2768     1.004125 
   22850    296.68835    69.755928    124215.94    -34650.95    3686.0609   -38337.011    385.76512    1.0040096 
   22900     296.5369   -144.18575    124330.28   -34663.236    3684.1793   -38347.416    387.01487    1.0030863 
   22950    301.07011   -185.42454    124256.52   -34602.175    3740.4999   -38342.675    388.38432    1.0036818 
   23000    294.09096   -179.79751    124248.55   -34675.543    3653.7909   -38329.334    388.64431    1.0037462 
   23050    297.59617    157.38067    123936.92   -34722.857    3697.3396   -38420.196    388.77318      1.00627 
   23100    297.98479   -233.22407    123762.46   -34703.695    3702.1678   -38405.862    389.62022    1.0076885 
   23150    296.35442    238.57786    123686.34   -34700.293    3681.9122   -38382.205    390.20134    1.0083086 
   23200    294.50327   -81.885622    123631.91   -34762.799    3658.9134   -38421.712    391.06824    1.0087525 
   23250    296.73594    152.50987    123759.98   -34771.743    3686.6521   -38458.395    392.11968    1.0077087 
   23300    301.22608    -599.8969    123668.23   -34748.448    3742.4377   -38490.886     393.0565    1.0084563 
   23350    298.68071    218.92431    123364.19   -34736.369     3710.814   -38447.183    393.13822    1.0109417 
   23400    301.97493    -53.74733    123286.47   -34714.879    3751.7414   -38466.621    393.80368     1.011579 
   23450    298.38259     206.4307    123601.03   -34737.199    3707.1102   -38444.309    395.29566    1.0090045 
   23500    293.76093   -67.808417    123712.96   -34780.146    3649.6906   -38429.837    396.86212    1.0080917 
   23550    299.63287   -98.698694    123703.77   -34693.129    3722.6436   -38415.773    398.17868    1.0081665 
   23600    292.38694    171.51461    123683.92   -34773.309    3632.6201   -38405.929    399.28995    1.0083284 
   23650    295.51641   -390.05539     123847.9   -34739.996    3671.5007   -38411.496    400.63493    1.0069933 
   23700     294.7834   -201.32486    123635.32   -34805.612    3662.3937   -38468.006    401.08732    1.0087247 
   23750    292.04223   -508.27269    123352.62   -34819.139    3628.3375   -38447.476     401.0536    1.0110366 
   23800    297.25667   -174.44258     123269.6   -34783.358    3693.1217   -38476.479    401.18404    1.0117175 
   23850    296.44298    264.97801    123345.68   -34791.683    3683.0124   -38474.695    401.77186    1.0110934 
   23900    296.53518   -104.37606    123393.61   -34814.059    3684.1579   -38498.217    402.58871    1.0107006 
   23950    300.98947    86.566832    123433.16   -34762.616     3739.498   -38502.114    403.01065    1.0103768 
   24000    296.71955   -37.374385    123365.82   -34752.634    3686.4486   -38439.083    403.86488    1.0109284 
   24050    296.13146    96.521896    123205.42   -34763.917    3679.1421    -38443.06     403.8438    1.0122445 
   24100    300.03327    159.31275    123068.02   -34807.181    3727.6182     -38534.8    404.22261    1.0133746 
   24150    294.15401   -229.57094    123454.09   -34813.883    3654.5743   -38468.457    405.66489    1.0102055 
   24200     294.4777   -110.29185    123324.31   -34867.498    3658.5957   -38526.094    406.04354    1.0112686 
   24250    291.32159    330.63048    123276.01   -34841.079    3619.3842   -38460.464    406.64563    1.0116648 
   24300    294.16599    272.11919    123627.29   -34809.594     3654.723   -38464.317    408.37757    1.0087903 
   24350    295.09734    36.186177    123883.84   -34819.664    3666.2942   -38485.958    410.47252    1.0067011 
   24400    292.46365     143.1388    123912.63   -34863.866    3633.5731   -38497.439    411.19354    1.0064673 
   24450    293.90623    80.791913    123749.97   -34843.176    3651.4958   -38494.672    411.30735    1.0077901 
   24500    290.13989    -255.1486    123864.76   -34812.159    3604.7027   -38416.861    412.04654    1.0068562 
   24550    296.83341    122.40038    123526.17   -34793.321    3687.8631   -38481.184    412.00102     1.009616 
   24600    300.09047   -236.07954    123732.39   -34756.604    3728.3289   -38484.933    413.42706    1.0079334 
   24650    296.79338    242.97382     123718.7   -34773.387    3687.3658   -38460.753    414.39258    1.0080449 
   24700    295.58599   -311.90632    123646.93   -34775.241    3672.3652   -38447.606    414.63177      1.00863 
   24750    299.79666    113.68033    123600.73   -34766.234    3724.6786   -38490.913    415.24673     1.009007 
   24800    295.40867    220.05802     123463.1   -34775.035    3670.1622   -38445.197    415.75444    1.0101318 
   24850    296.73836    63.491134    123498.67   -34726.798    3686.6822    -38413.48    416.72578    1.0098409 
   24900    302.29288   -17.690222    123288.13   -34693.377    3755.6917   -38449.069    417.11264    1.0115654 
   24950    301.17946     83.72407    123014.83   -34750.244    3741.8585   -38492.103    417.43722    1.0138128 
   25000    300.43546    299.98973    123371.68   -34708.511     3732.615   -38441.126    419.08732    1.0108803 
   25050    297.64611   -81.020328    123416.58   -34739.945    3697.9602   -38437.905    420.05521    1.0105126 
   25100    301.64226   -129.93039    123421.68   -34752.948    3747.6083   -38500.556    420.96909    1.0104708 
   25150    300.58874    68.459108    123512.89   -34776.168    3734.5195   -38510.687    421.75572    1.0097246 
   25200    297.13765     454.8151    123708.03   -34759.746     3691.643   -38451.389    422.71878    1.0081319 
   25250    296.17519    352.68556    123825.41   -34761.864    3679.6853    -38441.55    423.77604    1.0071762 
   25300    295.78401    16.436165    123935.43   -34779.162    3674.8254   -38453.987    424.76429    1.0062821 
   25350      296.274  -0.57645873    123945.15   -34733.807     3680.913    -38414.72    425.67207    1.0062031 
   25400    302.23782    -169.7763    123826.48   -34746.721    3755.0076   -38501.729    425.99936    1.0071675 
   25450     300.1899    -20.97462    123793.34   -34701.181    3729.5642   -38430.745    427.01818    1.0074371 
   25500    301.03939    228.03569     123866.2   -34700.852    3740.1183    -38440.97    428.15503    1.0068446 
   25550    299.03539     77.30713    124097.48   -34713.565    3715.2206   -38428.785    429.30685     1.004968 
   25600    299.20587    13.062285    124178.95   -34656.113    3717.3386   -38373.451    430.86878    1.0043087 
   25650    296.87799   -541.74743     124079.2   -34743.694    3688.4169   -38432.111    431.91454    1.0051161 
   25700    293.75083    -538.6793    123843.22   -34762.928    3649.5651   -38412.493    432.91408    1.0070314 
   25750    297.75449    69.566397    123717.87   -34736.555    3699.3066   -38435.862    433.07163    1.0080516 
   25800    298.81898   -51.057278    123858.71   -34746.857    3712.5319   -38459.389    435.05079    1.0069054 
   25850    299.59748   -167.97418    123785.36   -34701.897    3722.2039   -38424.101    435.63425     1.007502 
   25900    301.19311    548.96595    123810.32   -34661.226     3742.028   -38403.254    436.09633    1.0072989 
   25950    294.38842    139.54694    124189.11   -34635.651    3657.4865   -38293.137    437.14519    1.0042266 
   26000    300.87866   -170.80857    124059.36    -34663.53    3738.1214   -38401.651    437.54526    1.0052768 
   26050    296.65663    30.610799    123881.47   -34695.434    3685.6668   -38381.101    438.12695    1.0067204 
   26100    298.36771   -235.26939    123826.18   -34722.464    3706.9253    -38429.39    438.92755    1.0071699 
   26150    299.60935   -74.191888    123609.79   -34719.678    3722.3514    -38442.03    439.78116    1.0089331 
   26200    296.53049    239.24088    123647.25   -34722.729    3684.0997   -38406.828    440.90191    1.0086274 
   26250     299.6957    237.06906    123494.74   -34684.698    3723.4242   -38408.123    441.25152     1.009873 
   26300    302.38223   -3.7322203    123619.39   -34692.314    3756.8018   -38449.116    442.97777    1.0088547 
   26350    302.63925    36.861209    123825.43   -34651.577     3759.995   -38411.572    443.92767     1.007176 
   26400     300.1885   -103.65284    123819.28   -34744.402    3729.5469   -38473.949    444.43007     1.007226 
   26450    296.41763    89.155966    123685.56   -34798.834    3682.6975   -38481.532    444.71186     1.008315 
   26500    298.04853   -95.212063    123407.58   -34786.157    3702.9598   -38489.116    444.85186    1.0105862 
   26550    293.49999    172.04146    123177.22   -34858.909    3646.4487   -38505.358    445.12571    1.0124762 
   26600    295.78062    62.820588    123213.97   -34848.688    3674.7833   -38523.471    445.81167    1.0121742 
   26650    292.86079     128.1747    123279.07   -34884.355    3638.5072   -38522.862      446.499    1.0116397 
   26700    300.01178    59.791485    123318.32   -34808.818    3727.3513   -38536.169    447.92048    1.0113178 
   26750    294.36285    54.993875     123371.6   -34794.446    3657.1688   -38451.615    448.61805    1.0108809 
   26800    299.01464    358.50892    123644.78   -34753.849    3714.9627   -38468.812    450.45556    1.0086475 
   26850    300.55862    26.363464    123748.79   -34751.522    3734.1452   -38485.667    451.91245    1.0077998 
   26900    297.10342   -431.73879    123651.23   -34850.709    3691.2177   -38541.926    452.77337    1.0085949 
   26950    296.67614    104.38347    123823.19   -34839.062    3685.9091   -38524.971    454.13944    1.0071942 
   27000    293.50741   -37.135698    123841.39   -34847.565    3646.5408   -38494.105      455.056    1.0070462 
   27050    297.48209    382.54816    123788.38   -34837.729    3695.9224   -38533.651    455.79213    1.0074775 
   27100    291.94618   -18.078946    123839.52   -34852.719    3627.1441   -38479.863    456.54804    1.0070614 
   27150    291.09388   -146.47365    123809.97   -34821.489    3616.5551   -38438.044    457.13074    1.0073018 
   27200    295.88598   -24.871796    123725.14   -34805.432    3676.0922   -38481.524    458.07321    1.0079924 
   27250    295.20308    17.903318    123688.46   -34820.684    3667.6079   -38488.292    458.11114    1.0082913 
   27300    297.23001    83.607628    123943.48   -34825.321    3692.7905   -38518.111    459.73105    1.0062167 
   27350     299.2402    151.32504    124101.72   -34770.843    3717.7651   -38488.608    460.81914    1.0049337 
   27400    297.38786    66.494519     124249.9   -34714.659    3694.7516   -38409.411    461.79076    1.0037353 
   27450    301.34172    223.07912    124624.65   -34658.792    3743.8745   -38402.666    463.86247     1.000717 
   27500     295.8305    2.7356213    124627.28   -34670.388     3675.403   -38345.791     464.1204    1.0006959 
   27550    299.06237   -258.60866    124605.82   -34721.508    3715.5557   -38437.064    464.72244    1.0008682 
   27600     297.3861   -288.10855     124543.1   -34697.261    3694.7297   -38391.991    465.24844    1.0013723 
   27650     297.3262   -8.8865276    124699.42   -34710.571    3693.9855   -38404.557    466.83083     1.000117 
   27700    302.35184   -10.333849    124740.81   -34634.937    3756.4242   -38391.361    467.53961   0.99978511 
   27750    300.12286     340.4227    124635.22   -34645.475    3728.7312   -38374.206    468.29907    1.0006322 
   27800    304.30883    329.11965       124792    -34582.13    3780.7378   -38362.867    469.59712   0.99937501 
   27850    301.71748   -279.39217    124706.86   -34668.365    3748.5429   -38416.908    470.45637    1.0000573 
   27900    298.38722   -99.020796    124770.43   -34717.912    3707.1677    -38425.08    471.58771   0.99954776 
   27950    290.42916   -210.37649     124607.6    -34740.67    3608.2966   -38348.967    472.62939    1.0008539 
   28000      299.916    -207.2685    124158.57   -34712.374    3726.1613   -38438.535    472.45999    1.0044736 
   28050    304.92502   -238.71593    123911.99   -34633.859    3788.3935   -38422.252    472.27338    1.0064724 
   28100    302.62303   -107.05264    123695.11   -34641.598    3759.7934   -38401.392    472.84081    1.0082371 
   28150    299.19491   -71.648402    123540.83    -34720.79    3717.2024   -38437.993    473.35343    1.0094962 
   28200    297.02458   -220.03357    123406.13     -34768.8    3690.2382   -38459.039    474.17274    1.0105981 
   28250    301.48598   -247.13689    123218.58   -34732.447    3745.6668   -38478.113    474.50299    1.0121364 
   28300    302.00247    94.745733    123178.57    -34748.95    3752.0836   -38501.034    475.25016    1.0124651 
   28350    297.10186    42.601124    122959.42   -34777.522    3691.1984   -38468.721    475.76833    1.0142696 
   28400    288.94492     59.29555    123070.24   -34887.768    3589.8565   -38477.624    477.29382    1.0133563 
   28450     296.0786    230.14655    123006.92   -34854.086    3678.4853   -38532.571    478.20654     1.013878 
   28500    293.32309    66.184189    123106.42   -34925.995    3644.2508   -38570.246    479.43186    1.0130585 
   28550    295.26496    474.54229    123223.89    -34836.24    3668.3766   -38504.616    480.11895    1.0120927 
   28600    300.25491    255.21916    123399.96   -34797.604    3730.3719   -38527.975    481.31619    1.0106487 
   28650    292.09712    218.12119    123728.07    -34808.88    3629.0194     -38437.9    482.56262    1.0079685 
   28700    297.88958   -318.65313    123690.46   -34731.528     3700.985   -38432.513    483.69867    1.0082751 
   28750     297.4979   -103.10205    123712.27    -34720.36    3696.1187   -38416.478    484.42494    1.0080973 
   28800    299.41591    16.292799    123644.33   -34709.948    3719.9481   -38429.896    484.57268    1.0086512 
   28850    294.16366   -220.53803    123722.37   -34669.303    3654.6941   -38323.997    485.27336     1.008015 
   28900    295.86269   -343.58041    123796.37   -34663.839    3675.8029   -38339.642    486.20767    1.0074124 
   28950    300.88093   -379.60471    123411.41    -34730.69    3738.1495   -38468.839    486.52622    1.0105549 
   29000    302.40709    236.50862    123570.43   -34653.278    3757.1106   -38410.388    487.36201    1.0092544 
   29050    297.42678    40.755461    123760.85   -34702.157    3695.2352   -38397.392    489.44037    1.0077016 
   29100    301.51138    62.427036    123632.98   -34613.241    3745.9823   -38359.224    489.93895    1.0087438 
   29150     304.0229   -341.02357    123562.66   -34617.018    3777.1855   -38394.203    490.56229    1.0093179 
   29200    303.48307      232.737    123605.35   -34678.623    3770.4786   -38449.101    491.50098    1.0089693 
   29250    298.55733    314.79547    123548.09   -34752.514    3709.2811   -38461.795    492.15634    1.0094369 
   29300     292.1672   -4.2046079    123529.09   -34776.174      3629.89   -38406.064    493.47418    1.0095922 
   29350     294.3483    88.483316       123524   -34801.638     3656.988   -38458.626    494.02244    1.0096338 
   29400    294.84626     288.8739    123446.41   -34829.836    3663.1747   -38493.011    495.07208    1.0102684 
   29450     293.7979    45.110495     123325.6   -34868.096    3650.1498   -38518.246    495.50513     1.011258 
   29500    296.63557    -736.5128    123107.97   -34811.158    3685.4052   -38496.563    496.02287    1.0130458 
   29550    297.67543    296.87641    122960.75   -34787.969    3698.3243   -38486.293    496.65781    1.0142587 
   29600    298.82613    162.62131    123152.32    -34764.54    3712.6208   -38477.161    498.22343    1.0126809 
   29650    297.86669    474.03437    123265.28   -34774.638    3700.7005   -38475.338    499.36703    1.0117529 
   29700    292.81304    246.02994    123600.13   -34833.391     3637.914   -38471.305    501.58003    1.0090119 
   29750    295.84789   -424.22703     123658.6    -34790.44     3675.619   -38466.059    502.24519    1.0085348 
   29800    296.85146   -251.52432    123438.46   -34810.172    3688.0873   -38498.259    502.50733    1.0103334 
   29850    295.90748   -75.727012    123542.95   -34786.248    3676.3594   -38462.607    503.63424    1.0094789 
   29900    297.02258    225.17657    123932.85   -34761.149    3690.2133   -38451.362    505.64578    1.0063031 
   29950    295.32103  -0.83127465    124311.07   -34744.776    3669.0733   -38413.849    507.76722    1.0032413 
   30000    294.28963    195.82554    124244.83   -34790.162    3656.2591   -38446.421    508.17559    1.0037762 
   30050    295.04396   -374.54072    123975.91   -34766.813    3665.6309   -38432.444     507.8478    1.0059536 
   30100    300.34284   -212.97516    123816.33   -34767.647    3731.4644   -38499.112    508.15705    1.0072501 
   30150    298.08241    140.71131    123864.01   -34796.615    3703.3807   -38499.996    509.34067    1.0068623 
   30200    296.48661   -7.3538462    123888.88   -34784.007    3683.5544   -38467.562    510.96277    1.0066602 
   30250    293.75841   -17.640674    123595.49   -34800.344    3649.6592   -38450.003    511.53658    1.0090498 
   30300    302.11829   -30.963495    123777.59   -34694.395    3753.5225   -38447.918     513.2167    1.0075653 
   30350    298.93025   -102.03187     123904.3   -34697.125    3713.9143    -38411.04    515.08161    1.0065349 
   30400    292.48286    47.313697    124259.45   -34721.688    3633.8118     -38355.5    516.82052    1.0036581 
   30450    303.90928   -174.32978    124131.49   -34732.672    3775.7738   -38508.446     517.8886    1.0046928 
   30500    290.96868    8.2089412    124270.24   -34720.669    3614.9996   -38335.669    519.60571    1.0035709 
   30550    298.39091     260.4161    124131.72   -34699.527    3707.2135    -38406.74     520.8506    1.0046909 
   30600    293.98811   -156.91548    124138.35   -34710.948     3652.513   -38363.461    522.39255    1.0046372 
   30650    302.17304   -504.65406    123863.85   -34679.364    3754.2028   -38433.567    523.19088    1.0068636 
   30700    299.26072   -132.17876    123575.87   -34684.339      3718.02   -38402.359    524.05759      1.00921 
   30750    303.07458   -234.34543    123596.54   -34683.722    3765.4035   -38449.126    525.14293    1.0090412 
   30800    299.85591    99.868679    123726.84   -34657.732    3725.4147   -38383.147    526.85295    1.0079786 
   30850    298.10482    77.637747    123931.74   -34791.154    3703.6591   -38494.813    527.80899    1.0063121 
   30900    295.08517    -63.55816    124054.59   -34784.034    3666.1429   -38450.177    528.83425    1.0053155 
   30950    293.96391     234.7837    124107.46   -34794.515    3652.2125   -38446.728    529.82157    1.0048873 
   31000    291.29249    226.74231    124115.23   -34838.145    3619.0226   -38457.168    530.57922    1.0048243 
   31050    293.24261  -0.18436665    124219.23   -34846.234     3643.251   -38489.485     531.2801    1.0039831 
   31100    293.60697    202.16621    124145.04   -34865.768    3647.7778   -38513.546    531.71203     1.004583 
   31150    292.74749   -174.30311    123994.23   -34859.267    3637.0996   -38496.366     531.6482    1.0058049 
   31200     294.9026    -302.7729    124027.39   -34870.502    3663.8747   -38534.377     532.5923     1.005536 
   31250    292.64982    174.04635    123733.85   -34849.647    3635.8861   -38485.533    532.47697    1.0079215 
   31300    298.26538    138.47918    123954.94   -34735.699     3705.654   -38441.353    533.77353    1.0061237 
   31350    300.61055    8.8405691    123887.16   -34695.714    3734.7904   -38430.505    534.25158    1.0066742 
   31400    294.98467    290.28069    123938.49   -34773.141    3664.8944   -38438.035    534.54745    1.0062572 
   31450    295.86786   -211.20159    123818.09   -34761.245    3675.8671   -38437.113     534.3261    1.0072357 
   31500    296.81331   -194.05949    123881.35    -34673.07    3687.6134   -38360.683    535.33172    1.0067214 
   31550    299.88625   -87.105653    123706.77   -34706.956    3725.7916   -38432.747    535.48732    1.0081421 
   31600    299.68874    243.98002    123587.99   -34723.242    3723.3378    -38446.58    535.26302    1.0091111 
   31650    301.90764   -81.335487    123650.52   -34740.511    3750.9055   -38491.417    535.95078    1.0086007 
   31700     292.8748    107.61057    123758.17   -34740.348    3638.6813   -38379.029    536.66523    1.0077234 
   31750    298.83292     88.15451    123771.44   -34697.156     3712.705   -38409.861    537.67632    1.0076154 
   31800    298.93658    22.303788    123746.17   -34681.238    3713.9929   -38395.231    538.05166    1.0078211 
   31850    304.71035   -4.5991672    123555.51   -34655.448    3785.7264   -38441.175    538.73701    1.0093763 
   31900    299.55448   -318.85585    123502.67   -34687.631    3721.6698   -38409.301    539.46277    1.0098082 
   31950    300.21323   -136.86981    123333.18    -34664.24     3729.854   -38394.094    539.52202    1.0111959 
   32000    301.86019    167.05748    123300.06   -34643.157     3750.316   -38393.473    539.13414    1.0114675 
   32050    298.09378    298.43052     123514.8   -34703.304     3703.522   -38406.826    540.23232     1.009709 
   32100    299.96189    136.50006    123625.63   -34681.604    3726.7314   -38408.336     540.7596    1.0088038 
   32150    301.69168   -96.246646    123710.82   -34694.843    3748.2223   -38443.066    541.96499    1.0081091 
   32200    303.90535    135.42895     123723.4    -34654.77     3775.725   -38430.495    542.42211    1.0080066 
   32250     304.9162    261.51922    123876.79   -34659.898    3788.2838   -38448.181    543.80491    1.0067584 
   32300    301.71238    12.204535    123906.49    -34672.25    3748.4796    -38420.73    544.52929    1.0065171 
   32350    301.27912   -161.15176    123909.85   -34685.161    3743.0966   -38428.258    545.15294    1.0064898 
   32400    300.74683    26.607441    123986.77   -34719.297    3736.4835    -38455.78    545.96856    1.0058654 
   32450    297.22131   -140.46107    124128.69   -34792.543    3692.6824   -38485.225      547.723    1.0047154 
   32500    297.79488    274.05001    123998.83     -34723.2    3699.8085   -38423.008    548.40381    1.0057676 
   32550    300.35431    149.06659    124025.37   -34668.895    3731.6068   -38400.502    549.14596    1.0055524 
   32600    302.54053     -78.2091    123938.85   -34709.591    3758.7684   -38468.359    550.05337    1.0062543 
   32650     298.9072    57.359572    124168.93    -34706.38    3713.6279   -38420.008    551.13122    1.0043898 
   32700    297.71008    -385.5476    124041.43   -34784.238    3698.7548   -38482.993      552.238    1.0054222 
   32750    299.93052   -222.46588    123858.77   -34754.007    3726.3417   -38480.349    552.25117    1.0069049 
   32800    295.67846     -300.915    123594.27   -34837.333     3673.514   -38510.847     552.6652    1.0090597 
   32850    296.75329    107.80174    123633.82   -34829.486    3686.8677   -38516.354    553.79404     1.008737 
   32900    293.42299   -32.536261    123626.63   -34833.395     3645.492   -38478.887     554.8024    1.0087956 
   32950    293.75535    111.73042    123762.66   -34903.654    3649.6213   -38553.275     556.1701    1.0076868 
   33000    293.54176   -62.270083     123745.5   -34859.128    3646.9676   -38506.095    557.50976    1.0078266 
   33050    297.41546   -94.405891     123762.5   -34801.368    3695.0945   -38496.463    558.59122    1.0076881 
   33100    299.79914   -181.93383    123901.83   -34723.237    3724.7094   -38447.947    559.43183     1.006555 
   33150    295.71625   -34.338743    123876.09   -34789.936    3673.9835    -38463.92     559.9118    1.0067641 
   33200     294.0378    291.43647    123966.64   -34756.904    3653.1305   -38410.035     560.5871    1.0060288 
   33250    294.51786    58.334573     124024.9   -34728.985    3659.0946   -38388.079    561.73299    1.0055562 
   33300    300.20052   -74.583085    123918.02   -34738.229    3729.6961   -38467.925    562.35004    1.0064235 
   33350    297.90022    118.83261    124057.19   -34821.966    3701.1171   -38523.083    563.54671    1.0052944 
   33400    296.50679    221.35562    124076.27   -34750.099    3683.8052   -38433.904    564.15086    1.0051399 
   33450    296.87385   -126.47735    123829.01   -34796.921    3688.3655   -38485.286    564.75173    1.0071469 
   33500    301.64174   -373.21351    123732.83    -34744.37    3747.6019   -38491.972    565.01511    1.0079298 
   33550    296.61334    98.509392    123724.51   -34749.927     3685.129   -38435.056    565.91107    1.0079976 
   33600    300.29651    258.82053    123757.96   -34718.315    3730.8887   -38449.203    566.93263    1.0077251 
   33650    295.36493   -82.680672     123923.2   -34702.496    3669.6187   -38372.115    568.58323    1.0063814 
   33700    294.88685    132.32566    123924.49   -34754.301     3663.679    -38417.98    569.31147    1.0063709 
   33750    299.54551   -97.913907    123728.64   -34738.481    3721.5583   -38460.039    569.57588    1.0079639 
[...]
  192550    295.99396   -13.661516       123520   -34730.412    3677.4337   -38407.846    3280.0389    1.0096665 
  192600     296.3007    30.450189    123515.86   -34713.838    3681.2448   -38395.082    3280.6616    1.0097003 
  192650    300.32516    274.27375    123535.26   -34687.314    3731.2447   -38418.558     3281.504    1.0095418 
  192700    297.38106   -215.49818    123616.91   -34650.243    3694.6671    -38344.91    3283.6148    1.0088749 
  192750    300.33899   -97.043891    123515.14    -34777.51    3731.4165   -38508.927    3282.8678    1.0097062 
  192800     293.2152    417.43833    123717.38   -34812.531    3642.9104   -38455.441    3286.4901    1.0080557 
  192850    296.58921   -278.60489    123589.15   -34784.253    3684.8292   -38469.082    3283.8175    1.0091015 
  192900    299.27877    22.224115    123472.45   -34781.836    3718.2443    -38500.08    3281.7423    1.0100553 
  192950    294.79541    142.54476    123535.14   -34777.431     3662.543   -38439.974     3284.191    1.0095428 
  193000    300.65617   -212.81188    123269.85    -34737.08    3735.3572   -38472.437    3281.2007    1.0117154 
  193050    295.20687   -139.29617    123249.01    -34744.53    3667.6549   -38412.185    3282.5137    1.0118864 
  193100    294.98958    12.330589    123316.26   -34815.225    3664.9554    -38480.18    3284.7007    1.0113346 
  193150    292.39846    130.57118    123358.61   -34820.358    3632.7632   -38453.121    3286.4593    1.0109874 
  193200    296.08138    286.00946    123391.61   -34816.675    3678.5199   -38495.195    3287.0219     1.010717 
  193250    291.28044   -241.52268    123541.44   -34806.833     3618.873   -38425.706    3291.4823    1.0094913 
  193300    299.14783   -163.19662    123556.21   -34757.144    3716.6176   -38473.761    3291.2866    1.0093706 
  193350    303.89251     79.26344    123342.56   -34737.624    3775.5655    -38513.19    3286.6413     1.011119 
  193400    301.55159   -64.158259    123502.78   -34777.744    3746.4819   -38524.226    3289.4631    1.0098072 
  193450    294.33741   -265.13239    123238.17   -34773.616    3656.8528   -38430.469    3286.8557    1.0119755 
  193500    291.61673    11.210544    123141.28   -34801.719    3623.0511   -38424.771    3286.2941    1.0127717 
  193550    299.90513   -192.20529    122981.09   -34796.454    3726.0262    -38522.48    3284.8536    1.0140909 
  193600    295.55944   -30.430883    122879.27   -34792.803    3672.0353   -38464.838    3283.9649    1.0149312 
  193650    292.80517    174.11352    122962.73   -34798.975    3637.8162   -38436.792    3287.1494    1.0142423 
  193700    295.99426   -202.74705    123005.99   -34755.584    3677.4375   -38433.021    3290.2916    1.0138856 
  193750    294.34676    -291.9363    122957.71   -34781.317    3656.9689   -38438.286    3291.6274    1.0142837 
  193800     297.7184   -39.767806    122863.94   -34770.767    3698.8582   -38469.625    3290.0637    1.0150578 
  193850    296.43913    124.12842    122767.98   -34790.391    3682.9645   -38473.356    3290.5605    1.0158512 
  193900    300.75552   -133.65257    122522.75   -34728.333    3736.5915   -38464.925    3288.4348    1.0178845 
  193950    301.68458   -55.393848    122658.27   -34699.942    3748.1342   -38448.076     3291.629    1.0167598 
  194000    296.96213    198.51929    122712.73   -34782.553    3689.4623   -38472.015    3292.0811    1.0163086 
  194050    298.77104   -215.06408    122945.26   -34770.944    3711.9363    -38482.88    3296.6555    1.0143865 
  194100    299.71078   -67.602618    122876.73   -34755.437    3723.6116   -38479.048    3295.4086    1.0149521 
  194150    298.15637   -235.98588    122996.27   -34736.524    3704.2996   -38440.823    3299.0578    1.0139658 
  194200    295.10413   -16.854858    123021.96   -34811.537    3666.3785   -38477.916    3300.7641     1.013754 
  194250    299.15284   -18.479902    123012.81   -34796.293    3716.6798   -38512.973    3302.5314    1.0138294 
  194300    288.70621     138.7119    122870.84   -34861.164    3586.8907   -38448.055    3300.4958    1.0150008 
  194350     298.4267   -113.00998    123018.35   -34815.383    3707.6582   -38523.041    3302.6777    1.0137838 
  194400    295.31189     53.87977    122993.97   -34813.944    3668.9597   -38482.904     3303.822    1.0139847 
  194450    296.09696    -190.3882    123000.87   -34794.808    3678.7134   -38473.522    3305.5689    1.0139278 
  194500    292.99463     164.2321    122876.61    -34834.53      3640.17     -38474.7    3303.1341    1.0149531 
  194550    296.08693    198.41339    123094.81   -34869.447    3678.5889   -38548.036    3307.0084     1.013154 
  194600    295.89609    347.13342    123061.39   -34811.589    3676.2178   -38487.807    3305.8243    1.0134292 
  194650    298.06716     77.11338    123325.23   -34795.327    3703.1913   -38498.518    3312.4317    1.0112611 
  194700    299.92615    12.736358    123451.76    -34814.75    3726.2874   -38541.038     3315.978    1.0102246 
  194750    296.00572    136.98737    123548.77   -34855.446    3677.5799   -38533.026    3317.1463    1.0094313 
  194800    300.59823   -245.40062    123572.97   -34776.342    3734.6373    -38510.98    3317.8619    1.0092336 
  194850    294.21121   -88.857629    123575.92   -34793.775    3655.2848    -38449.06    3318.7725    1.0092096 
  194900    299.90545    180.87412    123709.43    -34692.49    3726.0302    -38418.52    3320.8767    1.0081205 
  194950    299.04125    134.53539    123714.93    -34726.56    3715.2933   -38441.854    3322.4337    1.0080756 
  195000    295.29403   -224.74786    123751.05   -34770.197    3668.7378   -38438.935    3323.1927    1.0077814 
  195050    295.88792   -305.95579    123668.19   -34815.041    3676.1163   -38491.158     3323.547    1.0084566 
  195100    299.64698    174.67985    123382.15    -34765.51    3722.8189   -38488.329    3320.1099    1.0107945 
  195150    297.15103   -72.799455    123320.26   -34784.031    3691.8093    -38475.84    3320.8067    1.0113018 
  195200    296.27002   -227.23445    123253.99   -34798.088    3680.8635   -38478.951    3321.0873    1.0118456 
  195250    297.38668   -309.44632    123153.55   -34827.254     3694.737   -38521.991    3320.4792    1.0126708 
  195300    300.27172   -252.35915    123143.52   -34785.929    3730.5808    -38516.51    3320.1389    1.0127533 
  195350    296.98012    -26.88502    123195.87   -34794.885    3689.6858    -38484.57    3322.8669    1.0123229 
  195400    302.99233   -149.30143    122991.83   -34761.139    3764.3816    -38525.52    3320.7598    1.0140023 
  195450    295.35396    -50.67432    123044.55   -34825.098    3669.4824    -38494.58    3321.9777    1.0135679 
  195500    295.34257   -2.2012384    123031.48   -34788.309    3669.3408    -38457.65    3321.7055    1.0136755 
  195550    299.46361     6.908272    123178.65   -34694.268    3720.5408   -38414.808    3324.5795    1.0124645 
  195600    302.58834   -281.88923    122981.78   -34705.593    3759.3625   -38464.955     3321.891    1.0140852 
  195650    302.91403     218.0823    123073.35   -34650.295    3763.4089   -38413.704    3323.0846    1.0133307 
  195700    307.26981   -57.993128    123213.95   -34645.424    3817.5251   -38462.949    3325.9106    1.0121744 
  195750     304.4328    24.856881    123406.13   -34649.184     3782.278   -38431.462    3331.0836    1.0105982 
  195800    300.35661   -248.29048    123124.84   -34703.786    3731.6354   -38435.422    3325.0532    1.0129069 
  195850    300.31307    -204.6609    122971.89   -34747.034    3731.0945   -38478.128    3323.6285    1.0141668 
  195900    296.49986    375.28138     122926.1   -34745.365    3683.7191   -38429.084    3322.9971    1.0145445 
  195950    297.57336   -417.42778    123025.61   -34796.604    3697.0563   -38493.661    3327.6851    1.0137239 
  196000    291.53928    189.04129    123279.03     -34795.5    3622.0888   -38417.589    3333.7552      1.01164 
  196050    297.34612    240.69425    123479.14   -34772.237     3694.233    -38466.47    3338.1248    1.0100006 
  196100    293.45265   -343.10617    123529.38   -34762.358    3645.8605   -38408.219      3339.65    1.0095898 
  196150    297.49608      58.6461     123538.7   -34704.929    3696.0962   -38401.026    3339.9242    1.0095137 
  196200    299.75118    263.29739    123507.36   -34775.065    3724.1135   -38499.179    3340.4786    1.0097698 
  196250    299.94615    26.452979    123656.22    -34779.74    3726.5359   -38506.276    3344.5373    1.0085542 
  196300    295.77675   -88.962964    123612.08    -34748.82    3674.7352   -38423.555    3344.8985    1.0089144 
  196350    299.74487   -348.77625    123530.35   -34712.542    3724.0352   -38436.577    3344.9419    1.0095819 
  196400    301.50283    191.58842    123350.97   -34707.357     3745.876   -38453.233    3342.2935    1.0110501 
  196450     298.0068    214.77039    122968.45   -34745.492    3702.4413   -38447.934    3333.9269    1.0141951 
  196500    298.41872   -49.039997    122980.88   -34828.346    3707.5591   -38535.905    3334.6963    1.0140926 
  196550     297.5625   -254.68387    123050.39   -34803.276    3696.9213   -38500.197    3336.7207    1.0135198 
  196600    298.13927    3.0301781    123172.94   -34847.308    3704.0872   -38551.396    3338.9751    1.0125114 
  196650    301.06178    188.13326    123261.85   -34825.127    3740.3964   -38565.523    3341.6471    1.0117811 
  196700    292.57963    90.952838    123378.17    -34843.14    3635.0141   -38478.154    3344.3018    1.0108271 
  196750    296.67336    131.98503    123550.05   -34794.144    3685.8746   -38480.019    3347.4725    1.0094209 
  196800    296.81964     71.54378    123622.18   -34805.131     3687.692   -38492.823    3350.4607     1.008832 
  196850    290.04814   -145.10802    123442.29   -34783.768    3603.5628   -38387.331    3348.9453    1.0103021 
  196900     297.1244    475.08323    123312.43   -34801.707    3691.4784   -38493.186    3347.2965     1.011366 
  196950    289.65808   -361.92655    123281.37   -34804.171    3598.7168   -38402.887    3347.2767    1.0116208 
  197000    294.99982   -75.847547    123507.56   -34795.389    3665.0826   -38460.472    3352.9113    1.0097682 
  197050    300.65886   -42.351818    123542.57   -34740.954    3735.3905   -38476.344    3354.0321     1.009482 
  197100    300.22616    306.21573    123473.82   -34766.735    3730.0147    -38496.75    3353.4939    1.0100441 
  197150    298.61927   -108.40761    123770.53   -34812.875    3710.0507   -38522.926    3359.1229    1.0076227 
  197200    299.66609    200.99842    123748.21     -34756.1    3723.0564   -38479.156    3358.4374    1.0078045 
  197250    294.32013    214.87143    123996.73   -34749.353    3656.6381   -38405.991    3360.7767    1.0057846 
  197300    293.58623   -121.53981    124080.94   -34781.558    3647.5201   -38429.078    3362.3471     1.005102 
  197350    286.79967    55.593275     123993.8   -34800.276    3563.2038    -38363.48    3362.3662    1.0058083 
  197400    298.16903   -178.78394    124006.16   -34751.907    3704.4569   -38456.364    3364.6885    1.0057081 
  197450    290.93908    39.562296    123960.43   -34755.337    3614.6319   -38369.969    3362.8721    1.0060791 
  197500    288.96805   -311.75278    123933.42   -34830.503    3590.1438   -38420.647    3362.9574    1.0062984 
  197550    301.98596    97.679584    123901.97   -34743.491    3751.8785    -38495.37    3363.7648    1.0065538 
  197600    299.15537    438.52892    123883.05   -34658.823    3716.7113   -38375.534    3363.9202    1.0067076 
  197650    298.51833    383.04719    123983.71   -34678.168    3708.7966   -38386.965    3364.7798    1.0058903 
  197700    297.72603    23.445514    123759.09   -34746.024    3698.9531   -38444.977     3361.369    1.0077159 
  197750    294.58326    77.457179    123859.56    -34726.73    3659.9072   -38386.637    3364.1845    1.0068985 
  197800    302.01781   -56.963677    123764.23   -34669.127    3752.2742   -38421.401    3361.3889    1.0076741 
  197850    300.14819   -48.304688    123716.23   -34646.206     3729.046   -38375.252    3360.9481     1.008065 
  197900    296.55891    157.38969    123467.01   -34701.869    3684.4527   -38386.321    3357.7692    1.0100998 
  197950    298.23026     217.0497    123399.06   -34684.124    3705.2175   -38389.342    3356.9632     1.010656 
  198000    291.54743    128.64795    123276.89   -34787.081      3622.19   -38409.271    3356.4811    1.0116576 
  198050     294.7729    -83.91507    123225.29   -34807.015    3662.2633   -38469.278    3355.4552    1.0120812 
  198100    288.39457    192.19653    123258.48   -34830.597    3583.0189   -38413.616    3356.5105    1.0118087 
  198150    293.25719    40.034142    123106.21   -34859.419    3643.4321   -38502.851    3354.7635    1.0130602 
  198200     300.6012    277.67906    123258.36   -34739.506    3734.6742    -38474.18    3358.4666    1.0118097 
  198250    300.10093   -204.77926    123351.22   -34705.781    3728.4588    -38434.24    3361.5347     1.011048 
  198300    296.41527    137.89753    123429.76   -34748.412    3682.6681   -38431.081    3362.4242    1.0104046 
  198350    292.63855     152.4202    123482.08   -34793.306    3635.7461   -38429.052    3363.8935    1.0099765 
  198400    297.40568    140.43808    123496.55     -34732.6     3694.973   -38427.573    3365.8469    1.0098582 
  198450    294.29643    18.827301    123433.13   -34745.747    3656.3436    -38402.09    3366.3758    1.0103771 
  198500    301.86189    424.25147     123479.9   -34657.523    3750.3371    -38407.86    3367.9069    1.0099944 
  198550    297.23309    192.38873    123490.95   -34643.848    3692.8287   -38336.677    3368.3835     1.009904 
  198600    301.86102    295.05805    123520.68   -34626.941    3750.3262   -38377.268    3371.0423    1.0096609 
  198650    301.31602     245.4163    123599.29   -34661.237    3743.5551   -38404.792    3372.5203    1.0090188 
  198700    306.96367    90.918993    123885.11   -34575.595    3813.7217   -38389.316    3379.9145    1.0066908 
  198750    298.63282   -267.40932    123854.89   -34553.349     3710.219   -38263.568    3380.3038    1.0069365 
  198800    302.46654    283.99197    123650.66    -34588.66    3757.8492    -38346.51    3377.2542    1.0085996 
  198850    304.48784   -133.34376    123620.22    -34624.47    3782.9619   -38407.432    3378.3062    1.0088479 
  198900    302.47064    501.51345    123409.87   -34670.781    3757.9002   -38428.682    3374.8802    1.0105675 
  198950    295.84978     11.68083    123559.52   -34726.967    3675.6424   -38402.609    3377.9601    1.0093435 
  199000    298.51317    22.180714    123754.83   -34757.799    3708.7325   -38466.532    3380.9382    1.0077506 
  199050    303.76951    67.790377    123591.77   -34763.659    3774.0374   -38537.696    3379.2605    1.0090801 
  199100    301.05253    26.914724    123616.37   -34741.464    3740.2815   -38481.746    3380.8503    1.0088794 
  199150    295.73471    464.13292    123807.72   -34742.865    3674.2129   -38417.078     3385.998    1.0073201 
  199200    297.47123    137.96736    123707.23   -34803.496    3695.7873   -38499.284    3385.4827    1.0081384 
  199250    303.24249    -92.86111    123729.89   -34710.853    3767.4897   -38478.342    3386.3597    1.0079537 
  199300    292.51761   -248.37758    123399.13   -34757.795    3634.2435   -38392.039    3381.9924    1.0106555 
  199350    296.78074    47.971038    123411.25   -34760.948    3687.2087   -38448.156    3384.3342    1.0105562 
  199400    296.51448   -53.171428    123323.91   -34777.831    3683.9008   -38461.731    3383.7897    1.0112719 
  199450      300.816   -554.42477    123273.29   -34754.268    3737.3429   -38491.611    3384.0338    1.0116871 
  199500    295.46772    194.82765       123191   -34772.723    3670.8957   -38443.619    3384.1309     1.012363 
  199550    300.42975   -179.91029    123072.92   -34717.332    3732.5442   -38449.876    3383.3655    1.0133343 
  199600    302.26582    77.449383    123180.72   -34682.283    3755.3555   -38437.639    3384.2158    1.0124475 
  199650    299.01635    281.59636     123171.7   -34652.008     3714.984   -38366.992    3386.3352    1.0125216 
  199700    304.50429    181.50076    123216.29   -34616.067    3783.1663   -38399.234     3388.355    1.0121552 
  199750    304.94038    57.903181    123708.44   -34575.825    3788.5843   -38364.409    3398.4493    1.0081285 
  199800    308.85976    196.77258    123681.07   -34539.393    3837.2787   -38376.671    3398.4982    1.0083516 
  199850    297.24605   -407.58848    123757.36   -34632.669    3692.9897   -38325.659    3401.1529      1.00773 
  199900    299.01061   -81.265765    123398.42   -34671.496    3714.9127   -38386.409     3397.035    1.0106613 
  199950    295.78832     45.00881    123709.82   -34735.625    3674.8789   -38410.504    3405.1622    1.0081172 
  200000    293.65974   -166.85803    123674.38   -34743.809    3648.4333   -38392.243    3406.4241    1.0084061 
  200050    297.47991   -312.37076    123396.01   -34746.204    3695.8953   -38442.099    3401.8399     1.010681 
  200100    298.52935    100.39374    123530.48   -34751.298    3708.9335   -38460.231    3406.1603    1.0095808 
  200150    294.06929   -99.384843    123359.39   -34793.079    3653.5216     -38446.6    3404.4468     1.010981 
  200200    296.19528    168.85571    123426.45   -34789.159     3679.935   -38469.094     3406.136    1.0104317 
  200250    295.05083   -219.44291    123323.95    -34749.01    3665.7164   -38414.727    3404.8105    1.0112716 
  200300    294.03747    54.634696    123433.77   -34739.015    3653.1263   -38392.141     3407.905    1.0103718 
  200350    301.96301    322.33399    123443.27   -34712.369    3751.5933   -38463.962    3409.2086    1.0102941 
  200400    295.48817     53.32102    123337.47   -34712.846    3671.1498   -38383.996    3409.8616    1.0111607 
  200450    297.74923   -55.586928    123168.26   -34757.756    3699.2413   -38456.997    3407.1433    1.0125498 
  200500    299.91985   -127.21517    123191.55   -34736.801    3726.2091    -38463.01    3409.1996    1.0123584 
  200550    298.10231    132.46179    123116.03   -34739.992     3703.628    -38443.62    3407.6922    1.0129794 
  200598    300.95398    231.92985    123201.18   -34707.779    3739.0571   -38446.837    3410.1214    1.0122793 
Loop time of 293.65 on 12 procs for 200000 steps with 4169 atoms

Performance: 294.228 ns/day, 0.082 hours/ns, 681.084 timesteps/s
99.7% CPU use with 12 MPI tasks x no OpenMP threads

MPI task timing breakdown:
Section |  min time  |  avg time  |  max time  |%varavg| %total
---------------------------------------------------------------
Pair    | 253.1      | 255.68     | 260.25     |  12.7 | 87.07
Neigh   | 8.3884     | 8.4954     | 8.6219     |   2.8 |  2.89
Comm    | 18.854     | 23.373     | 26.24      |  43.1 |  7.96
Output  | 0.36873    | 0.39198    | 0.64573    |  12.2 |  0.13
Modify  | 4.0842     | 4.3965     | 4.5034     |   6.6 |  1.50
Other   |            | 1.314      |            |       |  0.45

Nlocal:    347.417 ave 360 max 339 min
Histogram: 1 3 4 0 0 1 0 0 2 1
Nghost:    967.833 ave 982 max 953 min
Histogram: 1 0 2 2 0 2 2 2 0 1
Neighs:    0 ave 0 max 0 min
Histogram: 12 0 0 0 0 0 0 0 0 0
FullNghs:  10265.8 ave 10830 max 9880 min
Histogram: 2 1 5 0 0 1 0 0 1 2

Total # of neighbors = 123190
Ave neighs/atom = 29.5491
Neighbor list builds = 14675
Dangerous builds = 0

undump              1
unfix               2
unfix               3
unfix               4


################################################
#######         Run Simulation         #########
################################################

reset_timestep      0
log                 log.run_${NAME}
log                 log.run_liquid_298K_1atm_ML
