
# Set production fixes - Nose/Hoover
#
fix                 2 all nph iso ${PRES} ${PRES} ${PCOUPL}
fix                 2 all nph iso -1000 ${PRES} ${PCOUPL}
fix                 2 all nph iso -1000 -1000 ${PCOUPL}
fix                 2 all nph iso -1000 -1000 10000.0
fix                 3 all temp/csvr ${TEMP} ${TEMP} ${TCOUPL} 837492
fix                 3 all temp/csvr 298 ${TEMP} ${TCOUPL} 837492
fix                 3 all temp/csvr 298 298 ${TCOUPL} 837492
fix                 3 all temp/csvr 298 298 5000.0 837492

# Define Order parameter
#
compute             2 all orientorder/atom nnn NULL cutoff 3.5
thermo              200
thermo_style        custom step temp press vol etotal ke pe c_1[4]

# Run 1ns simulation
dump		    1 all custom 400 prod.${NAME}.dump id type x y z vx vy vz c_2[*]
dump		    1 all custom 400 prod.ice_298K_1000atm_ML.dump id type x y z vx vy vz c_2[*]
run                 200000
Neighbor list info ...
  update every 1 steps, delay 0 steps, check yes
  max neighbors/atom: 2000, page size: 100000
  master list distance cutoff = 6.0032907
  ghost atom cutoff = 6.0032907
  binsize = 3.0016454, bins = 18 18 18
  2 neighbor lists, perpetual/occasional/extra = 1 1 0
  (1) pair sw, perpetual
      attributes: full, newton on
      pair build: full/bin/atomonly
      stencil: full/bin/3d
      bin: standard
  (2) compute orientorder/atom, occasional, copy from (1)
      attributes: full, newton on
      pair build: copy
      stencil: none
      bin: none
Per MPI rank memory allocation (min/avg/max) = 5.839 | 5.839 | 5.840 Mbytes
Step Temp Press Volume TotEng KinEng PotEng c_1[4] 
       0    294.21264   -977.78779    133306.55   -42065.307    3591.2823   -45656.589   0.15677325 
     200    297.33544   -1011.6103    133339.61   -42055.621    3629.4004   -45685.022   0.15894607 
     400    297.99581   -993.21118    133386.64    -42049.24    3637.4611   -45686.701   0.15022312 
     600    298.31347   -992.99019    133376.94   -42086.961    3641.3386     -45728.3   0.15099506 
     800    296.58758   -971.80397    133308.64    -42103.08    3620.2717   -45723.352   0.15892813 
    1000    294.50747   -1016.1287    133317.17    -42115.49     3594.881   -45710.371    0.1582935 
    1200    294.70311   -1054.9279     133379.3    -42137.93    3597.2691   -45735.199   0.15381414 
    1400    295.96041   -1067.5309    133355.32   -42130.424    3612.6162    -45743.04   0.15208684 
    1600    299.57478   -987.81849    133264.12   -42135.653    3656.7347   -45792.388   0.15681823 
    1800    301.29336   -959.15496    133291.38   -42141.724    3677.7125   -45819.436   0.15290056 
    2000    296.06817   -1050.9662    133386.19   -42095.219    3613.9316   -45709.151    0.1545328 
    2200    297.05353   -1052.5189     133355.3   -42065.425    3625.9593   -45691.384   0.15073378 
    2400    296.36501   -976.15348    133254.73   -42084.732    3617.5549   -45702.287    0.1568196 
    2600    294.39345   -972.69308       133266   -42125.967    3593.4893   -45719.456   0.15728488 
    2800    295.54134   -1050.0931    133369.67   -42139.987    3607.5009   -45747.488   0.15785917 
    3000    292.74912   -1129.0973    133363.97   -42150.676    3573.4179   -45724.094   0.15506253 
    3200    297.96599   -932.81752    133189.54   -42099.868    3637.0972   -45736.965   0.15067712 
    3400    297.62316    -931.2561     133230.1   -42136.849    3632.9125   -45769.762    0.1563713 
    3600    292.79256   -1084.3783    133418.98   -42160.071    3573.9481   -45734.019   0.16001063 
    3800    301.28807   -1013.0911    133346.44   -42089.518    3677.6479   -45767.166   0.15692431 
    4000    296.84428    -909.0596    133161.43   -42087.046    3623.4051   -45710.451    0.1545038 
    4200    296.69568   -967.75927    133295.36   -42101.518    3621.5913   -45723.109   0.15091283 
    4400    298.13116   -1125.9156    133469.89   -42077.182    3639.1133   -45716.295   0.16132353 
    4600     299.0356   -982.50031    133301.71   -42066.489    3650.1533   -45716.642   0.16054372 
    4800    295.66072   -809.03348    133158.06   -42062.622    3608.9581    -45671.58   0.15544763 
    5000     297.6012   -1080.8343    133412.38   -42052.757    3632.6445   -45685.402     0.157803 
    5200    294.48976   -1215.6838    133526.14   -42050.291    3594.6648   -45644.955   0.16339128 
    5400     297.5211   -844.92085    133198.14   -42015.342    3631.6667   -45647.009   0.15717171 
    5600    303.63399   -814.56673    133134.36   -42001.278    3706.2832   -45707.562   0.15934299 
    5800    300.97531   -1167.4934     133499.1   -41985.205    3673.8301   -45659.035   0.16325605 
    6000     302.9911   -1178.8373     133532.2    -41970.88    3698.4357   -45669.315   0.16614397 
    6200     304.0622   -828.52162    133162.89   -41969.073    3711.5101   -45680.583   0.15833982 
    6400    302.82409   -852.02697    133196.17   -41937.953    3696.3972    -45634.35   0.15716731 
    6600    300.47892   -1245.2801    133575.09   -41971.284    3667.7711   -45639.055   0.16940261 
    6800    298.54565   -1087.6654    133431.57   -42007.687    3644.1727   -45651.859   0.16004456 
    7000    301.08882   -715.95156    133007.52   -42024.545    3675.2157   -45699.761   0.15601998 
    7200    303.16464   -852.57195    133235.69   -41968.425    3700.5541   -45668.979   0.16045856 
    7400    300.34681   -1286.7416    133701.28   -41942.623    3666.1585   -45608.781   0.16490114 
    7600    305.48791   -1109.2028    133414.22   -41985.234    3728.9128   -45714.147   0.16204499 
    7800    298.10005   -669.13352    132930.64   -42017.779    3638.7335   -45656.512   0.15579571 
    8000    294.54523   -989.97122    133283.03   -41976.003    3595.3419   -45571.345   0.16476293 
    8200    299.70881   -1344.0524    133732.06   -42004.113    3658.3707   -45662.484   0.17011409 
    8400     297.5121   -1043.6442    133293.27   -42040.645    3631.5569   -45672.202   0.16399225 
    8600    303.04621   -620.68129    132857.81   -42002.394    3699.1084   -45701.502   0.15622302 
    8800     303.5915   -1012.0579    133372.88   -41935.978    3705.7645   -45641.742   0.16129195 
    9000    305.18899   -1402.7265    133773.81   -41907.401    3725.2642   -45632.665   0.17082122 
    9200    300.99256   -901.03267     133232.1   -41899.894    3674.0408   -45573.934   0.17012952 
    9400    302.95988   -677.40259     132938.3    -41952.47    3698.0547   -45650.525   0.16086324 
    9600    303.67081   -1136.5719    133479.23   -41935.215    3706.7326   -45641.947   0.15964707 
    9800    300.91796   -1314.3806    133687.34   -41945.695    3673.1301   -45618.825   0.15981967 
   10000    305.32113   -878.64184    133118.28   -41950.534    3726.8771   -45677.411     0.159368 
   10200    301.10576    -753.1538    132986.53   -41951.263    3675.4225   -45626.686    0.1683451 
   10400    304.29439   -1206.0541    133547.77    -41928.83    3714.3443   -45643.174   0.17338263 
   10600    302.69158   -1221.2046    133580.88   -41908.121    3694.7797     -45602.9   0.16675958 
   10800    298.29354   -810.60447    133037.29   -41945.969    3641.0954   -45587.065   0.15781168 
   11000    300.74636   -795.85733    133046.97   -41987.333    3671.0355   -45658.369   0.15804093 
   11200    301.76881   -1202.1638    133542.36   -41995.351     3683.516   -45678.867     0.170281 
   11400    300.07994   -1128.4531    133470.68   -42021.017    3662.9009   -45683.918   0.16682853 
   11600    298.53758   -817.82652    133087.02   -41997.214    3644.0743   -45641.288   0.15844653 
   11800    295.81603   -939.27643    133180.35   -42067.986    3610.8539    -45678.84   0.16207496 
   12000    295.60849   -1109.2262    133459.75   -42061.882    3608.3206   -45670.203   0.15913544 
   12200     297.3137   -1039.5349    133329.41   -42043.145    3629.1351    -45672.28   0.16124201 
   12400    298.10433   -854.70889    133105.75   -42014.597    3638.7858   -45653.382   0.16408283 
   12600    298.65389   -1001.1689    133255.41   -42023.984    3645.4939   -45669.478   0.16528953 
   12800    295.74506   -1131.4899    133427.46   -42029.236    3609.9876   -45639.224   0.16682184 
   13000    301.45918    -1007.433    133276.06   -42011.804    3679.7365   -45691.541   0.16383041 
   13200    297.95591   -891.59907    133163.72   -41985.448    3636.9741   -45622.422   0.15956789 
   13400    300.69392    -988.3968    133321.21   -42002.196    3670.3954   -45672.591   0.15970523 
   13600    299.54651   -1106.2348    133403.27   -41997.771    3656.3897   -45654.161   0.16465434 
   13800    292.20889    -1017.059    133252.39    -41992.04    3566.8237   -45558.863   0.17066167 
   14000     297.9647   -886.25795    133172.97   -42008.967    3637.0815   -45646.049   0.16374308 
   14200    301.20804   -1019.7269    133354.11   -42025.259     3676.671    -45701.93   0.15430873 
   14400    297.01446   -1077.8374    133404.02    -42053.48    3625.4824   -45678.963     0.160739 
   14600    293.42871   -990.00441    133228.24   -42049.269    3581.7132   -45630.982   0.16583832 
   14800    300.52037   -919.72071     133180.4    -42027.47    3668.2771   -45695.747   0.17159072 
   15000    299.29431   -1061.8888     133347.9    -42076.39    3653.3112   -45729.702   0.16539672 
   15200    296.01876   -1087.5292    133358.79   -42132.757    3613.3285   -45746.086   0.15637713 
   15400     293.9989   -929.53375    133167.37   -42141.263    3588.6733   -45729.936   0.15447607 
   15600     289.4428   -881.53753    133161.45    -42184.57    3533.0596   -45717.629   0.15548452 
   15800    294.36167   -1042.3499    133334.76   -42127.431    3593.1013   -45720.533   0.16341567 
   16000    289.93518   -1093.2249    133339.43   -42115.062    3539.0698   -45654.132   0.16682974 
   16200    297.80051   -886.22963    133172.97   -42067.974    3635.0773   -45703.051    0.1549647 
   16400    299.86495    -933.8562    133238.87   -42064.079    3660.2766   -45724.355   0.15459848 
   16600    295.94687    -1120.567    133404.92   -42079.282    3612.4509   -45691.733   0.15988893 
   16800    296.90215   -987.82512    133286.03   -42036.456    3624.1115   -45660.567   0.16062599 
   17000    301.72294   -872.21879    133147.15   -42063.221    3682.9561   -45746.177   0.15854417 
   17200    299.34213   -1051.1335    133337.97    -42044.01    3653.8949   -45697.905   0.16045412 
   17400    295.13587   -1161.4671    133459.88   -42086.856    3602.5515   -45689.407   0.16294899 
   17600    293.66063   -939.75104    133178.24    -42128.48    3584.5442   -45713.024   0.16107456 
   17800    294.47167   -853.19903    133090.73   -42147.797     3594.444   -45742.241   0.15100869 
   18000    294.28128   -1057.5542    133407.36   -42173.302      3592.12   -45765.422   0.15427729 
   18200    289.80028   -1214.6845     133480.1   -42205.295    3537.4231   -45742.718   0.16249538 
   18400    295.00709   -828.76934    133109.58   -42226.754    3600.9796   -45827.733   0.15190109 
   18600    292.35865   -824.66119    133093.87   -42187.922    3568.6517   -45756.574   0.15133667 
   18800    293.52048   -1153.8814    133547.69   -42123.158    3582.8334   -45705.991   0.15441841 
   19000    292.51317   -1201.7461    133545.35   -42138.501    3570.5378   -45709.039   0.15758839 
   19200    293.05353   -781.92435     133043.1   -42126.571    3577.1336   -45703.705   0.15794635 
   19400    296.42913    -837.2875    133134.93   -42124.251    3618.3376   -45742.589   0.15916316 
   19600    295.21008   -1271.1506    133681.36   -42136.835    3603.4574   -45740.292     0.161138 
   19800    298.07649   -1095.6677    133476.89   -42133.618     3638.446   -45772.064   0.15065091 
   20000    291.91542   -721.81797    132959.48   -42138.219    3563.2414    -45701.46   0.15189712 
   20200     292.2939    -925.5035    133212.21   -42162.418    3567.8613   -45730.279   0.15670667 
   20400    294.81456   -1274.0094     133676.6   -42131.175    3598.6295   -45729.804   0.16574599 
   20600    288.23709   -1079.2386    133390.95   -42137.427    3518.3422    -45655.77    0.1641597 
   20800    296.17436   -758.01153    132989.06    -42129.73    3615.2277   -45744.958     0.152999 
   21000      293.011   -985.34306    133336.65   -42127.459    3576.6146   -45704.074   0.15130617 
   21200    297.52321   -1285.1043    133679.37   -42109.206    3631.6924   -45740.898   0.15932947 
   21400    298.05905   -944.40965    133275.21   -42112.964    3638.2331   -45751.197   0.15714157 
   21600    296.53893   -718.20547     133003.4   -42072.842    3619.6779    -45692.52   0.15620379 
   21800    294.82426   -1075.4922    133463.54   -42023.291    3598.7479   -45622.039   0.15735744 
   22000    303.12808   -1290.3648    133687.13    -42028.12    3700.1078   -45728.228   0.15849158 
   22200    296.62797   -910.13881    133211.04   -41991.263    3620.7648   -45612.028   0.15936453 
   22400     303.7568   -745.70201    133079.73    -41973.01    3707.7822   -45680.792   0.15558568 
   22600    303.44236   -1132.6326    133558.88   -41971.241    3703.9441   -45675.185   0.15965834 
   22800     293.0767   -1217.6334    133597.46   -42015.379    3577.4165   -45592.796   0.16249553 
   23000    298.44035   -838.28256    133133.05   -42036.418    3642.8875   -45679.306   0.15771807 
   23200    296.27415   -847.42329     133135.9   -42021.555    3616.4458   -45638.001   0.15791648 
   23400    297.17226   -1170.0095    133570.38   -42028.859    3627.4085   -45656.268   0.16270284 
   23600    296.74515   -1141.3451    133498.22   -42039.707    3622.1951   -45661.903   0.16016869 
   23800     298.1626   -766.55013    133080.69   -41992.995     3639.497   -45632.492   0.15604006 
   24000    300.86219   -881.27675    133203.19   -42021.712    3672.4494   -45694.162   0.15393841 
   24200    301.98791   -1233.6392    133602.62    -42004.55    3686.1904    -45690.74   0.16228265 
   24400    294.01364   -1104.2262    133430.25    -42009.22    3588.8531   -45598.073   0.16453443 
   24600    301.59823   -799.98227    133049.33   -42018.272    3681.4338   -45699.706   0.15874944 
   24800    303.33193   -955.38705     133285.6   -41938.585    3702.5961   -45641.181    0.1646601 
   25000    304.21162   -1245.5187    133646.04    -41943.55     3713.334   -45656.884   0.16311333 
   25200     301.3846   -988.85312    133375.71    -41971.79    3678.8261   -45650.616    0.1621537 
   25400    298.43003   -749.73529    133074.72   -42030.666    3642.7614   -45673.428   0.15002971 
   25600    296.67187   -1018.2325    133365.05   -42051.117    3621.3006   -45672.418   0.16234802 
   25800    298.89504   -1219.0692    133622.23   -42018.572    3648.4376    -45667.01   0.16041783 
   26000    300.80349   -937.65807    133326.38   -42006.251    3671.7328   -45677.984   0.15635394 
   26200    301.53267   -772.49361    133129.37   -42041.301    3680.6335   -45721.934   0.15104993 
   26400    299.68294   -1023.1171     133398.7   -42060.324     3658.055   -45718.379   0.14982595 
   26600    296.61147   -1126.7193    133540.31   -42066.166    3620.5633   -45686.729   0.15234946 
   26800    300.04247    -953.5343    133297.23   -42073.673    3662.4436   -45736.117   0.15255013 
   27000    300.89654   -844.24165     133209.4   -42078.258    3672.8687   -45751.127   0.15396168 
   27200    294.78472   -1059.4125    133416.22   -42070.496    3598.2653   -45668.761   0.15811794 
   27400    298.31401   -1104.0257    133471.51   -42039.505    3641.3452    -45680.85   0.15289419 
   27600     295.6812   -971.22197    133282.47    -42051.06    3609.2081   -45660.268   0.15548558 
   27800    299.23848     -920.296     133219.6   -42038.011    3652.6297    -45690.64   0.15656542 
   28000    299.84852   -1025.3544    133377.48    -42029.45    3660.0761   -45689.526   0.16069298 
   28200    299.51885    -1093.311    133405.92   -42041.803    3656.0521   -45697.856   0.15988222 
   28400    301.12935   -941.14577    133255.13    -42043.79    3675.7105     -45719.5   0.15379646 
   28600    299.12264   -994.31195    133266.78   -42060.581    3651.2157   -45711.796   0.15407912 
   28800    295.59109   -1106.3462    133390.27   -42072.709    3608.1082   -45680.817   0.15826541 
   29000    295.54109   -1019.3988    133347.69    -42115.38    3607.4978   -45722.878    0.1556294 
   29200    293.42746   -961.22379    133240.48   -42151.859     3581.698   -45733.557   0.15296161 
   29400    289.59883   -1020.7654     133269.1   -42151.538    3534.9641   -45686.502   0.15241653 
   29600    300.32179   -1003.8341    133345.03   -42112.442     3665.853   -45778.295   0.15256244 
   29800     301.0173    -1013.513    133321.22   -42037.501    3674.3427   -45711.844   0.15451534 
   30000     303.5888    -921.6783    133245.17   -42025.634    3705.7316   -45731.366   0.15238363 
   30200    300.20564   -1004.1164    133327.19   -42037.107    3664.4353   -45701.542   0.15446521 
   30400    292.50553   -1055.3692     133405.5   -42088.785    3570.4445    -45659.23   0.15463174 
   30600    300.47318   -976.88692    133337.66    -42033.81     3667.701   -45701.511   0.15224363 
   30800    306.18773   -923.25042    133277.18   -41999.473    3737.4551   -45736.928   0.15190871 
   31000    297.36215   -1020.4762    133349.84   -41988.331    3629.7265   -45618.057   0.15741341 
   31200    301.72129   -1064.7287    133384.85   -41991.172    3682.9359   -45674.107   0.15787447 
   31400     303.3854   -932.26816     133293.6   -41987.885    3703.2488   -45691.134   0.15123951 
   31600    291.37703   -981.84246    133263.81   -42047.784    3556.6696   -45604.453   0.16028996 
   31800    300.21617   -1019.4591    133358.55   -42014.812    3664.5638   -45679.376    0.1583293 
   32000    297.92981   -1050.5281    133377.25    -41988.17    3636.6555   -45624.826   0.16132958 
   32200    298.19156   -956.74217    133299.22   -42019.572    3639.8506   -45659.423   0.15631144 
   32400    293.78555   -981.70307    133305.85   -42019.773     3586.069   -45605.842   0.15886814 
   32600    296.15134   -1057.6191    133388.14   -42007.587    3614.9468   -45622.534   0.16150285 
   32800    300.96051   -1066.0581    133370.22   -42000.529    3673.6496   -45674.179   0.16023389 
   33000    303.27174   -927.56532    133292.43   -41992.951    3701.8614   -45694.812    0.1512635 
   33200    304.14402   -950.76324    133333.86   -41992.091    3712.5088   -45704.599    0.1547024 
   33400    303.88019   -1068.6985    133415.32   -41950.293    3709.2884   -45659.582   0.15741606 
   33600    306.69862   -997.76812    133389.27    -41884.41    3743.6912   -45628.101   0.16350637 
   33800    306.31442   -986.01969    133345.46   -41915.854    3739.0016   -45654.855   0.15746097 
   34000    298.94372   -1033.5848    133370.05   -41952.629    3649.0318    -45601.66   0.15676473 
   34200    299.30217   -1002.0101    133390.26   -41992.687    3653.4072   -45646.094   0.15657906 
   34400    294.69651   -1000.6036    133345.91   -42046.889    3597.1886   -45644.078   0.15763748 
   34600    296.96464   -959.55188    133304.97    -42010.38    3624.8742   -45635.254    0.1602398 
   34800    297.32403   -1033.2228    133380.39   -42049.021    3629.2611   -45678.282   0.15784451 
   35000    298.81487   -1063.3164    133377.93   -42081.657    3647.4589   -45729.116   0.15517344 
   35200    298.08977   -963.32937    133242.78   -42076.192    3638.6081     -45714.8   0.15964033 
   35400    299.75819   -934.55723    133266.04   -42044.267    3658.9735    -45703.24   0.15414904 
   35600    295.17303   -1128.2387    133446.88   -42033.396    3603.0051   -45636.401    0.1651506 
   35800    298.97823   -1060.5644    133387.12   -42032.671     3649.453   -45682.124   0.16194805 
   36000    298.32087   -864.00664    133194.33   -42034.513     3641.429   -45675.942   0.15709588 
   36200    295.94767   -961.85865    133287.52   -42046.162    3612.4607   -45658.623   0.15565261 
   36400    298.88381   -1121.0538    133476.71   -42067.233    3648.3005   -45715.534   0.16088139 
   36600    288.87172    -995.0203     133272.1   -42043.568    3526.0887   -45569.656   0.16354074 
   36800    294.22008    -852.5546    133057.87   -42088.507    3591.3731    -45679.88   0.15768168 
   37000    295.68294   -1016.1885    133323.61   -42073.507    3609.2293   -45682.736   0.15430949 
   37200    302.97923   -1182.0765     133550.5   -42032.524    3698.2908   -45730.815   0.15709714 
   37400    300.07522   -988.14235    133234.83   -42028.224    3662.8433   -45691.068   0.15906127 
   37600    304.26683   -762.96001    133053.03   -42056.084    3714.0079   -45770.092   0.14819102 
   37800    298.19508   -1114.6022    133458.92   -42015.651    3639.8935   -45655.544    0.1604079 
   38000    293.26645   -1239.1881    133608.31   -42063.103    3579.7326   -45642.836   0.15695781 
   38200    299.92033   -832.13011    133150.15   -42065.402    3660.9526   -45726.354   0.15366793 
   38400    303.39027   -750.95259    133045.68   -42034.532    3703.3082   -45737.841   0.15342441 
   38600    304.81865   -1196.6654    133555.05   -42026.217    3720.7436   -45746.961   0.15638456 
   38800    296.30785   -1228.2102     133581.6   -42072.744    3616.8572   -45689.601   0.15907442 
   39000    292.35345   -761.84007    133002.82   -42107.175    3568.5882   -45675.763   0.15363312 
   39200    295.87672    -787.0255    133061.83   -42127.337    3611.5946   -45738.931    0.1532651 
   39400    295.01803   -1296.8176    133645.74   -42109.219    3601.1131   -45710.332   0.15859487 
   39600    295.20999   -1181.4324    133499.92   -42178.463    3603.4563   -45781.919   0.15289442 
   39800    292.32555   -643.66806    132910.72   -42175.961    3568.2476   -45744.209   0.14550246 
   40000    289.48329   -883.61638    133165.62   -42190.628    3533.5538   -45724.182   0.15224356 
   40200    295.57574   -1347.0785    133703.47   -42160.636    3607.9208   -45768.557   0.16144616 
   40400    289.28791   -1101.0167    133380.77   -42153.121    3531.1689    -45684.29   0.15388906 
   40600     290.3839   -609.25016     132865.2   -42188.367    3544.5471   -45732.914   0.14491182 
   40800    293.11236   -1010.0513    133256.29    -42199.66    3577.8518   -45777.512   0.14780943 
   41000    292.96073   -1358.1842    133704.83   -42153.909    3576.0009   -45729.909   0.16050604 
   41200    285.31571   -986.00407    133286.64    -42184.32    3482.6826   -45667.002   0.15708467 
   41400    294.19005   -703.18395    132926.12   -42161.899    3591.0065   -45752.905    0.1456024 
   41600    290.99711   -1064.3131    133385.54   -42149.358    3552.0322    -45701.39   0.15012017 
   41800     295.8886   -1271.2344    133651.16   -42140.818    3611.7396   -45752.557   0.15247631 
   42000    297.34126   -905.68497     133201.3     -42126.8    3629.4715   -45756.272   0.15012538 
   42200     293.1682   -765.49936    133030.07   -42151.097    3578.5334    -45729.63   0.14979289 
   42400     293.7701   -1103.2413    133432.13   -42194.155    3585.8803   -45780.035   0.15037686 
   42600    293.23033   -1175.2576     133509.8   -42222.053    3579.2917   -45801.345   0.15210687 
   42800    288.73378   -840.64848    133122.57   -42225.332     3524.405   -45749.737   0.14782657 
   43000    295.78953   -839.69412    133111.97   -42184.267    3610.5304   -45794.797    0.1489659 
   43200    292.09566   -1124.2531    133455.98   -42184.345    3565.4414   -45749.786   0.15342426 
   43400     294.6036   -1071.0116    133446.85   -42171.744    3596.0545   -45767.799   0.15106478 
   43600    294.33942   -907.49198     133181.1   -42175.125    3592.8298   -45767.955    0.1511535 
   43800      294.726   -956.27227    133208.04   -42142.869    3597.5485   -45740.417   0.15518231 
   44000    293.33139   -1101.8888    133408.47   -42160.296    3580.5253   -45740.821    0.1550762 
   44200    292.87676   -1094.1217    133354.19    -42216.44    3574.9759   -45791.416   0.15493873 
   44400    294.16658   -911.58327    133166.66   -42198.055      3590.72   -45788.775   0.15411295 
   44600    293.43348   -992.71753    133241.36   -42127.057    3581.7715   -45708.828    0.1565468 
   44800    300.90874   -1109.1377    133417.77   -42089.009    3673.0176   -45762.027   0.15811567 
   45000    297.29006    -1050.481    133363.64   -42117.526    3628.8465   -45746.373   0.15154336 
   45200    295.03551   -917.97969    133215.75   -42137.539    3601.3265   -45738.865   0.15009131 
   45400    292.81907    -953.8822    133265.15    -42188.09    3574.2717   -45762.362   0.14825919 
   45600    289.93915   -1077.9486    133389.66   -42171.074    3539.1182   -45710.192    0.1530876 
   45800    293.50589   -1029.5346    133331.87    -42143.15    3582.6553   -45725.805   0.15534649 
   46000    296.80088   -914.45844    133228.45   -42141.967    3622.8754   -45764.843   0.14891393 
   46200     288.8244   -1001.6499    133283.76   -42166.071    3525.5112   -45691.582   0.15145205 
   46400    291.06127   -1097.7968    133341.14   -42151.607    3552.8153   -45704.422   0.15444549 
   46600     298.5551    -949.8691    133241.12   -42157.227    3644.2881   -45801.515    0.1498682 
   46800    297.59643   -932.21123    133191.95   -42119.806    3632.5862   -45752.392   0.15562921 
   47000    297.87289   -1014.0452     133305.3   -42100.201    3635.9608   -45736.161   0.15655114 
   47200    303.32817   -1029.4706    133354.98   -42071.969    3702.5501   -45774.519   0.15459015 
   47400    295.40009   -974.40313    133240.07   -42000.794    3605.7767   -45606.571   0.16274142 
   47600    300.76605    -951.9663    133264.25   -41975.534    3671.2758    -45646.81   0.15878774 
   47800    301.04916   -1090.2851     133420.5   -41943.336    3674.7316   -45618.068   0.16651806 
   48000    302.02354   -1047.9732    133419.87   -41949.531    3686.6253   -45636.156   0.16321613 
   48200    301.68597   -1002.8573     133297.5   -41953.093    3682.5048   -45635.598   0.16404691 
   48400    300.92954   -950.69359    133317.68   -41934.201    3673.2715   -45607.472   0.16124271 
   48600    304.22418   -1059.4397    133430.88   -41991.655    3713.4872   -45705.142   0.15894991 
   48800    307.17296   -1012.2784    133360.88    -41939.08    3749.4813   -45688.561   0.16606673 
   49000    298.62025   -907.08458    133296.43   -41914.146    3645.0834   -45559.229   0.16445463 
   49200     296.7278   -1033.6575    133404.83   -41949.585    3621.9833   -45571.568   0.16311274 
   49400    304.87763   -1042.5787     133430.5   -41962.216    3721.4636    -45683.68   0.15566228 
   49600    297.62189   -952.86414    133333.55   -41984.607    3632.8969   -45617.504   0.15512865 
   49800    300.79603   -964.65964    133303.49   -41965.114    3671.6418   -45636.756   0.16268471 
   50000    301.17649   -1057.5625    133410.21   -41962.556    3676.2859   -45638.842   0.16192896 
   50200     301.0731   -1054.0878    133406.61   -41999.055    3675.0239   -45674.079   0.15592299 
   50400    305.16289    -883.0139     133232.4   -42000.799    3724.9455   -45725.744   0.14906136 
   50600    298.15142   -943.02702    133240.52   -42020.763    3639.3606   -45660.124   0.15539779 
   50800    298.27334   -1088.7172       133426   -42026.437    3640.8488   -45667.286   0.16191609 
   51000    304.90805   -1031.7716    133382.76   -41975.609    3721.8348   -45697.444   0.16329527 
   51200    298.49188   -917.13858    133208.12   -42002.269    3643.5164   -45645.785   0.16596505 
   51400    294.04395   -972.20176    133251.25   -41964.497    3589.2231    -45553.72   0.16451756 
   51600    295.05579   -1112.3399    133421.93   -41964.098    3601.5741   -45565.672   0.16398563 
   51800    299.88276    -1005.862    133357.37    -41962.23     3660.494   -45622.724   0.16097875 
   52000    307.25829   -877.27921    133222.47   -41916.228    3750.5229   -45666.751   0.16308975 
   52200    305.57126   -1018.0538    133342.94   -41884.363    3729.9303   -45614.293   0.16762832 
   52400    302.05225   -1136.1512    133486.68   -41868.837    3686.9757   -45555.813   0.16950885 
   52600    297.53482   -1020.5568    133347.88   -41909.113    3631.8342   -45540.947   0.16231121 
   52800    303.40885   -869.36183    133182.85    -41932.09     3703.535   -45635.625   0.15559621 
   53000    302.51947   -1011.1878    133368.53   -41936.789    3692.6788   -45629.468   0.15927926 
   53200    301.89924   -1126.9472    133497.03   -41943.505     3685.108   -45628.613   0.16294399 
   53400    304.53912   -918.41286    133223.43    -41970.29    3717.3316   -45687.622   0.15628267 
   53600    299.69253   -804.75115    133113.04   -42006.086     3658.172   -45664.258   0.15403786 
   53800    298.62533   -1056.5262    133451.44   -41986.265    3645.1454    -45631.41   0.15547124 
   54000    297.83555   -1190.2572    133541.77   -41974.169    3635.5049   -45609.674   0.16224442 
   54200    299.53979   -891.27983    133161.95   -41986.919    3656.3076   -45643.227   0.15872619 
   54400    298.12494   -806.35942    133067.83   -42013.068    3639.0374   -45652.105   0.15728784 
   54600    304.97593   -1114.1176    133462.82   -42001.866    3722.6634   -45724.529   0.16045945 
   54800    299.47025   -1202.3809    133525.05   -41944.108    3655.4588   -45599.567   0.16732672 
   55000    302.59991   -778.33648    133115.68   -41952.369    3693.6607    -45646.03   0.15955556 
   55200    298.56972   -838.85018    133135.68   -41984.457    3644.4666   -45628.923   0.16454058 
   55400    302.42569   -1157.6201    133566.04   -41999.557    3691.5341   -45691.091   0.16340064 
   55600    302.42741   -1139.2895     133495.1    -42034.15    3691.5551   -45725.705   0.16219817 
   55800    299.82214   -777.37583    133019.07    -42014.46    3659.7541   -45674.214    0.1605216 
   56000    301.83871   -833.38183    133143.21   -41998.533    3684.3692   -45682.902   0.15917727 
   56200    302.75501   -1274.7969    133678.08   -42016.693    3695.5539   -45712.247   0.16203979 
   56400    303.25431    -1145.765    133468.65   -42025.209    3701.6486   -45726.857   0.16419143 
   56600    297.35609    -700.9015    132900.93   -42038.162    3629.6525   -45667.815   0.16299588 
   56800    301.86355    -942.9988    133233.62    -41993.51    3684.6725   -45678.182   0.16183681 
   57000    299.27633   -1374.2954    133833.26    -41976.58    3653.0917   -45629.672   0.15938629 
   57200    300.12966   -1077.6216    133406.15   -42020.015    3663.5079   -45683.523   0.15662011 
   57400    299.52911   -597.21488    132814.04   -42049.518    3656.1773   -45705.695   0.15681696 
   57600    299.21262   -1005.9253    133338.23   -42009.529    3652.3141   -45661.843   0.16443472 
   57800    299.43343   -1416.6035    133872.31   -42013.703    3655.0093   -45668.712   0.16745092 
   58000     297.2037   -962.62774    133262.14   -42038.107    3627.7923   -45665.899   0.15662456 
   58200     299.9543   -552.18992    132805.38   -42084.375    3661.3673   -45745.742   0.14625341 
   58400     297.5953   -1129.6425    133423.92   -42071.323    3632.5724   -45703.895   0.16308147 
   58600    294.56362   -1372.4646    133731.27    -42045.28    3595.5664   -45640.846   0.17178603 
   58800    297.99019   -881.25028    133150.94   -42086.477    3637.3926   -45723.869   0.15984386 
   59000    293.17771   -730.59934    132952.03   -42114.339    3578.6494   -45692.988   0.15890884 
   59200    294.41148   -1101.9611    133442.13   -42107.678    3593.7093   -45701.388   0.15965297 
   59400    293.03587   -1167.0248    133510.07   -42050.951     3576.918   -45627.869    0.1669707 
   59600    294.33457    -855.7343    133141.78   -42052.876    3592.7706   -45645.647   0.16529608 
   59800    298.99593   -917.89997    133158.95   -42039.156     3649.669   -45688.825    0.1707852 
   60000    297.46215   -1089.1108    133417.13   -42023.187    3630.9471   -45654.134   0.16410698 
   60200    297.47972   -1053.5949    133350.57   -41997.937    3631.1615   -45629.098   0.16449862 
   60400    303.13425   -843.17975    133184.22   -41971.046    3700.1831   -45671.229   0.15875291 
   60600    299.39755    -1043.125    133324.65    -42008.61    3654.5714   -45663.182   0.16804365 
   60800    299.21954   -1091.8904    133407.25   -41948.629    3652.3985   -45601.027   0.17103017 
   61000     301.0761   -1006.6879    133257.24   -41990.564    3675.0605   -45665.625   0.16671392 
   61200     305.1948   -916.89702     133177.5   -41996.321     3725.335   -45721.656   0.15884242 
   61400    299.23802    -1002.198     133305.4   -41991.688    3652.6241   -45644.312   0.15998805 
   61600    299.37387    -1054.708    133365.95   -41982.326    3654.2824   -45636.609   0.16076526 
   61800    304.13709   -962.21231    133244.64   -41984.287    3712.4242   -45696.712   0.16469549 
   62000    302.01293   -942.10964    133229.99   -42000.726    3686.4958   -45687.222   0.16434036 
   62200    298.55216   -1035.2953    133362.46   -42003.534    3644.2522   -45647.786   0.16262176 
   62400    303.49262   -1068.1498    133365.38   -41971.558    3704.5575   -45676.116   0.16371816 
   62600     302.2184     -934.498     133259.2   -41996.276    3689.0038    -45685.28   0.15542821 
   62800    301.70883   -957.30832    133251.44   -41966.311    3682.7839   -45649.095   0.16483659 
   63000    299.92665   -1061.9794    133350.12   -41938.137    3661.0298   -45599.167   0.17297518 
   63200    305.85632    -1084.278       133354   -41943.341    3733.4098    -45676.75   0.17405109 
   63400    298.02381   -981.43216    133272.75   -41902.522     3637.803   -45540.325    0.1720124 
   63600    303.79669   -980.17634    133309.96   -41881.935    3708.2691   -45590.204   0.16151552 
   63800    307.38679   -1040.1506    133383.48   -41907.955    3752.0914   -45660.046   0.16428625 
   64000    299.73769   -994.69588    133349.96   -41912.929    3658.7233   -45571.652   0.16965446 
   64200    301.72381   -962.79217    133289.25   -41919.419    3682.9667   -45602.386   0.17242614 
   64400     304.8898   -954.91703    133343.76   -41902.636    3721.6121   -45624.248     0.166756 
   64600    302.76763   -1070.1599    133418.39   -41954.406     3695.708   -45650.114   0.15887819 
   64800    299.83531   -982.91867    133287.32   -41968.013    3659.9149   -45627.928   0.15865069 
   65000    300.55742   -951.83128    133212.83   -41966.199    3668.7292   -45634.929    0.1626466 
   65200    304.77151   -1018.5277    133378.26   -41987.013    3720.1682   -45707.182   0.16408528 
   65400    299.95586   -1087.1505    133450.01   -42004.962    3661.3863   -45666.348   0.16342217 
   65600    302.04377   -907.02825    133233.34   -42035.959    3686.8722   -45722.831   0.15168899 
   65800    298.13463   -913.38506    133216.29   -42008.946    3639.1557   -45648.102   0.15618008 
   66000    299.95444   -1134.9877    133484.37   -42002.218     3661.369   -45663.587   0.15919352 
   66200    297.76564   -1076.6844    133475.39   -42034.915    3634.6516   -45669.567   0.15948718 
   66400    301.78683   -858.78377    133162.25   -42035.092    3683.7359   -45718.828   0.15832256 
   66600    301.13602   -874.44864    133207.97    -42050.33    3675.7919   -45726.122   0.15527736 
   66800    302.58598   -1159.8807    133532.82   -42020.922    3693.4907   -45714.413   0.15916517 
   67000    300.43849   -1083.3441    133417.48   -42041.829    3667.2775   -45709.107   0.15534971 
   67200    293.98439    -814.3318    133051.98   -42068.334    3588.4961   -45656.831   0.15970366 
   67400     300.8945   -994.47953     133234.4   -42100.437    3672.8438   -45773.281   0.16154935 
   67600    300.11207   -1218.0277    133577.68   -42052.306    3663.2932   -45715.599   0.16741357 
   67800    302.87442   -1003.5308    133348.01   -42004.764    3697.0115   -45701.776   0.16223322 
   68000    300.29963   -774.62674    133017.68   -42005.379    3665.5825   -45670.962   0.15435307 
   68200      301.665   -981.55856    133287.38    -42072.71    3682.2488   -45754.959   0.15489936 
   68400    294.54989   -1252.5863    133574.37   -42012.774    3595.3988   -45608.173   0.16865752 
   68600    303.76603   -929.52769    133268.67   -42003.997    3707.8949   -45711.892   0.16207182 
   68800    298.85379   -746.68275     133037.9   -41974.497     3647.934   -45622.431   0.16013541 
   69000    299.01213   -1115.0047    133386.91   -42014.169    3649.8668   -45664.036   0.15525742 
   69200     299.8101   -1248.2862     133565.4   -42015.632    3659.6071   -45675.239    0.1596784 
   69400    296.92818   -885.02893    133130.42   -42060.541    3624.4293    -45684.97   0.16140876 
   69600     295.7461   -737.83027    132979.01   -42075.426    3610.0003   -45685.427   0.15901752 
   69800    291.80485   -1135.2005    133453.85   -42036.269    3561.8917    -45598.16   0.16599869 
   70000    298.39241   -1248.1035    133604.13   -41992.441    3642.3023   -45634.744   0.15820991 
   70200    299.86115   -872.32947    133115.52    -41997.84    3660.2303   -45658.071   0.15954954 
   70400    302.87468   -778.85875    133030.42   -42006.039    3697.0147   -45703.054   0.15992553 
   70600    303.04328   -1191.6016    133553.58   -41971.991    3699.0727   -45671.064    0.1634931 
   70800    293.25654   -1245.7235    133626.26   -41992.009    3579.6116    -45571.62   0.16638001 
   71000    299.99639   -801.10813    133114.36   -42043.725     3661.881   -45705.606    0.1553918 
   71200    295.77777   -801.34046     133092.6   -42050.104    3610.3868   -45660.491   0.15833471 
   71400    298.75302   -1191.3624     133583.4   -42014.454     3646.704   -45661.158   0.16480232 
   71600    300.51865   -1194.1538    133580.72   -41992.549     3668.256   -45660.805   0.16186443 
   71800    303.37817   -819.43497    133106.91   -42013.065    3703.1605   -45716.226   0.16059535 
   72000    292.25511   -862.41812    133142.97   -42045.031    3567.3878   -45612.419    0.1575802 
   72200    293.85358   -1262.2903    133585.32   -42070.834    3586.8994   -45657.734   0.16394578 
   72400     296.9716   -1140.1289    133478.48   -42049.269    3624.9593   -45674.228    0.1593461 
   72600    299.35308   -751.07258    133048.76   -42032.208    3654.0285   -45686.237   0.15366275 
   72800    297.13005   -932.33061    133237.24   -42098.975    3626.8933   -45725.868    0.1547988 
   73000    293.32523   -1269.8307    133642.51   -42095.816    3580.4501   -45676.266   0.16047649 
   73200    294.14581   -1024.5633    133380.73   -42120.386    3590.4665   -45710.852   0.15445323 
   73400    297.71385   -672.71263    132946.37   -42106.715    3634.0194   -45740.735   0.14813677 
   73600    298.80745   -943.13832    133303.18   -42089.097    3647.3684   -45736.465   0.14972966 
   73800    296.81975   -1416.4382    133797.26    -42081.75    3623.1057   -45704.856   0.16254607 
   74000    299.89232   -959.16997    133319.28   -42124.761    3660.6107   -45785.372   0.15500488 
   74200    298.84883   -538.05524    132780.26   -42137.333    3647.8735   -45785.207   0.14921916 
   74400    291.08199   -1105.8536    133383.13   -42099.043    3553.0682   -45652.112   0.15714507 
   74600    289.17771   -1524.9633    133912.12   -42097.813    3529.8238   -45627.637   0.16210393 
   74800    296.94392   -860.00293    133140.52   -42125.083    3624.6214   -45749.705   0.15365763 
   75000    299.07387   -429.11533    132684.75   -42098.056    3650.6204   -45748.677   0.15439809 
   75200    288.99313   -1307.5596    133671.81     -42062.5    3527.5707   -45590.071   0.16865809 
   75400    295.61037   -1526.3183    133995.98   -42050.888    3608.3435   -45659.232   0.16279082 
   75600     302.4515   -649.14356    132929.81   -42041.772    3691.8492   -45733.621   0.15073731 
   75800    302.83065   -512.13298    132769.74   -42016.876    3696.4772   -45713.353   0.15472622 
   76000    298.87136   -1398.3516    133793.89   -41997.889    3648.1485   -45646.038   0.17603234 
   76200    297.87782   -1350.8241    133770.24   -42020.004    3636.0209   -45656.025   0.16683855 
   76400    304.70201   -543.50899    132868.11   -42005.775    3719.3199   -45725.094   0.14991476 
   76600    297.21515   -762.00474    133010.52    -41992.65     3627.932   -45620.582   0.15686282 
   76800    303.29621    -1248.892    133718.31   -41976.076      3702.16   -45678.236    0.1629059 
   77000    296.38188   -1226.6238    133568.94   -41987.686    3617.7608   -45605.447   0.16949918 
   77200    296.96086   -769.96831    133016.45   -42042.412    3624.8282    -45667.24   0.15511126 
   77400    305.68691   -851.23564    133177.37   -42018.942    3731.3419   -45750.284   0.15080135 
   77600    295.02024   -1275.0713    133608.41   -42039.581    3601.1401   -45640.721   0.15887646 
   77800    294.89704   -1087.5617    133435.58   -42051.329    3599.6363   -45650.965   0.16131561 
   78000    301.77336   -784.63297    133113.53   -42059.828    3683.5715   -45743.399   0.14963495 
   78200    293.30828   -1014.5897    133291.23   -42045.655    3580.2433   -45625.898   0.15687174 
   78400    292.19842   -1139.6514    133519.06   -42070.205    3566.6958   -45636.901   0.15951232 
   78600    297.85441   -1014.4176    133295.24   -42079.714    3635.7352   -45715.449    0.1585567 
   78800    301.43453   -839.67791    133117.98   -42061.759    3679.4356   -45741.195    0.1552789 
   79000    295.39712   -1034.2828    133371.43    -42052.25    3605.7404   -45657.991    0.1579725 
   79200    295.72722   -1183.1391    133521.56   -42053.588    3609.7698   -45663.357   0.15666377 
   79400    296.61831   -940.59865     133253.3   -42011.299    3620.6469   -45631.946    0.1636872 
   79600    298.74262   -828.18255    133118.42   -42010.641    3646.5771   -45657.218   0.16146412 
   79800    298.95182   -1079.5803     133402.9   -42027.546    3649.1307   -45676.677   0.16177805 
   80000    298.82396   -1161.7052    133495.94   -42005.181    3647.5699   -45652.751   0.16006044 
   80200    304.70071   -925.76103    133211.41   -41964.561     3719.304   -45683.865   0.15761587 
   80400    306.23662    -870.3636    133162.35   -41951.882     3738.052   -45689.934   0.16254111 
   80600    300.87858   -1102.5611    133462.17   -41966.064    3672.6495   -45638.713   0.16697248 
   80800    302.13639   -1142.2991    133511.13    -41914.23    3688.0028   -45602.233    0.1624001 
   81000    302.26873   -941.87533    133204.84    -41972.36    3689.6182   -45661.979    0.1547539 
   81200    301.97635   -885.23571    133127.34   -41953.375    3686.0492   -45639.425   0.15762327 
   81400    304.22829   -1080.2168    133443.22   -41919.075    3713.5374   -45632.613   0.16781946 
   81600    298.50336   -1134.6236    133508.23    -41934.72    3643.6566   -45578.377   0.16625835 
   81800    300.18231   -893.69811    133184.48   -41947.314    3664.1505   -45611.464   0.16242007 
   82000    305.63898    -830.9709    133167.13   -41919.329    3730.7568   -45650.085   0.15217003 
   82200     300.1274   -1161.6989     133553.6   -41957.929    3663.4803   -45621.409   0.15799203 
   82400    299.94373   -1142.6932    133499.32   -41967.697    3661.2383   -45628.935   0.16398894 
   82600    300.92551   -804.87444    133068.83   -42000.838    3673.2223   -45674.061    0.1620668 
   82800    302.11068   -899.25208    133143.52     -42040.7     3687.689   -45728.389   0.15861912 
   83000    300.87322   -1252.5631    133580.04   -42020.864     3672.584   -45693.448   0.16019895 
   83200    297.84997   -1125.3315    133442.73   -42037.142     3635.681   -45672.823   0.15993922 
   83400    295.14409    -701.9503    132972.21   -42069.968    3602.6518   -45672.619   0.15801644 
   83600    298.92835   -888.55561     133211.2   -42080.618    3648.8441   -45729.462   0.15921434 
   83800    295.64323   -1364.8962    133734.77   -42018.443    3608.7446   -45627.187   0.16851126 
   84000    298.40925    -1061.133    133370.32   -42051.401    3642.5077   -45693.909   0.16146687 
   84200    300.47419   -555.01399    132745.93    -42041.69    3667.7133   -45709.404   0.15400989 
   84400    296.14266    -939.2975     133262.4   -42053.917    3614.8408   -45668.757   0.16118426 
   84600    297.55477   -1497.2174    133940.05   -42031.804    3632.0777   -45663.881   0.16867411 
   84800    303.43773   -917.58177    133272.92   -42060.412    3703.8875     -45764.3   0.15427399 
   85000    302.29588   -436.61164     132647.7   -42027.192    3689.9496   -45717.141   0.15672941 
   85200    301.10665   -1135.5771    133484.22    -41988.52    3675.4334   -45663.953   0.16679174 
   85400    298.28039   -1551.6197    134013.67    -41957.51    3640.9349   -45598.445   0.17285626 
   85600    299.81418   -824.55797    133116.85   -41981.353     3659.657    -45641.01   0.15924234 
   85800    308.06555   -512.05974     132743.2    -41991.89    3760.3767   -45752.267   0.15461977 
   86000    304.12699   -1187.2285    133573.35   -41943.645     3712.301   -45655.946   0.16794585 
   86200    296.71922   -1461.0639    133796.46   -41948.695    3621.8786   -45570.574   0.17856161 
   86400    301.28762   -841.00074    133088.49   -41956.854    3677.6424   -45634.496   0.16329043 
   86600    301.05152   -748.04589    132973.12   -41942.404    3674.7604   -45617.164   0.16190068 
   86800    299.95868   -1202.4878    133494.02   -41974.477    3661.4208   -45635.898   0.16699182 
   87000      299.906   -1150.9596     133495.9   -41990.801    3660.7777   -45651.579   0.16827021 
   87200    301.22687   -810.42866    133100.79   -41973.915    3676.9009   -45650.816    0.1644621 
   87400    301.44277   -899.19016    133154.05   -41943.319    3679.5362   -45622.855   0.16568921 
   87600    297.26282   -1139.9039    133442.38   -41987.952     3628.514   -45616.466   0.16286008 
   87800     298.1585   -1068.5271    133355.54   -42002.701    3639.4471   -45642.148   0.16360991 
   88000    302.59339   -791.45099    133082.17   -41964.827    3693.5811   -45658.408    0.1643938 
   88200    298.87616   -980.46241    133225.45   -41987.319    3648.2071   -45635.526   0.16792284 
   88400    306.26061   -1141.6077    133447.61   -41972.516    3738.3447   -45710.861    0.1628491 
   88600     298.1241    -1036.835     133291.8   -41993.299    3639.0272   -45632.326   0.16030562 
   88800    297.39722   -857.41532    133103.58   -41992.814    3630.1545   -45622.968   0.16049325 
   89000    304.71589   -986.27756    133292.69   -42005.049    3719.4893   -45724.538   0.16358223 
   89200    300.90183   -1101.1552    133448.03   -41975.834    3672.9332   -45648.768    0.1635955 
   89400    298.42018   -957.09254    133241.36   -41946.943    3642.6412   -45589.584   0.16212922 
   89600    303.39074     -848.185    133138.18   -41978.652    3703.3139   -45681.966   0.15293737 
   89800    299.81611   -1058.9107     133399.8    -41994.56    3659.6805   -45654.241   0.16560681 
   90000     296.0709   -1183.9552    133454.48   -42007.477    3613.9649   -45621.442   0.17217893 
   90200    302.95871   -847.51989    133177.75    -42054.48    3698.0404   -45752.521   0.15392448 
   90400    299.16665   -843.58665     133149.4   -42082.367     3651.753    -45734.12   0.15122714 
   90600    295.14801   -1131.4117    133457.42   -42063.984    3602.6998   -45666.684   0.16020983 
   90800     302.7413   -1141.9742    133482.83   -42079.464    3695.3866    -45774.85   0.16058281 
   91000    298.05025   -876.45115     133157.8   -42083.023    3638.1257   -45721.148   0.15721502 
   91200     298.2105   -897.88494    133163.05   -42096.889    3640.0817    -45736.97   0.15674241 
   91400    294.53556   -1170.6707    133514.52   -42084.237     3595.224   -45679.461   0.15982907 
   91600    297.40971   -1115.9465    133450.21   -42092.253    3630.3069    -45722.56   0.15888211 
   91800    299.18402   -789.92657    133067.17   -42071.146     3651.965   -45723.111   0.15731332 
   92000    291.41407   -898.48588    133192.46   -42083.977    3557.1217   -45641.099   0.15888996 
   92200    295.21576   -1207.7502    133590.59   -42098.476    3603.5267   -45702.003   0.16105082 
   92400    291.07435   -1083.0109    133432.71   -42055.739     3552.975   -45608.714   0.16471713 
   92600    293.15815   -834.56803     133055.6    -42116.12    3578.4107   -45694.531   0.16270352 
   92800    301.88901   -943.23629    133220.69   -42090.684    3684.9832   -45775.667   0.15511939 
   93000     294.9293   -1252.2732    133626.68   -42013.882      3600.03   -45613.912   0.16090232 
   93200     300.0292   -1028.5345    133428.95   -42018.629    3662.2816   -45680.911   0.15816249 
   93400    293.61539   -696.94941    132975.35   -42023.756     3583.992   -45607.748   0.16352469 
   93600    300.23725   -919.74742    133231.65   -42003.525    3664.8211   -45668.346   0.16815538 
   93800    303.43537   -1358.7445    133721.62   -41995.044    3703.8587   -45698.902   0.16631836 
   94000    302.04347   -1026.6836    133328.17   -42004.145    3686.8686   -45691.014   0.16126839 
   94200    298.58866   -625.93196    132802.87   -42087.927    3644.6978   -45732.624   0.15558318 
   94400    296.47475   -1025.7294    133310.05   -42067.726    3618.8945    -45686.62   0.16561741 
   94600    294.91273   -1481.3207    133824.43   -42051.447    3599.8278   -45651.275   0.17330816 
   94800    295.63167    -945.6466    133183.89       -42118    3608.6035   -45726.604   0.15844717 
   95000    293.58903   -540.07062    132718.81   -42131.072    3583.6701   -45714.742   0.15450607 
   95200    294.00841    -1116.356    133435.73   -42123.133    3588.7893   -45711.922   0.15976424 
   95400    294.68167    -1468.949    133836.44   -42132.342    3597.0074   -45729.349   0.17362497 
   95600    294.32753     -836.514    133063.96   -42102.602    3592.6846   -45695.287   0.16128263 
   95800    294.85266   -594.09322    132819.44   -42071.962    3599.0946   -45671.057    0.1582216 
   96000    298.11024   -1228.3107    133594.04   -42059.362    3638.8579    -45698.22   0.16170825 
   96200    296.91939   -1359.8593    133724.48   -42083.988    3624.3219    -45708.31   0.16516881 
   96400    299.20009   -761.06002     132993.2    -42090.42    3652.1612   -45742.581   0.15544905 
   96600    296.27403    -749.6884    132977.06   -42104.236    3616.4444   -45720.681   0.15803809 
   96800    289.55879   -1254.9015    133571.36   -42146.642    3534.4754   -45681.117   0.16640899 
   97000    293.78444    -1193.295    133475.63   -42133.195    3586.0554   -45719.251   0.15845052 
   97200        290.7   -778.34173    133008.69   -42130.239    3548.4055   -45678.644   0.15884371 
   97400    297.64459   -887.78132    133134.12   -42086.171     3633.174   -45719.345   0.15813202 
   97600    292.42208   -1179.1679    133477.57   -42054.388    3569.4259   -45623.814   0.16414674 
   97800    299.46848   -1052.1903    133378.22   -42051.029    3655.4372   -45706.467   0.15894973 
   98000    303.08717   -839.52143    133134.37   -42028.564    3699.6084   -45728.172   0.15450863 
   98200    298.68531   -993.45089    133249.38   -42038.547    3645.8775   -45684.424   0.16082552 
   98400    301.35556   -1117.2019    133446.18   -41966.644    3678.4716   -45645.115    0.1630627 
   98600    294.93743   -1051.8356    133341.55   -42013.679    3600.1293   -45613.809   0.16190614 
   98800    301.05745   -846.89911    133145.08   -41981.002    3674.8328   -45655.834   0.15737914 
   99000     303.8152   -988.83691    133275.35   -41983.016    3708.4951   -45691.511   0.16199255 
   99200      301.947   -1129.7575    133452.09   -42046.979     3685.691    -45732.67   0.16232955 
   99400    293.84305   -987.68013    133258.21   -42136.178    3586.7709   -45722.948   0.15602625 
   99600     298.6079   -872.92082    133082.65    -42161.94    3644.9326   -45806.873   0.15266163 
   99800    295.58775   -1012.9935    133315.23   -42123.722    3608.0674   -45731.789   0.15517167 
  100000     296.9268    -1119.077    133488.12   -42128.162    3624.4124   -45752.574   0.15710499 
  100200    292.82698   -951.72621    133268.44   -42093.719    3574.3683   -45668.087   0.16118742 
  100400     296.8498   -844.10031    133144.58   -42075.848    3623.4725   -45699.321   0.15432981 
  100600    299.45951   -1067.9817    133390.89   -42030.132    3655.3277    -45685.46   0.15453664 
  100800    295.78341   -1163.1703    133533.92   -42057.772    3610.4556   -45668.228   0.15722083 
  101000    303.73318   -909.27743    133285.83   -42054.011    3707.4938   -45761.505   0.15598793 
  101200    298.34515   -875.94237    133181.38   -42021.967    3641.7254   -45663.693     0.159887 
  101400    296.18892   -1062.9984    133446.33   -42039.238    3615.4056   -45654.644   0.15176582 
  101600    297.49767   -1124.3033    133502.01   -42047.555    3631.3806   -45678.935   0.15545801 
  101800    299.40542   -916.85004    133181.25   -42022.155    3654.6674   -45676.823   0.15582133 
  102000    293.93051   -905.63875    133133.79   -42033.809    3587.8384   -45621.648   0.15986953 
  102200    299.47677   -1137.7754    133464.23   -42012.647    3655.5384   -45668.185   0.16120551 
  102400    294.57116   -1109.0161    133491.65   -41959.869    3595.6585   -45555.528   0.16090345 
  102600    299.72795   -865.76526    133177.37   -41967.856    3658.6044    -45626.46   0.15646218 
  102800    301.83211   -881.51908    133192.06   -41986.848    3684.2886   -45671.136    0.1574226 
  103000     294.3567   -1190.7425    133539.56   -41974.923    3593.0407   -45567.963   0.16588486 
  103200    303.10147   -1110.8074    133477.08   -41958.662     3699.783   -45658.445   0.15792132 
  103400    303.42441   -767.46059     133100.6   -41993.546    3703.7249   -45697.271   0.15587331 
  103600    301.76401    -896.2917    133233.53   -41998.405    3683.4574   -45681.862   0.15575533 
  103800     297.2945   -1235.9192    133660.76   -41987.411    3628.9006   -45616.312   0.16519692 
  104000    296.70468   -1084.8303    133437.84   -42002.904    3621.7011   -45624.605   0.16019785 
  104200    299.36016   -691.74469    132961.26   -42019.042     3654.115   -45673.157    0.1551147 
  104400    303.29567   -939.59811    133264.83   -42037.146    3702.1534     -45739.3    0.1562002 
  104600    301.69443   -1362.0075    133750.44    -42017.89    3682.6081   -45700.498   0.16277626 
  104800    296.80621   -1007.6905    133323.56   -42018.765    3622.9404   -45641.705   0.15999964 
  105000    296.30597   -587.82099    132867.78   -42054.951    3616.8343   -45671.786   0.15047867 
  105200    300.45908    -1056.742    133381.08   -42047.137    3667.5288   -45714.666   0.15742202 
  105400    300.35284   -1329.2552    133755.09   -42032.339    3666.2321   -45698.571   0.16303659 
  105600    300.28346   -860.05155    133152.17    -42037.05    3665.3852   -45702.435   0.15585028 
  105800    300.11418   -628.13525    132874.79   -42062.812    3663.3189   -45726.131   0.15379798 
  106000    299.83036   -1170.3142    133571.41   -42012.107    3659.8544   -45671.961   0.15998346 
  106200      296.009   -1308.1877    133759.61   -41989.136    3613.2093   -45602.346   0.16265979 
  106400    296.51393   -808.36514    133042.97   -42030.612    3619.3727   -45649.984   0.15835828 
  106600    299.41652   -658.18811    132951.21    -42033.89    3654.8029   -45688.693   0.15456678 
  106800    297.10637   -1315.2213    133682.96    -42016.36    3626.6043   -45642.965   0.16489711 
  107000     302.6572     -1222.46    133632.73   -41974.712      3694.36   -45669.072   0.15976342 
  107200    295.11585   -729.84232    132971.11   -41972.001    3602.3072   -45574.308   0.15808683 
  107400    299.81616   -852.40225    133110.77   -41977.144    3659.6811   -45636.825   0.16325482 
  107600    306.49701   -1315.0603     133662.1   -41948.161    3741.2304   -45689.392   0.16779447 
  107800    299.43704   -1098.3624     133484.6   -41970.787    3655.0534   -45625.841   0.15922736 
  108000    303.31926    -775.6393    133039.23   -41953.455    3702.4414   -45655.896   0.15714013 
  108200     299.9282   -855.21807    133232.28   -41984.515    3661.0487   -45645.564   0.15175858 
  108400    296.60704   -1249.6413    133596.25   -41977.798    3620.5093   -45598.308   0.17032735 
  108600    302.95998   -1000.4426    133399.68   -41957.784    3698.0559    -45655.84   0.15651521 
  108800    302.11447   -850.65909    133148.03   -41977.551    3687.7353   -45665.287   0.15573193 
  109000    298.54066   -958.99532    133310.62   -42009.848    3644.1119    -45653.96   0.15479894 
  109200      295.235   -1141.7698    133450.81   -42017.257    3603.7616   -45621.019   0.16401619 
  109400    297.14004   -1016.7692    133307.38   -41997.629    3627.0153   -45624.645   0.16439667 
  109600    300.17203   -865.61172    133240.64   -41963.715     3664.025    -45627.74   0.15570077 
  109800    300.27102   -1067.4884     133354.5   -42016.521    3665.2334   -45681.755   0.15827284 
  110000     296.6778   -1017.4018    133349.04   -41948.852     3621.373   -45570.225   0.16461648 
  110200    305.26751   -930.09584    133259.53   -41939.387    3726.2225   -45665.609   0.16237633 
  110400    306.56531   -998.83485    133290.34    -41990.63     3742.064   -45732.694   0.15918607 
  110600    296.61457   -1056.3636    133355.45   -42061.982    3620.6011   -45682.583   0.15774845 
  110800    297.24452   -1022.0642    133275.34   -42057.252    3628.2906   -45685.542   0.16214425 
  111000    299.28749   -966.85569    133224.56   -42059.855    3653.2279   -45713.083    0.1600603 
  111200    297.52297   -1008.2933    133315.54   -42041.473    3631.6894   -45673.162   0.16088839 
  111400    295.93725   -1114.9162    133413.27   -42090.735    3612.3336   -45703.068    0.1576273 
  111600    294.43985    -999.1434    133285.73   -42136.733    3594.0557   -45730.789   0.15342457 
  111800    296.30887   -913.41001    133162.92   -42170.348    3616.8697   -45787.218    0.1538444 
  112000    293.49887   -1021.5661    133302.23   -42169.076    3582.5697   -45751.646   0.15884046 
  112200     294.2309   -1071.1872    133440.17   -42118.345    3591.5051    -45709.85   0.15387093 
  112400    300.63776   -970.21693    133320.49   -42099.149      3669.71   -45768.859   0.15100437 
  112600    300.66915   -892.40542    133177.74   -42076.084     3670.093   -45746.177   0.15583255 
  112800     293.5724   -965.79882    133308.79   -42091.638    3583.4671   -45675.105   0.15513344 
  113000    294.71801   -1151.8223     133467.2    -42069.11     3597.451   -45666.561   0.16035171 
  113200    292.31403   -949.79126    133287.53   -42103.763     3568.107    -45671.87   0.15558069 
  113400    298.14548   -861.44934     133101.9   -42087.884    3639.2881   -45727.172   0.15949076 
  113600    300.62939   -1031.6711    133304.31   -42089.526    3669.6077   -45759.134   0.15934141 
  113800    302.51347   -1141.1771    133485.47   -42069.912    3692.6056   -45762.517   0.15781378 
  114000    298.38234   -914.81661    133233.92   -42058.802    3642.1793   -45700.981   0.15679696 
  114200    295.74106   -845.28954    133047.61    -42073.65    3609.9387   -45683.589    0.1598621 
  114400    299.90824   -1038.3215    133341.26   -42013.136     3660.805   -45673.941   0.16243147 
  114600    295.30672   -1203.1008    133559.61   -41985.299     3604.637   -45589.936   0.16560171 
  114800    301.32308   -915.98834    133229.93   -41961.672    3678.0752   -45639.747   0.16085917 
  115000    297.86163    -818.3002    133039.81    -41988.34    3635.8233   -45624.163   0.16373312 
  115200    299.51489    -1127.657    133440.75   -42010.089    3656.0036   -45666.092   0.16406041 
  115400     304.1506   -1231.2216    133582.48   -42024.199    3712.5891   -45736.788   0.16146943 
  115600    302.69674   -856.94966    133086.96   -42009.845    3694.8426   -45704.688   0.15798057 
  115800    298.83516   -723.66844    132971.68   -42028.744    3647.7067   -45676.451   0.15398549 
  116000       296.65   -1223.5638    133525.74    -42011.31    3621.0337   -45632.343   0.16715196 
  116200    296.65221   -1290.0843     133584.3   -42025.271    3621.0606   -45646.332   0.16893592 
  116400    295.73205   -744.01196    132980.25   -42083.907    3609.8288   -45693.736   0.15529261 
  116600    300.43262    -717.5365    133020.31   -42102.005    3667.2059   -45769.211   0.14701059 
  116800    295.59519   -1328.7519    133670.37   -42038.264    3608.1582   -45646.422   0.16452387 
  117000    300.33365    -1181.355    133542.43   -42062.179    3665.9978   -45728.176   0.15635668 
  117200    300.94328   -664.32853    132887.56   -42068.014    3673.4392   -45741.453   0.14919117 
  117400    293.18761   -885.02999    133126.36   -42079.167    3578.7702   -45657.938   0.15628161 
  117600    293.32765   -1356.4748    133753.96   -42040.707    3580.4797   -45621.187   0.16185186 
  117800    292.89944   -1064.9754    133430.59   -42008.646    3575.2528   -45583.899   0.16345569 
  118000    303.05976   -610.28523    132909.06   -42005.606    3699.2739    -45704.88   0.15030406 
  118200    292.36634   -981.43837    133309.19   -42043.508    3568.7455   -45612.253    0.1558818 
  118400    294.56703   -1377.8754    133757.06   -42070.688    3595.6081   -45666.296   0.15849774 
  118600    293.09896    -990.2472    133290.94    -42105.18    3577.6881   -45682.868   0.15297845 
  118800    295.22067   -623.79356    132855.95   -42149.752    3603.5866   -45753.339   0.14897468 
  119000    294.69212   -1048.1795    133317.56   -42154.732    3597.1349   -45751.867   0.15456136 
  119200    292.56484   -1307.0821    133666.44    -42149.96    3571.1685   -45721.128    0.1563828 
  119400    289.15223   -1017.3818    133227.66   -42189.576    3529.5128   -45719.089   0.15548222 
  119600    299.02308   -711.58518    132941.07   -42133.063    3650.0005   -45783.064   0.14668485 
  119800    297.84707   -1055.8111    133384.11   -42119.799    3635.6456   -45755.445    0.1512166 
  120000    292.88071   -1224.8684    133589.91   -42142.608    3575.0242   -45717.633   0.15529787 
  120200    295.02406   -897.65229    133180.34   -42121.923    3601.1868    -45723.11   0.15440614 
  120400    293.62948   -833.98463    133082.11    -42160.03    3584.1639   -45744.194   0.15051545 
  120600    293.74015   -1119.7199    133453.14    -42140.85    3585.5148   -45726.365   0.15182388 
  120800    294.86798   -1185.9121    133504.31   -42140.661    3599.2816   -45739.943   0.15518502 
  121000    290.53522   -925.81379    133185.67   -42131.924    3546.3941   -45678.318   0.15701464 
  121200    298.57492   -875.72915    133168.41   -42141.169      3644.53   -45785.699    0.1534137 
  121400     297.6302   -1063.4166    133419.48   -42128.365    3632.9984   -45761.364   0.15154584 
  121600    297.47138    -1042.019    133386.92    -42120.07    3631.0598   -45751.129   0.14982771 
  121800    295.29093   -896.82703    133189.78   -42119.502    3604.4443   -45723.946   0.15118597 
  122000    293.73971    -923.8609    133245.36   -42098.997    3585.5095   -45684.507   0.15636356 
  122200    299.02512   -1102.7126    133428.23   -42070.032    3650.0254   -45720.057   0.15787814 
  122400    294.47329   -1089.8904    133373.31   -42029.162    3594.4639   -45623.626   0.15956921 
  122600    300.84845   -917.58974    133238.65   -41949.524    3672.2817   -45621.806   0.15464491 
  122800    300.35883    -1047.865    133355.41   -41943.906    3666.3052   -45610.212   0.15930509 
  123000    302.11867   -1065.5001    133434.96   -41979.348    3687.7865   -45667.134   0.15535579 
  123200    299.07579   -983.28904     133310.9   -42005.858    3650.6438   -45656.502   0.15510763 
  123400    295.54316   -944.57166    133230.31   -42090.433     3607.523   -45697.956   0.15559368 
  123600    298.61012   -1026.5918    133373.58   -42046.102    3644.9597   -45691.061   0.15655405 
  123800    296.31867   -1114.5834    133454.92   -42057.085    3616.9893   -45674.074   0.15479092 
  124000    297.41388   -963.12403    133310.83   -42037.748    3630.3578   -45668.105   0.15273695 
  124200    304.95129   -928.63115    133247.06   -42030.243    3722.3626   -45752.606   0.15087559 
  124400    297.32618   -1089.7241    133433.78   -42047.515    3629.2874   -45676.802   0.15836092 
  124600    295.86933    -1107.525    133456.26   -42061.011    3611.5044   -45672.516   0.15458003 
  124800    299.19386   -922.03817    133238.46   -42071.275     3652.085   -45723.361   0.14988472 
  125000    294.17671   -917.50326    133277.75   -42083.687    3590.8436   -45674.531   0.15079806 
  125200    297.66825   -1121.5844     133549.3   -42068.678    3633.4629    -45702.14   0.15482582 
  125400    295.44906   -1056.1714    133456.19   -42122.174    3606.3745   -45728.549   0.15059102 
  125600    290.92435   -840.95405    133101.09   -42138.306    3551.1439   -45689.449   0.14840359 
  125800     295.8813   -874.34239    133224.82   -42111.176    3611.6506   -45722.826   0.14685296 
  126000    297.88807   -1238.0909    133610.24   -42091.957     3636.146   -45728.103   0.15619294 
  126200    296.13191   -1060.8279    133437.82   -42067.037    3614.7097   -45681.746   0.15109367 
  126400    295.56477   -758.85378    133035.16   -42103.933    3607.7869    -45711.72   0.14815454 
  126600    301.49376   -887.96531     133239.6   -42111.404    3680.1586   -45791.563   0.14728301 
  126800    296.22473   -1241.4052    133645.44   -42083.841    3615.8426   -45699.684   0.15556329 
  127000    291.19319   -1104.8768    133382.73   -42109.646    3554.4256   -45664.072   0.15545302 
  127200    297.79513   -679.19821    132976.26    -42149.29    3635.0115   -45784.302    0.1412056 
  127400    295.95388   -1036.7282    133331.55   -42137.604    3612.5365   -45750.141   0.14890587 
  127600    297.07302   -1342.0852    133715.98   -42126.536    3626.1972   -45752.733   0.15708893 
  127800    293.33945   -908.45798    133240.93   -42134.671    3580.6237   -45715.295   0.14584693 
  128000    298.24744   -648.80309    132900.84   -42117.535    3640.5326   -45758.067   0.14298755 
  128200    295.39569   -1102.5998    133438.32   -42078.117     3605.723    -45683.84   0.14765412 
  128400    296.80607   -1301.6732     133725.5   -42105.307    3622.9386   -45728.246   0.15682344 
  128600    296.01716   -844.11319     133124.2    -42133.42     3613.309   -45746.729   0.15070152 
  128800    293.54974   -680.11523    132854.48   -42194.797    3583.1906   -45777.988   0.14476633 
  129000    289.90959   -1136.1406    133478.66   -42204.577    3538.7574   -45743.334    0.1503584 
  129200    294.18816   -1312.0715    133681.93   -42177.515    3590.9834   -45768.498   0.14903067 
  129400    298.20812   -768.00481    133020.45   -42177.813    3640.0527   -45817.866   0.14504619 
  129600    294.68984   -730.93803    132938.64   -42162.152    3597.1071   -45759.259   0.14910227 
  129800    293.50867   -1286.4616    133626.47   -42163.532    3582.6893   -45746.222   0.15280871 
  130000     288.4242   -1294.6703    133614.84   -42185.061    3520.6261   -45705.687   0.15646044 
  130200    291.93333   -662.85196    132942.21   -42196.724    3563.4599   -45760.184   0.14033494 
  130400    292.06279   -781.50936    133041.18   -42192.308    3565.0403   -45757.348   0.14626162 
  130600    291.89556   -1276.4959    133680.02   -42138.846     3562.999   -45701.845   0.15006623 
  130800    292.02472   -1189.7326    133522.37   -42161.212    3564.5755   -45725.787    0.1533341 
  131000    292.27133   -741.08135    132950.82    -42194.08    3567.5858   -45761.665    0.1512896 
  131200    291.78801   -924.33655    133145.96   -42160.258    3561.6861   -45721.945   0.14612024 
  131400      291.595    -1266.671    133606.49   -42161.357    3559.3302   -45720.687   0.15303152 
  131600    289.97809   -1076.2474     133378.1   -42151.374    3539.5935   -45690.968   0.15136785 
  131800    294.07811    -766.2595    133047.22   -42132.215    3589.6401   -45721.856   0.14589976 
  132000    303.50907   -948.61946    133304.18   -42081.802    3704.7583    -45786.56   0.14650121 
  132200     295.0968   -1186.5118    133565.84   -42095.506    3602.0746   -45697.581   0.15285484 
  132400    292.83646   -1022.0899     133326.1   -42106.808     3574.484   -45681.292   0.15217421 
  132600    296.78096   -870.94538    133138.25   -42069.014    3622.6322   -45691.646   0.14760389 
  132800     296.5792   -1016.8246    133383.83   -42044.478    3620.1694   -45664.647   0.14984741 
  133000    298.75308   -1128.9665    133545.25   -42029.031    3646.7048   -45675.736   0.15197228 
  133200    298.42503   -968.97673    133300.26   -42005.489    3642.7004   -45648.189   0.15079313 
  133400    298.82984   -888.17276    133204.67   -41984.144    3647.6417   -45631.786   0.15114282 
  133600    303.45506   -1080.3362    133439.67   -41984.871    3704.0991    -45688.97   0.15357199 
  133800    302.82825   -1119.8967     133500.7   -42009.517    3696.4479   -45705.965   0.15001767 
  134000    301.76687    -900.0417    133269.93   -41967.004    3683.4923   -45650.496   0.15635754 
  134200    298.96947   -921.70902    133285.78   -41978.851    3649.3461   -45628.197   0.15417273 
  134400    298.84282   -1099.7627    133477.28   -41965.386    3647.8002   -45613.186   0.15374896 
  134600    301.63426    -1070.888    133394.47   -41989.669    3681.8736   -45671.542   0.15023351 
  134800    297.20282   -892.13585    133184.39   -42025.403    3627.7816   -45653.185   0.15030391 
  135000    295.80702   -977.54918    133274.96   -42095.673    3610.7438   -45706.417   0.15701199 
  135200    297.14595   -1103.1046    133440.29   -42076.684    3627.0874   -45703.771   0.15667558 
  135400    300.60905   -1018.7649    133321.93   -42094.935    3669.3594   -45764.294    0.1486847 
  135600    294.26787   -855.68663    133163.72   -42069.632    3591.9563   -45661.588    0.1445754 
  135800    293.99727   -982.73349    133315.72   -42143.351    3588.6533   -45732.005   0.14386747 
  136000    291.18891   -1079.2787    133439.29   -42164.493    3554.3733   -45718.866   0.15184422 
  136200    296.40266   -1000.6021    133277.99   -42162.352    3618.0146   -45780.366   0.15077378 
  136400    296.49792   -862.56992    133158.69   -42132.593    3619.1773    -45751.77   0.14881958 
  136600    297.21071   -1061.6891    133348.96   -42072.262    3627.8779    -45700.14   0.15149224 
  136800    295.34556   -1137.1907    133433.61   -42083.537    3605.1112   -45688.648   0.15274324 
  137000    299.56947   -929.50353    133204.97    -42094.18    3656.6699    -45750.85   0.14706888 
  137200    294.69797     -877.858    133136.13   -42120.787    3597.2064   -45717.993   0.14976384 
  137400    297.58109    -1069.224    133400.59   -42080.765     3632.399   -45713.164   0.15276841 
  137600    295.07683   -1109.2966    133488.77   -42069.902    3601.8309   -45671.733   0.15856383 
  137800    301.52279    -901.0156    133188.78   -42038.689     3680.513   -45719.202   0.15081038 
  138000    296.54234   -837.16675    133130.16   -42062.703    3619.7195   -45682.423   0.14658955 
  138200    291.45634   -1151.9339    133461.03    -42099.56    3557.6377   -45657.197   0.15520558 
  138400    293.00811   -1161.7092    133462.64   -42075.546    3576.5792   -45652.125   0.16080925 
  138600    295.54323   -816.70181    133056.07   -42098.509    3607.5239   -45706.033   0.15507124 
  138800     296.5251   -865.81649    133153.63    -42029.06    3619.5091   -45648.569   0.14990944 
  139000    298.34845   -1290.4267    133691.34   -42031.353    3641.7657   -45673.119   0.15329333 
  139200    297.73924   -1134.4702    133506.21   -42030.095    3634.3294   -45664.424   0.15429533 
  139400     293.2578   -649.57194    132911.33   -42066.212     3579.627   -45645.839   0.15276975 
  139600     301.2749   -901.95591    133183.75   -42049.112    3677.4871   -45726.599   0.15669819 
  139800    298.38108   -1400.3373    133824.99   -41992.694    3642.1639   -45634.857   0.16217997 
  140000    292.61036   -1086.2658    133465.01   -41978.407    3571.7241   -45550.131   0.15480488 
  140200    300.40885   -566.82313    132871.29   -42020.721    3666.9157   -45687.637   0.14613113 
  140400    296.61399   -978.85882    133336.15   -42043.316    3620.5941    -45663.91   0.15335736 
  140600    291.95237   -1396.1432    133865.16   -42035.349    3563.6924   -45599.041   0.16666309 
  140800    299.14783    -1027.666    133326.03   -42037.927    3651.5232    -45689.45   0.15940299 
  141000    293.49643   -638.23868    132863.89   -42084.726    3582.5398   -45667.266   0.15362228 
  141200    298.74956   -1033.4386    133418.99   -42034.176    3646.6618   -45680.838   0.15129031 
  141400    296.09102   -1369.9123    133791.95   -42020.272    3614.2105   -45634.483   0.16149137 
  141600    301.49557   -879.38258    133209.55    -42010.67    3680.1807   -45690.851   0.15374805 
  141800    295.67251   -687.88428    132931.36    -42077.49    3609.1021   -45686.592   0.15301943 
  142000    294.98926   -1135.6337    133492.75   -42070.596     3600.762   -45671.358   0.15960603 
  142200    299.33863   -1341.0964    133694.66   -42083.055    3653.8522   -45736.907   0.15888923 
  142400    301.46961   -808.27609    133128.88   -42089.094    3679.8638   -45768.958   0.14898589 
  142600    299.06651   -731.18679    133017.96   -42060.139    3650.5306    -45710.67   0.14923718 
  142800    298.79543   -1184.9437    133559.08   -42077.714    3647.2216   -45724.935   0.15565826 
  143000    298.20456   -1210.6338    133574.89   -42107.611    3640.0093    -45747.62   0.15734321 
  143200    296.84737   -805.39862     133024.6   -42103.717    3623.4428    -45727.16   0.15264954 
  143400    299.24388   -792.92763    133036.58   -42080.928    3652.6957   -45733.623   0.15161542 
  143600     295.1106   -1210.3021    133592.27   -42049.985    3602.2431   -45652.229   0.15620955 
  143800    295.08877   -1187.1849    133525.55   -42057.867    3601.9766   -45659.843   0.15932439 
  144000    297.29857   -752.36716    133003.93   -42048.108    3628.9504   -45677.058   0.15160373 
  144200     294.6571   -838.72139    133147.47   -42024.901    3596.7075   -45621.609   0.15644739 
  144400    300.29226   -1248.7693    133628.46   -42013.562    3665.4926   -45679.054   0.16070539 
  144600    298.70908   -1090.6079    133416.26   -41994.356    3646.1677   -45640.524   0.15751284 
  144800    304.88791   -750.13652    133001.93   -41984.381     3721.589    -45705.97    0.1500764 
  145000    299.77057    -981.4787    133279.78   -42023.803    3659.1247   -45682.928   0.15489453 
  145200    294.90239   -1223.4217    133625.47   -42046.636    3599.7016   -45646.338   0.16425458 
  145400    297.56418   -1019.3119    133332.46   -42047.954    3632.1925   -45680.147   0.15736622 
  145600    297.83782   -788.45771    133054.81   -42074.003    3635.5326   -45709.536   0.15116539 
  145800    296.26303    -996.5323    133334.13   -42091.477    3616.3101   -45707.787   0.14759491 
  146000    303.80254   -1211.6741    133541.43   -42067.825    3708.3405   -45776.165    0.1554004 
  146200    293.30226   -952.00526    133226.93   -42103.894    3580.1697   -45684.064   0.15834589 
  146400    299.57524   -775.97432    133085.16   -42059.346    3656.7403   -45716.087   0.15083454 
  146600    296.44882   -1070.6263    133387.48    -42006.33    3618.5779   -45624.908   0.15493048 
  146800    297.66473   -1144.1893    133472.03   -41967.348    3633.4199   -45600.768   0.15786073 
  147000    303.65549   -907.41191    133203.88   -41970.712    3706.5456   -45677.257    0.1529364 
  147200    304.73569   -876.07569    133188.06   -41948.023    3719.7309   -45667.754   0.16127779 
  147400    302.52965   -1112.0044    133446.77    -41997.19    3692.8032   -45689.993   0.15485507 
  147600    299.05363   -1094.1692    133379.03   -42026.875    3650.3733   -45677.248   0.15783495 
  147800    297.01035   -864.80984    133104.58   -42072.833    3625.4323   -45698.265    0.1553744 
  148000    296.59285   -931.56997    133221.36   -42037.295     3620.336   -45657.631   0.15690844 
  148200    299.66352   -1160.1607    133471.46   -42086.494     3657.818   -45744.311   0.16151692 
  148400     294.7417    -1020.466    133306.23   -42110.322    3597.7401   -45708.062   0.15230653 
  148600    299.72374   -816.84964     133098.1    -42085.13     3658.553   -45743.683   0.15217079 
  148800    296.55484   -1017.6856    133304.56   -42096.486    3619.8721   -45716.358   0.15563366 
  149000    298.21768   -1143.5335    133478.04   -42100.731    3640.1694     -45740.9   0.15862828 
  149200    297.41172   -916.39556    133302.85   -42124.352    3630.3315   -45754.683   0.14768088 
  149400    291.71576   -892.56818     133213.8   -42146.027    3560.8042   -45706.831   0.14899416 
  149600    292.13189   -1063.3531    133368.73   -42124.581    3565.8838   -45690.464   0.15446698 
  149800     292.3398   -1039.5087    133409.59   -42137.145    3568.4215   -45705.567   0.15211487 
  150000    293.32343   -977.36342    133307.83   -42079.361    3580.4281   -45659.789   0.15674332 
  150200    296.83899   -944.34118    133297.65   -42023.905    3623.3405   -45647.246   0.15041479 
  150400    294.48014   -1021.1987    133414.28   -42024.647    3594.5474   -45619.195   0.15394568 
  150600    298.04749   -1054.3682     133424.1   -42037.075     3638.092   -45675.167   0.15038669 
  150800    301.77175   -923.98155    133305.91   -42030.196    3683.5519   -45713.747   0.15073543 
  151000    297.19012   -1001.9763    133307.61   -42057.909    3627.6266   -45685.536    0.1572299 
  151200    297.82531   -1039.4032    133366.65   -42042.942      3635.38   -45678.322   0.15428496 
  151400    300.40435   -1032.6109    133371.08   -41968.939    3666.8608     -45635.8   0.15754242 
  151600    302.30331   -996.83218    133365.53   -41952.787    3690.0403   -45642.827   0.15348588 
  151800    302.68131   -1001.5421    133350.55   -41920.285    3694.6544   -45614.939   0.16085793 
  152000    301.88149   -1013.0754    133345.91    -41946.51    3684.8914   -45631.401   0.16345737 
  152200     297.0274   -986.85943    133322.32   -41966.053    3625.6404   -45591.693   0.15521803 
  152400    302.54344   -987.74064    133318.09   -42006.625    3692.9715   -45699.596   0.15275486 
  152600    304.64405   -996.28128    133350.42   -41996.722    3718.6123   -45715.335   0.15474329 
  152800    300.00759   -1021.9509    133369.76   -41935.355    3662.0178   -45597.373    0.1614411 
  153000    302.96998   -1033.8466    133352.68   -41987.141     3698.178   -45685.319   0.15841752 
  153200    303.79086   -972.23647    133308.76   -41929.762    3708.1979    -45637.96   0.15191379 
  153400    299.06365   -1018.9405     133341.6   -41976.866    3650.4956   -45627.362   0.15539292 
  153600    299.97276   -1035.0631     133371.3    -42017.14    3661.5927   -45678.733   0.15905937 
  153800    301.38923   -970.41805    133311.41   -42023.746    3678.8826   -45702.628   0.15895372 
  154000    298.69192   -937.44524     133263.5   -42058.211    3645.9581   -45704.169   0.15364998 
  154200    299.88685   -1021.4588    133337.34   -42009.981     3660.544   -45670.525   0.15731554 
  154400    302.39889   -1043.9617    133413.99   -41990.592     3691.207   -45681.799    0.1574003 
  154600    299.00286   -1033.0573     133346.6    -42009.89    3649.7536   -45659.644   0.16355117 
  154800    295.95608   -950.30683    133246.33   -42042.791    3612.5634   -45655.354   0.15895868 
  155000    297.40136   -983.80606     133304.9   -42015.128    3630.2051   -45645.333   0.15892129 
[...]
  163000    293.95234   -1258.2235    133669.29   -42085.254    3588.1049   -45673.359   0.16298219 
  163200    300.30139   -902.37975    133209.28   -42083.859    3665.6041   -45749.463   0.15211633 
  163400    295.12976   -698.71236    132924.55    -42116.74     3602.477   -45719.217   0.15395739 
  163600    296.94341   -1146.1605     133502.2   -42075.035    3624.6151   -45699.651   0.15920313 
  163800    297.39425   -1312.7198    133770.82   -42132.827    3630.1183   -45762.945    0.1543559 
  164000    293.31285   -821.05245    133116.55   -42136.676     3580.299   -45716.975   0.15085153 
  164200    298.03976    -664.2432     132899.3   -42152.508    3637.9976   -45790.506   0.14602911 
  164400    296.58649   -1256.8165     133596.4   -42097.068    3620.2584   -45717.327   0.15990356 
  164600    294.75231   -1281.9806    133707.16   -42057.613    3597.8696   -45655.483   0.15656212 
  164800    295.91258   -732.30675    132992.36   -42116.295    3612.0324   -45728.327   0.14989953 
  165000    297.65531   -727.78238    132972.94   -42105.315    3633.3049    -45738.62   0.15059925 
  165200    295.44359   -1292.3579    133675.97   -42079.879    3606.3078   -45686.186   0.15587063 
  165400    296.02793   -1227.9827    133588.14   -42094.797    3613.4404   -45708.237   0.15594493 
  165600    295.04516   -674.09367    132898.67   -42058.569    3601.4443   -45660.013   0.15306146 
  165800    300.99213   -804.84557    133057.51   -42061.069    3674.0354   -45735.105   0.15699908 
  166000    304.30276   -1289.1751    133654.93   -42016.479    3714.4464   -45730.925   0.16674701 
  166200    297.68997   -1091.3471    133426.86   -42062.462     3633.728    -45696.19   0.15763288 
  166400    292.59056   -707.62478    132940.75   -42062.198    3571.4825    -45633.68   0.15303738 
  166600    298.14677   -929.89632    133227.22   -42058.649    3639.3039   -45697.952   0.15424722 
  166800    298.25942   -1256.7057    133582.88   -42118.744    3640.6789   -45759.423   0.16528625 
  167000    299.31212   -982.42324    133282.51   -42111.932    3653.5286   -45765.461   0.16110574 
  167200    299.61741   -811.95904    133040.39   -42079.315     3657.255    -45736.57   0.15448691 
  167400    296.01679   -1021.1524    133323.63   -42102.194    3613.3045   -45715.498   0.15320643 
  167600    295.61036    -1161.242    133468.54   -42096.264    3608.3433   -45704.607   0.16031367 
  167800    295.42324   -894.79942    133220.74   -42144.852    3606.0593   -45750.911    0.1578987 
  168000    293.10803   -901.80217    133140.28   -42161.585    3577.7989   -45739.384   0.16171693 
  168200    294.73457   -1036.6583    133327.85   -42145.175    3597.6531   -45742.828   0.15289877 
  168400    297.23573   -1070.0194     133371.4   -42122.127    3628.1833    -45750.31   0.15576281 
  168600    301.55264   -907.40371    133223.05   -42081.538    3680.8773   -45762.415   0.15625838 
  168800    293.34012   -974.54276    133228.72   -42147.793    3580.6319   -45728.425   0.15304353 
  169000    298.34566   -1014.6714     133311.1   -42138.035    3641.7316   -45779.766   0.15105694 
  169200    294.74191   -1041.4502    133297.03   -42118.995    3597.7427   -45716.738   0.15636574 
  169400    293.74151   -988.76917    133241.63   -42135.627    3585.5314   -45721.158   0.16045247 
  169600    292.40321   -986.07724     133267.1   -42148.192    3569.1955   -45717.388   0.15684438 
  169800    289.83592   -1026.8511    133318.09   -42144.423    3537.8581   -45682.281    0.1527957 
  170000    293.42756   -1032.1154     133302.8   -42184.909    3581.6991   -45766.608   0.15138287 
  170200    295.08133    -950.1569    133245.61   -42191.249    3601.8858   -45793.135   0.14880741 
  170400    290.90309   -989.13129    133268.75   -42178.632    3550.8845   -45729.516   0.15863745 
  170600    293.66561   -1003.9071    133318.33   -42149.852    3584.6049   -45734.457   0.15460655 
  170800    290.44651    -982.2447    133310.86   -42182.461    3545.3112   -45727.772   0.15050668 
  171000    294.05258   -996.56383    133267.65   -42166.517    3589.3284   -45755.846    0.1543664 
  171200    293.78195   -981.31155    133284.04   -42186.743     3586.025   -45772.768   0.15469273 
  171400    293.07869   -1024.8315    133322.99   -42188.911    3577.4408   -45766.352   0.15402124 
  171600    296.22002   -996.66201    133284.39   -42161.283    3615.7851   -45777.068    0.1531652 
  171800     293.6434   -980.48915    133249.78   -42130.561    3584.3339   -45714.894   0.15328626 
  172000    301.68073   -1010.5779    133319.64    -42133.75    3682.4408   -45816.191   0.15327768 
  172200    300.48387   -1033.7559    133330.81    -42166.76    3667.8315   -45834.592   0.15379398 
  172400    292.76507   -967.16161    133221.35   -42140.663    3573.6126   -45714.276   0.15895424 
  172600    288.61074   -990.90889    133250.09   -42105.203    3522.9031   -45628.106     0.160342 
  172800    297.98673   -1109.1656    133400.44   -42111.326    3637.3504   -45748.677   0.15511285 
  173000    295.88727   -1043.5269    133360.49   -42121.352    3611.7235   -45733.075   0.15214836 
  173200    293.08786   -872.32991    133161.11   -42158.649    3577.5527   -45736.201   0.14922532 
  173400    291.81453   -981.23582     133211.2   -42159.287    3562.0098   -45721.297   0.15771825 
  173600    296.96299    -1105.887     133393.4   -42109.422    3624.8542   -45734.276    0.1576582 
  173800      294.357   -1013.4858     133304.9   -42101.539    3593.0443   -45694.583   0.15675116 
  174000     300.3396   -839.41944    133104.08   -42070.275    3666.0704   -45736.346   0.15302506 
  174200    301.45084   -987.94414    133235.92    -42056.65    3679.6347   -45736.284   0.15103421 
  174400    296.88267   -1132.4867    133484.15   -42040.812    3623.8737   -45664.686   0.15973725 
  174600     298.8381   -990.36445    133378.55   -42046.351    3647.7426   -45694.093   0.16010019 
  174800      298.342   -890.55584    133167.52   -42031.721     3641.687   -45673.408   0.15689354 
  175000    300.37594   -1029.0585    133321.78   -42063.128     3666.514   -45729.642   0.15836587 
  175200    299.20907   -1126.1735     133498.2   -42062.407    3652.2707   -45714.678   0.15707635 
  175400    295.75201   -958.38675     133278.8   -42081.622    3610.0724   -45691.695   0.15783296 
  175600    293.49921   -873.49023    133115.65   -42093.333    3582.5738   -45675.907   0.15887561 
  175800    295.11188   -1065.9975    133403.16   -42061.694    3602.2587   -45663.953   0.16267085 
  176000    299.12444   -1179.9284     133580.5   -42066.577    3651.2377   -45717.814   0.15980833 
  176200    299.66533   -954.94864    133260.74   -42019.521      3657.84   -45677.361   0.15973119 
  176400    297.50441   -827.24323    133107.69   -42036.158    3631.4629   -45667.621   0.15305629 
  176600    299.61917    -1050.854     133446.3   -42020.366    3657.2766   -45677.642   0.15832799 
  176800     297.6635   -1213.2782     133553.5   -42039.424    3633.4049   -45672.829   0.16532191 
  177000    296.34135   -884.60383     133176.3    -42036.04    3617.2661   -45653.306   0.15838083 
  177200    298.64358    -834.6074     133104.1   -42072.768    3645.3681   -45718.136   0.15486674 
  177400    296.22837   -1154.4885    133508.69   -42128.836    3615.8871   -45744.723   0.15460756 
  177600    293.72307   -1162.7682    133505.69   -42121.641    3585.3063   -45706.947   0.15460443 
  177800    293.52673   -809.23398    133070.83   -42091.022    3582.9097   -45673.931   0.15778937 
  178000    296.51623   -844.38739    133149.77   -42067.075    3619.4008   -45686.475   0.15666768 
  178200    298.50096   -1218.3543    133597.34   -42066.932    3643.6273   -45710.559   0.15994557 
  178400    293.94795   -1101.8492    133427.43   -42079.709    3588.0513    -45667.76   0.15993713 
  178600    301.51713   -728.92092     132993.7   -42071.076    3680.4439    -45751.52   0.15276642 
  178800    296.91928   -930.34832       133236   -42054.294    3624.3206   -45678.614   0.15808172 
  179000    303.73172   -1289.5912    133638.81   -42012.321    3707.4761   -45719.797     0.162281 
  179200    298.08112   -1016.1254    133307.36   -42047.358    3638.5025    -45685.86   0.16316139 
  179400    296.92559   -719.79676    132916.41   -42039.227    3624.3976   -45663.625   0.16039885 
  179600    300.35713   -997.56321    133358.15   -42039.367    3666.2844   -45705.651     0.158389 
  179800    298.87023   -1351.6878    133758.36   -42046.318    3648.1348   -45694.452   0.16038168 
  180000    299.30983   -932.20959    133239.42   -42039.889    3653.5007    -45693.39   0.16018069 
  180200    302.42252   -661.42487    132925.06   -41993.478    3691.4955   -45684.974   0.15606011 
  180400    302.32323   -1124.3349    133497.94   -41962.424    3690.2835   -45652.707   0.16253348 
  180600    297.69635   -1370.8121    133748.31   -42003.842    3633.8059   -45637.648    0.1697599 
  180800    298.55808   -862.25127    133123.71   -42007.252    3644.3244   -45651.576   0.15828924 
  181000     296.8683   -682.66508    132937.69    -42048.01    3623.6983   -45671.708   0.15865185 
  181200    295.22163   -1224.0345    133540.28   -42021.756    3603.5983   -45625.354    0.1659431 
  181400    300.16568   -1288.5367    133593.26   -42060.064    3663.9475   -45724.012   0.16343084 
  181600    296.19569   -793.96799    133015.88   -42085.795    3615.4881   -45701.284   0.15457878 
  181800    297.17535   -787.47254    133091.73   -42078.763    3627.4463   -45706.209   0.15391098 
  182000     293.6588   -1195.5892    133599.45   -42046.905    3584.5218   -45631.427    0.1627442 
  182200    299.87782   -1183.6242       133498   -42061.584    3660.4337   -45722.018   0.16380439 
  182400    299.18953   -796.87743    133082.93   -42075.176    3652.0323   -45727.208   0.15465771 
  182600    296.67045   -881.25125    133222.19   -42051.157    3621.2832    -45672.44   0.15694343 
  182800    300.20584   -1171.0938    133563.39   -42018.697    3664.4377   -45683.135    0.1597477 
  183000    304.91276   -1056.9199     133439.9   -41992.901    3721.8923   -45714.793   0.16039863 
  183200    301.19527   -862.04787    133192.94   -41987.388    3676.5151   -45663.903   0.16280879 
  183400    299.76534   -939.40609    133301.75   -41992.982    3659.0607   -45652.043   0.15806582 
  183600    293.50547   -1130.6465    133473.23   -42028.145    3582.6502   -45610.795   0.16413323 
  183800    301.21083   -1005.1875    133331.57   -42040.734     3676.705   -45717.439   0.15647152 
  184000    296.52721   -878.13543    133150.53   -42073.582    3619.5349   -45693.117   0.15953182 
  184200    295.18468   -992.41907    133273.19   -42113.988    3603.1474   -45717.135   0.15649136 
  184400    297.63953   -1103.5865    133433.84    -42096.39    3633.1123   -45729.503   0.15530951 
  184600    292.35707   -992.76886     133308.2   -42125.546    3568.6324   -45694.179   0.16155275 
  184800    293.94975   -887.06696    133162.08   -42108.642    3588.0732   -45696.716   0.15895287 
  185000    294.93753   -1034.1409    133293.92   -42106.153    3600.1305   -45706.283   0.16051085 
  185200    295.73709   -1081.5735     133402.7   -42148.244    3609.8903   -45758.134    0.1545119 
  185400    296.34661    -954.1229    133242.47    -42128.85    3617.3304    -45746.18   0.15457991 
  185600     297.8409   -916.49395    133171.74   -42138.901    3635.5702   -45774.472   0.15871677 
  185800    299.49377   -1006.8796    133354.09   -42090.463    3655.7459   -45746.208   0.15337268 
  186000    296.33575   -1080.7292    133435.63   -42083.899    3617.1978   -45701.097   0.15477868 
  186200    296.83323    -948.4293    133261.52   -42066.823    3623.2703   -45690.094   0.15848523 
  186400    295.95204   -922.40891    133194.91   -42031.578    3612.5141   -45644.092    0.1641863 
  186600    292.54048   -1107.9002    133372.84   -42041.575    3570.8712   -45612.446   0.16981511 
  186800    291.16414   -1145.7281     133398.4   -42067.764    3554.0709   -45621.835   0.16827513 
  187000    297.35186   -857.18112    133156.51   -42031.706    3629.6009   -45661.307   0.15799168 
  187200    294.16824   -921.48289     133185.5    -42065.18    3590.7402    -45655.92   0.16254779 
  187400    299.86547   -1134.6993     133456.3   -42043.164     3660.283   -45703.447   0.16460508 
  187600    294.82655   -1039.0954    133396.02   -42085.511    3598.7759   -45684.287   0.15872315 
  187800    293.11606   -843.16295    133107.74   -42090.829    3577.8969   -45668.725   0.15808652 
  188000    293.90406   -935.31669    133206.13   -42060.263    3587.5156   -45647.779   0.15866314 
  188200    294.82545   -1174.6566    133487.77   -42027.472    3598.7625   -45626.234   0.16533211 
  188400    295.96245   -1035.3821    133329.65   -42017.637    3612.6411   -45630.278   0.15899437 
  188600    303.31415   -807.44284    133054.74   -42031.717    3702.3791   -45734.096   0.15739534 
  188800    298.23589   -990.66569    133281.77   -42038.548    3640.3917    -45678.94   0.15747963 
  189000    298.74589   -1247.7752    133580.54   -42033.138    3646.6169   -45679.755   0.16032509 
  189200    297.99751   -937.69501    133263.35   -42039.771    3637.4819   -45677.253   0.15499702 
  189400    299.97053   -711.98947    132947.18   -42034.643    3661.5654   -45696.209   0.15501335 
  189600    295.02483   -1129.6545    133408.82   -42022.116    3601.1962   -45623.312   0.16225179 
  189800    297.12618   -1382.3295    133738.15   -42058.201    3626.8461   -45685.047   0.16472033 
  190000    299.53456   -816.89584    133131.52   -42090.235    3656.2438   -45746.478    0.1535778 
  190200    294.57028   -607.44401    132832.88   -42073.389    3595.6477   -45669.037   0.15051032 
  190400    300.78868   -1165.8801    133569.98   -42068.956    3671.5521   -45740.508   0.15623619 
  190600    302.26883   -1421.0495    133824.72   -42014.328    3689.6195   -45703.948   0.16635599 
  190800    300.76254   -753.17297    132984.75   -42021.891    3671.2331   -45693.124   0.15838389 
  191000    300.41497   -600.58376    132843.92   -42066.959    3666.9904   -45733.949   0.15261926 
  191200    293.08132   -1345.9333    133693.67   -42063.365    3577.4728   -45640.838   0.16335093 
  191400    294.71386   -1347.8361    133689.74   -42072.024    3597.4003   -45669.425   0.16707706 
  191600    303.09015   -587.84057    132836.69   -42029.061    3699.6448   -45728.706   0.15090931 
  191800      297.045   -741.70309    132968.68   -42064.857    3625.8552   -45690.712   0.15549653 
  192000    296.04531   -1347.6967    133730.72   -42066.577    3613.6526   -45680.229   0.16225078 
  192200    295.04516   -1187.5003    133519.93   -42033.202    3601.4443   -45634.646   0.16341102 
  192400    296.51652   -652.19246    132872.56   -42045.286    3619.4044    -45664.69    0.1537464 
  192600    295.40757   -893.68966    133198.63    -42083.62     3605.868   -45689.488   0.15117814 
  192800    297.05099   -1348.8621    133773.41   -42049.307    3625.9284   -45675.236   0.15832167 
  193000     298.5739   -1044.1937    133418.16   -42045.725    3644.5175   -45690.242   0.15655539 
  193200    295.60879   -684.49674    132932.78   -42022.069    3608.3242   -45630.393   0.15934361 
  193400    300.06035   -958.07446    133319.99   -42004.446    3662.6618   -45667.107   0.15652757 
  193600    299.47683    -1309.506    133760.99   -42021.523    3655.5392   -45677.062   0.15535392 
  193800     297.3772   -990.73354     133356.4   -42053.077    3629.9101   -45682.987   0.15511625 
  194000     298.3077   -698.90859    132980.28     -42097.3    3641.2682   -45738.568   0.14890325 
  194200    294.71122   -1015.2876    133375.27   -42065.727     3597.368   -45663.095   0.15877773 
  194400    296.57036   -1288.1732    133678.97   -42054.333    3620.0615   -45674.394   0.15841004 
  194600    298.12466   -954.39257    133239.71   -42062.679    3639.0339   -45701.713   0.15597535 
  194800    296.91716   -710.36071    133000.24    -42072.55    3624.2948   -45696.845   0.15626295 
  195000    299.84703   -1098.9271    133433.37   -42044.785     3660.058   -45704.843   0.15719669 
  195200    297.75796   -1236.5639    133596.67    -42011.15    3634.5579   -45645.708   0.16098104 
  195400    298.38303   -889.49833    133190.53   -42038.944    3642.1877   -45681.132   0.15525035 
  195600    299.10075   -738.05775    133086.51   -42047.454    3650.9485   -45698.403   0.15220234 
  195800    294.09523   -1138.8826    133489.36   -42081.436    3589.8491   -45671.285   0.16338572 
  196000    299.73219   -1133.4353    133552.41   -42062.982    3658.6561   -45721.638   0.15308477 
  196200    295.13022   -877.46122    133194.35   -42030.085    3602.4826   -45632.568   0.15215031 
  196400    302.58779   -866.92895    133181.11   -42055.401    3693.5128   -45748.914   0.15189873 
  196600    295.91991   -1168.3767    133485.32   -42098.424    3612.1219   -45710.546   0.15926638 
  196800     298.7637   -1052.0714    133422.92   -42086.047    3646.8343   -45732.882   0.15518007 
  197000    299.25742   -804.40946    133148.39   -42097.416    3652.8609   -45750.277   0.14603606 
  197200    292.34989   -933.86255    133244.43   -42134.912    3568.5447   -45703.457   0.15259831 
  197400    291.62333   -1139.2562     133505.7   -42124.994     3559.676    -45684.67    0.1545972 
  197600    300.74333   -998.61204    133375.09   -42059.879    3670.9986   -45730.878   0.15362885 
  197800    300.19263   -867.98873    133163.58   -42028.672    3664.2765   -45692.949   0.15790471 
  198000    296.96799   -975.23094    133316.01   -42052.782    3624.9152   -45677.697   0.15392926 
  198200    293.74908   -1163.6475    133533.78   -42073.855    3585.6238   -45659.478   0.15902429 
  198400     298.6866   -1029.4199    133359.93   -42014.679    3645.8933   -45660.572   0.15683468 
  198600    303.66245   -844.22353    133164.55   -41994.535    3706.6305   -45701.165   0.15198775 
  198800    300.38331    -1055.352     133362.8   -42029.861     3666.604   -45696.465   0.15731156 
  199000     299.1819   -1155.2916    133514.73   -42015.894    3651.9391   -45667.833   0.15759297 
  199200    294.82982   -931.64002    133277.54   -42027.512    3598.8157   -45626.328   0.16278948 
  199400    299.02755   -865.95145    133152.06    -42036.43     3650.055   -45686.485    0.1538154 
  199600    299.56294   -1049.6472    133408.73   -42058.732    3656.5902   -45715.322   0.15911293 
  199800    297.90907   -1102.3418    133501.01   -42035.775    3636.4024   -45672.177   0.15675499 
  200000     299.9343    -907.5313    133209.39    -42044.09    3661.1232   -45705.214   0.15308565 
Loop time of 105.38 on 6 procs for 200000 steps with 4096 atoms

Performance: 819.887 ns/day, 0.029 hours/ns, 1897.887 timesteps/s
97.6% CPU use with 6 MPI tasks x no OpenMP threads

MPI task timing breakdown:
Section |  min time  |  avg time  |  max time  |%varavg| %total
---------------------------------------------------------------
Pair    | 66.74      | 68.287     | 71.422     |  22.2 | 64.80
Neigh   | 9.6424     | 9.9367     | 10.506     |  12.2 |  9.43
Comm    | 13.167     | 16.801     | 18.528     |  52.5 | 15.94
Output  | 2.9417     | 2.9432     | 2.9498     |   0.2 |  2.79
Modify  | 5.7638     | 5.8225     | 5.8651     |   1.7 |  5.53
Other   |            | 1.589      |            |       |  1.51

Nlocal:        682.667 ave         714 max         666 min
Histogram: 2 1 1 0 0 1 0 0 0 1
Nghost:        1373.50 ave        1406 max        1353 min
Histogram: 1 2 0 1 0 0 1 0 0 1
Neighs:        0.00000 ave           0 max           0 min
Histogram: 6 0 0 0 0 0 0 0 0 0
FullNghs:      19418.0 ave       20323 max       18950 min
Histogram: 2 1 1 0 0 1 0 0 0 1

Total # of neighbors = 116508
Ave neighs/atom = 28.444336
Neighbor list builds = 12765
Dangerous builds = 0

Total wall time: 0:02:37
