
# Define the lattice
#
variable	    lattice_constant equal 6.36339
lattice		    diamond ${lattice_constant}
lattice		    diamond 6.36339
Lattice spacing in x,y,z = 6.3633900 6.3633900 6.3633900

# Define region
# multiples of lattice spacing
#
region 		    simbox block 0 8 0 8 0 8

# Create Atoms
#
create_box          1 simbox
Created orthogonal box = (0.0000000 0.0000000 0.0000000) to (50.907120 50.907120 50.907120)
  1 by 2 by 3 MPI processor grid
create_atoms        1 box
Created 4096 atoms
  create_atoms CPU = 0.000 seconds
mass                1 18.015

# Define potential
#
pair_style          sw
pair_coeff          * * ML_mW.sw mW
Reading sw potential file ML_mW.sw with DATE: 2019-02-27

# Add velocity/set timestep
#
velocity            all create ${TEMP} 120598 rot yes dist gaussian
velocity            all create 298 120598 rot yes dist gaussian
timestep            5.0

# Define output
#
compute	            1 all msd
thermo              100
thermo_style        custom step temp press vol etotal ke pe c_1[4]

# Neighbor lists
#
neigh_modify        delay 0 every 1 check yes

# Set fixes
#
fix                 1 all momentum 10 linear 1 1 1 rescale
fix                 2 all nve
fix                 3 all temp/csvr ${TEMP} ${TEMP} 500.0 928347
fix                 3 all temp/csvr 298 ${TEMP} 500.0 928347
fix                 3 all temp/csvr 298 298 500.0 928347
fix                 4 all press/berendsen iso ${PRES} ${PRES} 1000.0 modulus 20000
fix                 4 all press/berendsen iso -1000 ${PRES} 1000.0 modulus 20000
fix                 4 all press/berendsen iso -1000 -1000 1000.0 modulus 20000

# Run 0.5 ns equilibration
#
dump		    1 all custom 1000 eq.${NAME}.dump id type x y z vx vy vz
dump		    1 all custom 1000 eq.ice_298K_1000atm_ML.dump id type x y z vx vy vz
run                 100000
Neighbor list info ...
  update every 1 steps, delay 0 steps, check yes
  max neighbors/atom: 2000, page size: 100000
  master list distance cutoff = 6.0032907
  ghost atom cutoff = 6.0032907
  binsize = 3.0016454, bins = 17 17 17
  1 neighbor lists, perpetual/occasional/extra = 1 0 0
  (1) pair sw, perpetual
      attributes: full, newton on
      pair build: full/bin/atomonly
      stencil: full/bin/3d
      bin: standard
Per MPI rank memory allocation (min/avg/max) = 4.800 | 4.800 | 4.801 Mbytes
Step Temp Press Volume TotEng KinEng PotEng c_1[4] 
       0          298   -601.91163    131927.58   -46048.874    3637.5123   -49686.386            0 
     100    204.17978   -837.45603    132411.11   -44557.446    2492.3036   -47049.749   0.10399058 
     200    235.98595   -910.98562     132719.2   -43670.488     2880.543   -46551.031   0.11594373 
     300    252.66288   -934.43046    132877.06   -43087.202    3084.1085    -46171.31   0.14475105 
     400    264.82625   -1060.8335     133006.1   -42738.574    3232.5796   -45971.154   0.15336017 
     500    286.07807   -997.02131    133142.53   -42489.967    3491.9883   -45981.955   0.14042135 
     600    288.19534   -1033.7966    133197.52   -42201.812    3517.8325   -45719.644   0.17467877 
     700    297.87435   -956.30057    133267.19   -42162.842    3635.9785    -45798.82   0.15759749 
     800    298.07881   -970.55388    133250.25   -42058.349    3638.4743   -45696.823   0.17152747 
     900    296.33968   -1014.5513    133271.93   -42050.002    3617.2457   -45667.248   0.17797941 
    1000    304.73287   -887.41851    133252.35   -42115.418    3719.6965   -45835.114   0.13731616 
    1100    304.12935   -997.30189    133287.98   -42062.046    3712.3297   -45774.375   0.16886244 
    1200    296.78307   -994.13173    133258.03   -42026.699    3622.6579   -45649.357   0.15538617 
    1300     300.2877   -1084.1535    133292.59   -41970.379    3665.4369   -45635.816   0.17812299 
    1400    300.70594    -976.8456    133282.67   -42033.476    3670.5422   -45704.018   0.16540552 
    1500    300.57048   -952.03275    133287.42   -42101.962    3668.8886   -45770.851   0.14403298 
    1600    296.99625   -1051.2569    133275.84   -42045.147    3625.2601   -45670.407   0.17590585 
    1700     305.3408   -945.24208    133268.64   -42060.364    3727.1172   -45787.482   0.14809005 
    1800    303.24494    -937.5982     133275.8    -42014.88    3701.5342   -45716.414   0.17185709 
    1900    301.00278   -955.43335    133338.01   -41956.076    3674.1655   -45630.242   0.15836709 
    2000    305.94771   -931.82409    133332.46   -41909.009    3734.5254   -45643.534    0.1646039 
    2100    296.54465   -1006.7321    133311.81   -42062.889    3619.7476   -45682.637   0.16966566 
    2200     298.7862   -1004.1009    133290.48    -42002.86     3647.109    -45649.97   0.16916957 
    2300    300.46699   -968.30165    133339.58   -41954.124    3667.6254    -45621.75   0.17686475 
    2400    299.43581   -1026.0799    133355.75   -41991.627    3655.0384   -45646.665    0.1704219 
    2500    307.04032   -969.55938    133314.61   -42012.594    3747.8622   -45760.457   0.15531064 
    2600    300.40963   -978.15206    133328.72   -42049.304    3666.9252   -45716.229   0.16597655 
    2700    302.25261   -922.11375    133312.58   -42047.209    3689.4215   -45736.631   0.13880858 
    2800    303.45701   -973.76395    133328.51   -41947.084    3704.1228   -45651.207   0.17608923 
    2900    305.70229   -977.39206    133336.09   -41949.713    3731.5297   -45681.243   0.15615722 
    3000    297.20009   -985.46777     133306.7   -42004.403    3627.7483   -45632.151   0.16910432 
    3100    302.89613   -945.83553    133306.34   -41968.466    3697.2765   -45665.742   0.16927676 
    3200    299.90602   -988.16154     133302.9   -42059.841     3660.778   -45720.619   0.15381198 
    3300    294.13334   -994.20844    133238.65   -42161.337    3590.3142   -45751.651   0.17744686 
    3400    296.11285   -1001.8802    133268.28    -42095.26     3614.477   -45709.737   0.15958622 
    3500     293.3418   -997.26394    133272.86   -42054.731    3580.6523   -45635.383   0.17114535 
    3600    300.45514   -980.93522    133285.15   -42061.563    3667.4808   -45729.044   0.16572862 
    3700    297.78861   -951.21923    133260.11   -42012.451     3634.932   -45647.383    0.1625968 
    3800    302.85269   -959.89273     133271.5   -42002.567    3696.7462   -45699.313   0.17289082 
    3900    297.99034   -992.81575    133296.65   -42006.187    3637.3944   -45643.581   0.16821903 
    4000    297.18819   -992.84213    133292.56   -42053.461    3627.6031   -45681.064   0.16274656 
    4100    294.44975   -1035.1971    133281.92   -42071.367    3594.1764   -45665.544   0.17215353 
    4200    297.95702   -998.00761    133271.58   -42026.652    3636.9877    -45663.64   0.15610462 
    4300     294.8662   -958.11919    133278.04   -42157.094    3599.2598   -45756.354   0.16715451 
    4400    294.64431   -954.82158    133292.75   -42049.074    3596.5514   -45645.625   0.15617727 
    4500    295.27124   -1000.9706    133275.56   -42106.133    3604.2039   -45710.337   0.16775497 
    4600    292.65351   -966.31588    133259.45   -42126.587    3572.2508   -45698.838   0.15645013 
    4700    301.33905   -937.57357     133285.9   -42034.361    3678.2701   -45712.631   0.16483014 
    4800     301.4498   -974.39865    133310.53   -41936.128     3679.622    -45615.75   0.17263643 
    4900    300.69048   -1011.5369    133332.36   -41916.727    3670.3534    -45587.08    0.1789786 
    5000    294.14474   -1004.7939    133334.15   -42037.185    3590.4533   -45627.638   0.17263332 
    5100    298.90161   -988.57492    133330.34   -41962.995    3648.5178   -45611.512   0.16264559 
    5200    299.14429   -1032.9062    133378.86   -42040.695      3651.48   -45692.175   0.16907208 
    5300    292.28848   -997.20018    133328.88   -42137.137    3567.7951   -45704.932   0.15900077 
    5400    294.82011   -984.06923    133317.05   -42110.815    3598.6973   -45709.513   0.16568808 
    5500    297.85925   -977.26898     133334.7   -42085.266    3635.7943    -45721.06   0.15878113 
    5600    301.15288   -948.97341    133306.05   -42109.069    3675.9977   -45785.067   0.15157526 
    5700    294.45526   -1018.0175    133309.62   -42102.289    3594.2438   -45696.532   0.17160764 
    5800    296.72556   -1025.2055    133311.27    -42042.66    3621.9559   -45664.616   0.16616366 
    5900    291.47584   -1038.9068    133301.57    -42121.93    3557.8757   -45679.806    0.1645435 
    6000    297.67514   -1008.0243    133311.37   -42101.785     3633.547   -45735.332    0.1671305 
    6100    293.61803   -994.08241    133301.12    -42176.21    3584.0241   -45760.234    0.1422523 
    6200    296.27596   -960.79048    133276.27    -42151.83     3616.468   -45768.298    0.1708982 
    6300    299.22149   -1008.4041     133330.9   -42037.616    3652.4224   -45690.039   0.15425636 
    6400    298.72327   -1012.3581    133301.36   -42086.763    3646.3409   -45733.104   0.17097964 
    6500    297.33229   -1031.7959    133295.35   -42105.017     3629.362   -45734.379   0.16701661 
    6600    295.22976   -961.37564       133291   -42103.875    3603.6975   -45707.573   0.15618236 
    6700    292.96861   -1010.4392    133291.61   -42157.208     3576.097   -45733.305    0.1729739 
    6800    296.22632   -1028.2804    133303.59   -42122.844     3615.862   -45738.706   0.16349247 
    6900    295.28736   -1064.0512    133319.15   -42047.568    3604.4006   -45651.968   0.16953865 
    7000     302.5598   -979.27742    133323.81   -42042.313    3693.1711   -45735.484   0.16824642 
    7100    303.60836   -950.83035    133312.98   -42047.762    3705.9703   -45753.733   0.14283395 
    7200     298.1615   -1011.8735    133276.63   -42160.672    3639.4837   -45800.156   0.16955518 
    7300    292.35038   -1007.3775    133258.13   -42206.512    3568.5507   -45775.063   0.15450522 
    7400    293.88917   -980.52757    133304.02   -42096.571    3587.3338   -45683.905   0.16386682 
    7500    301.36264   -964.57504    133287.58   -42028.923    3678.5581   -45707.481   0.17139941 
    7600    298.76077   -961.87299    133297.78   -42006.918    3646.7986   -45653.717   0.15547389 
    7700    294.60553   -1008.7905    133268.14   -42095.593     3596.078   -45691.671   0.18254767 
    7800    295.82072   -986.14755    133257.42    -42156.35    3610.9111   -45767.261   0.15598238 
    7900    293.52215   -992.93911    133254.45   -42101.927    3582.8538    -45684.78   0.16975577 
    8000     294.0133   -1022.7541    133297.72   -42004.683     3588.849   -45593.532   0.17036377 
    8100     300.9731   -993.04466    133297.21   -41966.509    3673.8032   -45640.312    0.1675378 
    8200    301.99035   -1037.2792    133291.85   -41983.937    3686.2201   -45670.157   0.17152072 
    8300    300.06703   -962.33032    133278.05    -41947.72    3662.7434   -45610.464   0.17021972 
    8400    299.99374   -1027.7895    133320.04   -41930.687    3661.8487   -45592.536   0.16854747 
    8500    304.91631   -1041.7544    133306.26   -42011.371    3721.9357   -45733.307    0.1728918 
    8600    299.65687   -1001.0969    133298.17   -42029.911    3657.7368   -45687.648   0.15863665 
    8700    303.24557   -990.01076    133312.02   -42006.353    3701.5419   -45707.895   0.17097786 
    8800    300.64724   -1023.7476    133292.05   -42042.196    3669.8257   -45712.021    0.1638033 
    8900    301.12363   -995.15672    133293.27   -42104.803    3675.6407   -45780.444   0.16525728 
    9000    299.98438   -993.22153    133284.45   -42027.575    3661.7345    -45689.31   0.16493531 
    9100     296.7211   -1008.7818    133285.62   -42081.465    3621.9015   -45703.367   0.16689676 
    9200    298.71063   -981.83259    133309.95   -41978.267    3646.1865   -45624.454   0.17271241 
    9300    291.68901   -1020.2199    133292.64   -42122.689    3560.4778   -45683.167    0.1689901 
    9400    294.71763   -1015.6502    133308.11   -42096.691    3597.4464   -45694.138   0.17503242 
    9500     298.0054   -994.96335    133306.78   -42130.441    3637.5782   -45768.019   0.15779742 
    9600    297.22147   -996.69108    133319.34    -42124.79    3628.0092   -45752.799   0.16632689 
    9700    297.99102   -1003.3856    133324.37   -42001.793    3637.4027   -45639.196   0.15911607 
    9800    306.99168   -996.12415    133305.61   -41957.157    3747.2685   -45704.426   0.16910173 
    9900    303.16775   -950.94203    133313.96   -41983.601    3700.5921   -45684.193   0.16612644 
   10000    299.99843   -994.74325    133307.33    -42037.46    3661.9059   -45699.366   0.16334514 
   10100    298.66429    -993.0309    133320.01   -41988.269    3645.6209    -45633.89   0.16693325 
   10200    303.98625   -985.91339    133313.37   -41952.363     3710.583   -45662.946   0.16620485 
   10300    299.38658   -1023.4446    133326.82    -41955.89    3654.4375   -45610.328   0.17132679 
   10400     300.5852   -1020.2837    133316.68   -41951.888    3669.0684   -45620.957   0.18039338 
   10500    296.13414   -1039.4546    133300.26   -42005.042    3614.7368   -45619.778   0.16496711 
   10600    295.40383   -987.24063    133290.98   -42029.616    3605.8224   -45635.438   0.17056694 
   10700    299.65332   -1029.9883    133288.83   -42067.586    3657.6934    -45725.28   0.15826916 
   10800    294.65152    -1045.523    133272.16     -42191.6    3596.6394    -45788.24   0.16501879 
   10900    293.08023   -1015.0391       133248   -42166.427    3577.4595   -45743.887   0.16732205 
   11000    293.77204   -1012.4215    133244.57   -42181.397    3585.9041   -45767.301   0.15963663 
   11100    295.09697   -977.98346    133281.65   -42098.307    3602.0767   -45700.384   0.16126404 
   11200    297.09016   -1041.7198    133273.66   -42195.045    3626.4064   -45821.451   0.15576113 
   11300    296.57972   -1016.1425    133254.61   -42109.606    3620.1758   -45729.782   0.16854624 
   11400    296.11937   -985.14508    133267.26   -42084.735    3614.5565   -45699.292   0.16415772 
   11500    305.16991    -988.3927    133296.79   -41991.111    3725.0312   -45716.142   0.16254836 
   11600    300.29804   -1037.6224    133322.06   -41993.871    3665.5631   -45659.435   0.16145007 
   11700     298.3526   -977.77807    133335.99   -41858.306    3641.8162   -45500.122    0.1713893 
   11800    300.89073   -995.16997    133332.39   -41948.243    3672.7978   -45621.041   0.16818383 
   11900    298.38883   -1025.3372    133298.93   -41989.855    3642.2586   -45632.113    0.1751178 
   12000    301.66574   -1056.5101    133337.62   -41946.016    3682.2579   -45628.274   0.16654134 
   12100    298.33519   -1035.7579    133303.13   -42021.955    3641.6038   -45663.559   0.17125177 
   12200    300.90807   -1026.4267    133316.87   -42007.714    3673.0094   -45680.724   0.15552559 
   12300    299.15864   -995.16265    133312.13   -42073.214    3651.6552   -45724.869   0.16379591 
   12400    294.04956   -1017.5781    133311.55   -42030.786    3589.2916   -45620.078   0.16077152 
   12500    302.34096    -1007.042    133322.44   -41972.224    3690.4999   -45662.724   0.16475412 
   12600    307.04959   -937.44623    133327.83   -41966.271    3747.9753   -45714.247   0.15941542 
   12700     299.8464   -968.03867    133336.79   -41999.313    3660.0502   -45659.364   0.15836939 
   12800     294.1371   -1008.5835    133314.26   -42029.244    3590.3602   -45619.604   0.17294367 
   12900    297.59942   -1047.2261    133302.76   -42077.922    3632.6227   -45710.544   0.16403529 
   13000    300.66977   -993.47423     133284.7   -42073.083    3670.1006   -45743.184   0.16333629 
   13100    293.47303   -1006.7072    133288.41   -42104.972    3582.2543   -45687.226   0.16269934 
   13200    293.00441   -990.12086    133249.62   -42141.235    3576.5341   -45717.769   0.15811499 
   13300    290.88015   -1021.3145    133242.16   -42202.808    3550.6044   -45753.412   0.16652981 
   13400    296.14526   -1000.7057    133233.59   -42248.022    3614.8726   -45862.894   0.15416388 
   13500    294.86183   -984.14568    133280.59    -42123.55    3599.2065   -45722.757   0.16015955 
   13600    296.56852   -969.51072    133282.78   -42097.306    3620.0391   -45717.345   0.16784455 
   13700    304.50508   -980.12774    133281.24   -42109.372    3716.9161   -45826.288    0.1513864 
   13800    297.10554   -994.83471    133299.25   -42069.411    3626.5941   -45696.005   0.17143646 
   13900     297.3751   -1035.0549    133293.05   -42030.871    3629.8845   -45660.755   0.15648822 
   14000    302.56595   -1035.9688     133323.7   -41938.443    3693.2462   -45631.689   0.17419059 
   14100    303.56025   -999.90258    133327.09   -42021.405     3705.383   -45726.788    0.1611137 
   14200    297.58448   -977.80389    133291.69   -42014.621    3632.4403   -45647.061   0.15960475 
   14300     296.9419   -969.68066    133280.89    -42052.54    3624.5967   -45677.137   0.16431242 
   14400      293.802   -1014.2411    133260.49   -42097.134    3586.2698   -45683.403   0.16503724 
   14500    296.30149   -995.34703    133262.65     -42105.9    3616.7796    -45722.68   0.16458199 
   14600    297.78556   -985.68316    133265.49   -42102.928    3634.8947   -45737.823   0.16952554 
   14700    300.39824    -974.2623    133273.97   -42057.932    3666.7863   -45724.718   0.15570291 
   14800     297.6779   -1000.0779     133286.4   -42024.285    3633.5807   -45657.866   0.17243838 
   14900    297.86986   -1028.5331    133254.87   -41998.836    3635.9237    -45634.76   0.16446406 
   15000    296.53038   -972.15307    133262.03   -42072.134    3619.5735   -45691.707   0.16121406 
   15100    298.20765   -967.81667    133253.65   -42086.577     3640.047   -45726.624   0.16013617 
   15200    299.52814   -1017.3461    133290.65   -42050.416    3656.1654   -45706.582   0.15779084 
   15300     299.5511   -1010.6948    133233.23   -42089.385    3656.4457    -45745.83   0.16619921 
   15400    294.79938   -994.40627    133244.43   -42134.412    3598.4442   -45732.856   0.15984364 
   15500     294.8476   -1036.3608    133258.68   -42061.315    3599.0328   -45660.348   0.17197443 
   15600    303.22364   -986.42539    133283.43   -41938.416    3701.2742    -45639.69   0.16307532 
   15700    301.99347   -962.30946    133270.08   -41921.094    3686.2583   -45607.352   0.16652729 
   15800    299.37973    -954.3226    133271.48   -41929.464    3654.3538   -45583.818   0.16178088 
   15900    300.30012   -999.53954    133283.96   -41941.105    3665.5885   -45606.694   0.17114362 
   16000    301.18999   -994.40405    133280.87   -41996.591    3676.4506   -45673.042   0.16353694 
   16100    294.98675   -1011.7906    133241.63   -42061.983    3600.7313   -45662.714   0.16825754 
   16200    298.46488   -972.65043    133279.74   -42031.514    3643.1868   -45674.701   0.15797852 
   16300    297.21889   -1013.1293    133266.46   -42041.722    3627.9777     -45669.7   0.16587299 
   16400    299.29936   -1038.9744    133268.87   -42064.018    3653.3729   -45717.391   0.16456821 
   16500     301.5843   -1024.9098    133296.86   -41982.757    3681.2638    -45664.02   0.17055125 
   16600    300.84859   -1000.0994    133290.27   -41946.155    3672.2834   -45618.438   0.16046375 
   16700    300.95929   -1005.8896    133287.24   -41978.365    3673.6347       -45652   0.16685806 
   16800    297.56065   -1014.3767    133284.57    -42020.38    3632.1495   -45652.529   0.16094055 
   16900    296.29388   -1002.3418    133309.07   -42043.155    3616.6867   -45659.842   0.16477139 
   17000    294.21559   -994.58893    133268.58    -42095.42    3591.3183   -45686.739   0.16420966 
   17100    302.22883   -987.44979    133277.54    -42035.41    3689.1312   -45724.541   0.15440129 
   17200    294.46611   -1022.4794    133269.35   -42095.524    3594.3762   -45689.901   0.16752716 
   17300     295.3029   -1009.3872       133250    -42166.08    3604.5904   -45770.671   0.15607496 
   17400    293.72322   -1038.0569    133242.61   -42198.791    3585.3082     -45784.1   0.16384825 
   17500    298.42684    -957.0745    133271.05   -42072.325    3642.7225   -45715.048   0.15908814 
   17600    293.76164    -1053.235    133298.31   -42087.363    3585.7772    -45673.14   0.16175113 
   17700    298.22295   -1013.9027    133294.22   -42120.367    3640.2338   -45760.601   0.15794861 
   17800    297.54309   -1007.1315    133289.12   -42115.624    3631.9351   -45747.559   0.16221808 
   17900    297.97116   -1018.4908    133327.86   -42042.422    3637.1603   -45679.582   0.15824438 
   18000    303.87886   -995.91067    133336.01   -42001.587    3709.2721   -45710.859   0.16810707 
   18100    302.12383   -1004.2177    133352.59   -41962.207    3687.8495   -45650.057   0.15395095 
   18200    299.19765   -1025.7337     133318.6   -42064.062    3652.1313   -45716.193   0.16761532 
   18300    300.34169   -1016.1815    133303.23   -42000.811     3666.096   -45666.907   0.16010893 
   18400    295.29345   -1028.8533    133284.49   -42115.279     3604.475   -45719.754   0.16106679 
   18500    296.89104   -1010.8643    133256.56   -42070.019    3623.9759   -45693.995   0.16532096 
   18600    301.81738   -977.20986    133264.53   -41992.987    3684.1088   -45677.095   0.15760565 
   18700    297.39502   -1012.1365    133284.61   -42022.615    3630.1276   -45652.742   0.16600266 
   18800     296.1422   -1000.2344    133290.19   -42056.093    3614.8352   -45670.929   0.16352325 
   18900    295.63918   -1019.9701    133275.37    -42026.35    3608.6951   -45635.045   0.16740797 
   19000    297.10337   -980.32379    133272.55   -42001.975    3626.5677   -45628.543   0.16788701 
   19100    305.36585   -956.18264    133284.36   -41975.169     3727.423   -45702.592   0.16162596 
   19200     297.2671    -993.5145    133273.55   -42023.398    3628.5662   -45651.964   0.16556155 
   19300    301.49023   -990.14157    133301.09   -41877.079    3680.1155   -45557.195   0.17356789 
   19400     303.0926   -1008.3643    133302.11    -41963.87    3699.6747   -45663.544   0.16458066 
   19500     303.3992   -999.79646    133315.88   -41928.041    3703.4172   -45631.458   0.17641986 
   19600     303.0849    -1005.559    133312.22   -41959.317    3699.5807   -45658.898   0.15956812 
   19700    302.77106   -1029.4375    133272.54   -41958.499    3695.7498   -45654.249   0.17336048 
   19800    299.96056    -995.3165    133286.57   -41957.943    3661.4437   -45619.386   0.16027113 
   19900    300.09065   -1000.1609    133303.51   -41990.183    3663.0316   -45653.215   0.17089869 
   20000    301.33088   -1014.6451    133284.98    -42028.42    3678.1704   -45706.591   0.16118319 
   20100    295.76029   -1001.9855    133265.02   -42073.058    3610.1735   -45683.231   0.16477324 
   20200    295.03563   -1018.4294    133259.05   -42091.932     3601.328    -45693.26   0.16068933 
   20300    304.12269   -988.61294    133278.43   -42020.291    3712.2484   -45732.539   0.16357331 
   20400    300.08694   -1014.0883    133292.75   -42034.232    3662.9864   -45697.218   0.16368502 
   20500    294.39848   -1011.1891    133266.71   -42093.201    3593.5507   -45686.752   0.16333971 
   20600    297.28736   -986.86919    133268.15   -42126.802    3628.8136   -45755.615   0.15609666 
   20700    301.85432   -962.91475    133279.98   -42083.385    3684.5597   -45767.945   0.15582515 
   20800    296.43196   -1005.5593     133278.5   -41999.393    3618.3721   -45617.765   0.16545181 
   20900    299.81503   -1013.0709    133313.74   -42015.256    3659.6673   -45674.923   0.16787957 
   21000    300.82241   -993.96943     133299.9   -42053.701    3671.9638   -45725.665   0.16047003 
   21100     295.6403   -987.37061    133313.06   -42007.271    3608.7089   -45615.979   0.16073833 
   21200    300.11167   -1014.0202    133314.47   -41991.081    3663.2882   -45654.369   0.16277225 
   21300    303.51093   -1020.4802    133349.58    -41955.79     3704.781    -45660.57   0.15832552 
   21400    299.82953   -1009.0338    133320.02   -42004.134    3659.8443   -45663.979   0.17319135 
   21500    301.65681   -985.91845    133352.14   -41950.903    3682.1489   -45633.052   0.15558132 
   21600    304.26971   -952.66911     133336.8   -41926.469     3714.043   -45640.512   0.17018118 
   21700    299.03576   -1014.8016    133333.41   -42034.078    3650.1553   -45684.234    0.1583502 
   21800    303.07162   -984.96821    133321.78   -42053.721    3699.4187    -45753.14   0.15952805 
   21900     298.1103   -1001.5153    133313.73   -42052.797    3638.8587   -45691.656   0.16224691 
   22000    295.37428   -995.39352    133307.28   -42121.187    3605.4617   -45726.649   0.15418275 
   22100    292.72645   -1043.6626    133286.92   -42091.087    3573.1412   -45664.228   0.16290777 
   22200    294.37361   -995.46735    133260.66   -42223.537    3593.2471   -45816.784   0.16011734 
   22300      292.374   -996.00951     133276.5   -42134.808     3568.839   -45703.647   0.15542258 
   22400    302.20904   -985.69558    133295.61   -42022.347    3688.8896   -45711.236   0.16880135 
   22500    300.32349   -993.42499    133303.18   -42031.149    3665.8738   -45697.023   0.15397702 
   22600    297.10051   -997.05213    133290.98   -42051.874    3626.5327   -45678.407   0.16685133 
   22700    294.40322   -986.61776    133269.06   -42099.373    3593.6085   -45692.982   0.16001302 
   22800    294.52764   -1044.7041    133288.47     -42032.9    3595.1273   -45628.028   0.16177094 
   22900    297.21456    -996.8139    133303.17   -42061.851    3627.9249   -45689.776   0.16470548 
   23000    296.89965   -989.39704    133295.43    -42132.74     3624.081   -45756.821   0.14931714 
   23100     296.9948   -986.86381    133295.19   -42037.457    3625.2424     -45662.7   0.16447632 
   23200    296.86497   -1014.7745    133308.54   -42031.332    3623.6577    -45654.99   0.15945102 
   23300    295.79036   -1006.3435    133273.61   -42033.194    3610.5406   -45643.734   0.16831169 
   23400    294.72875   -1007.6016     133271.6     -42004.7    3597.5821   -45602.282   0.16580601 
   23500    300.67554   -1028.2135    133278.41   -41996.718    3670.1711   -45666.889   0.16558413 
   23600    307.01409   -980.29658     133308.5    -41932.33    3747.5421   -45679.872   0.16332628 
   23700    305.60408   -1029.7399    133282.48   -41963.073    3730.3309   -45693.404   0.16618318 
   23800    298.30491   -969.47048    133300.58   -41966.603    3641.2342   -45607.837   0.16352681 
   23900    296.15404   -1008.2227    133289.67   -42063.666    3614.9798   -45678.646   0.16619642 
   24000    302.82523   -1020.0632    133303.12   -42016.922    3696.4111   -45713.333    0.1568327 
   24100    298.78598   -1016.9009     133308.5   -41979.458    3647.1063   -45626.565   0.16848735 
   24200    298.59448    -989.5427    133316.51   -42041.854    3644.7687   -45686.622   0.14951568 
   24300    294.98029   -1015.5935    133305.03   -42091.621    3600.6525   -45692.273   0.16525313 
   24400    299.11967   -1019.8001    133302.49   -42129.944    3651.1794   -45781.123   0.15543725 
   24500    298.57145   -1030.6192    133285.18   -42097.139    3644.4877   -45741.626   0.15929246 
   24600    292.91372   -1003.0978    133260.83    -42137.22     3575.427   -45712.648    0.1627055 
   24700    293.64497   -994.57618     133266.4    -42148.83     3584.353   -45733.183   0.15199229 
   24800     300.8319   -985.28391    133286.26   -42116.519    3672.0796   -45788.599   0.16636933 
   24900    296.72594    -1022.288     133299.5   -42132.786    3621.9605   -45754.747   0.15589186 
   25000    296.75641   -1004.7963    133296.59   -42091.352    3622.3325   -45713.685   0.16246072 
   25100    296.54591   -978.98504    133275.22   -42142.269     3619.763   -45762.032   0.16006693 
   25200    293.40335   -979.83584    133237.06   -42257.145    3581.4036   -45838.549   0.14784359 
   25300    292.56662   -1026.7148    133261.47   -42205.034    3571.1902   -45776.224   0.16238883 
   25400    293.15809   -1006.5116    133286.25   -42139.412    3578.4099   -45717.822   0.15824469 
   25500    294.59909   -965.53709    133287.93   -42085.846    3595.9994   -45681.845     0.154773 
   25600    302.46982   -961.73342    133309.85   -41930.612    3692.0729   -45622.685   0.16917689 
   25700    297.23991   -971.90691    133303.22   -42050.634    3628.2343   -45678.868   0.15001953 
   25800    301.85891   -960.01461     133289.8   -41933.865    3684.6158   -45618.481   0.17467152 
   25900    302.43603   -1013.8748    133326.26   -41938.974    3691.6603   -45630.634    0.1585943 
   26000    297.18619   -1000.9647    133302.53   -41971.058    3627.5786   -45598.637   0.16700078 
   26100    301.67309   -980.92523    133285.24   -41989.525    3682.3475   -45671.872   0.16152807 
   26200    297.05588   -1015.2514    133304.65   -42028.658    3625.9879   -45654.646   0.15959118 
   26300    291.83941   -1006.6924    133292.99   -42090.165    3562.3136   -45652.479   0.16424269 
   26400    291.05654   -988.46809    133294.68   -42115.118    3552.7576   -45667.876   0.15549682 
   26500    300.39772   -958.43363    133333.48   -42017.171    3666.7799   -45683.951   0.15717453 
   26600    301.12458   -976.10202    133292.22   -41976.483    3675.6522   -45652.135   0.16174231 
   26700    303.10938   -983.64797    133317.78   -41936.993    3699.8795   -45636.872   0.15751639 
   26800    302.98588   -1013.4533    133302.03   -42005.693    3698.3721   -45704.065   0.16343624 
   26900    302.14028   -1012.2774    133305.68   -41971.433    3688.0503   -45659.483   0.15851796 
   27000    298.75948   -1009.2931    133335.57   -41972.969    3646.7829   -45619.752   0.16247784 
   27100    300.32561   -979.75998    133315.81   -41954.906    3665.8997   -45620.805   0.16255768 
   27200    300.97931   -1015.4184    133325.71    -41998.54     3673.879   -45672.419   0.15705497 
   27300    302.39093   -934.12659    133295.88   -41885.283    3691.1099   -45576.393   0.16886711 
   27400    298.07099   -1052.6111    133333.21   -41930.448    3638.3788   -45568.827   0.16168293 
   27500    303.97138    -1023.831    133309.52   -42042.818    3710.4015    -45753.22    0.1670745 
   27600    295.34129   -1024.7088    133272.47   -42152.857     3605.059   -45757.916   0.15242685 
   27700    298.25786   -1009.9451    133280.98   -42060.127    3640.6599   -45700.787   0.16350997 
   27800    300.32019   -1001.1598    133299.77   -41972.493    3665.8336   -45638.327   0.16085668 
   27900    296.28054   -997.29419     133289.4   -42070.038    3616.5238   -45686.562    0.1552788 
   28000    293.94745   -1002.6901    133299.24   -42133.175    3588.0453   -45721.221    0.1597449 
   28100    292.23361   -1027.2573    133297.72   -42110.343    3567.1254   -45677.468   0.16168794 
   28200    296.96355   -1001.9172    133306.78   -42089.528     3624.861   -45714.389   0.15633006 
   28300    294.97009   -964.24008    133305.04   -42073.995     3600.528   -45674.523   0.16052645 
   28400    295.18021   -966.58192     133309.3    -42061.35    3603.0927   -45664.443   0.14853063 
   28500    292.65423    -1005.427    133345.57   -42075.769    3572.2596   -45648.029   0.16770391 
   28600    292.82051    -1005.074    133339.59   -42096.431    3574.2893    -45670.72   0.15637677 
   28700     298.0359    -1021.884    133322.19   -42090.006    3637.9505   -45727.957   0.15965172 
   28800     294.5436   -1007.0676    133314.68   -42113.461    3595.3221   -45708.783    0.1568289 
   28900    298.70828   -967.19158    133324.86   -42083.527    3646.1579   -45729.685   0.15434248 
   29000    297.93326   -995.55342    133289.39   -42049.415    3636.6976   -45686.113   0.16356393 
   29100    297.95324   -951.09353    133312.56   -42008.369    3636.9415    -45645.31   0.15622154 
   29200    306.04067   -971.79166    133326.87   -41924.165    3735.6601   -45659.825    0.1649233 
   29300    300.99964    -1028.737    133314.87   -41950.969    3674.1272   -45625.096   0.16508104 
   29400    299.51668   -995.30816    133324.97   -41998.782    3656.0255   -45654.808   0.16467998 
   29500    302.55732   -1013.5443    133322.45   -41985.609    3693.1409   -45678.749    0.1649582 
   29600    300.07049   -1008.0452    133336.21   -41980.479    3662.7856   -45643.264   0.16285831 
   29700    297.25098   -980.84178    133328.44   -42041.334    3628.3695   -45669.704   0.15970207 
   29800    293.20865   -1015.6984    133275.08   -42142.072    3579.0271   -45721.099   0.16223747 
   29900    295.56897   -992.11033    133284.39   -42087.462    3607.8381   -45695.301   0.15738327 
   30000    299.68901   -977.40847    133258.64   -42141.174    3658.1291   -45799.303   0.16082977 
   30100    305.38208      -1014.1    133281.21   -42040.961    3727.6211   -45768.582   0.15576169 
   30200    290.85198   -1014.1768    133272.02   -42085.046    3550.2606   -45635.307   0.17090393 
   30300    295.41234   -1004.2484    133275.44   -42081.722    3605.9263   -45687.649    0.1577382 
   30400    296.13055   -1017.0688    133288.17   -42054.522     3614.693   -45669.215   0.16761209 
   30500    293.38615   -991.74544    133249.99   -42173.269    3581.1938   -45754.463   0.15585049 
   30600    295.86845   -1013.2439     133250.8   -42112.076    3611.4937    -45723.57   0.16045029 
   30700    293.21224   -1007.9656    133264.24   -42140.866    3579.0709   -45719.937   0.16606291 
   30800    293.90619     -1000.68    133298.37   -42092.459    3587.5415       -45680   0.15902441 
   30900    302.64891   -1009.0808    133318.85   -42026.968    3694.2588   -45721.226   0.16738007 
   31000    295.89017   -1034.5098    133294.55   -42046.014    3611.7589   -45657.772   0.16350651 
   31100    301.28043   -990.13836    133289.21   -42055.391    3677.5547   -45732.946   0.15721507 
   31200    297.05676   -1004.8647    133289.17   -42047.728    3625.9988   -45673.727   0.16539023 
   31300    299.11662   -1022.4961    133287.56   -41939.114    3651.1423   -45590.256   0.16466512 
   31400    302.17686   -1030.3045     133265.3   -42023.142    3688.4969   -45711.639   0.16681914 
   31500     302.3557   -995.47786    133256.79   -41978.496    3690.6798   -45669.176   0.16600703 
   31600    301.24425   -985.61198    133272.73       -42012     3677.113   -45689.113   0.16016338 
   31700    296.95171   -1030.1053    133265.58   -42010.771    3624.7164   -45635.487   0.17992816 
   31800    300.11826   -987.55688    133293.34   -41990.132    3663.3687   -45653.501   0.15539807 
   31900    294.86354   -1015.0966    133242.83   -42046.893    3599.2273    -45646.12   0.17646854 
   32000    304.22253    -1008.745    133264.82   -42035.565    3713.4671   -45749.033   0.15716572 
   32100    295.09374   -1069.5933    133261.53   -42065.466    3602.0373   -45667.503    0.1728926 
   32200     291.8764   -1044.5333    133244.78   -42174.011    3562.7651   -45736.776   0.16972146 
   32300    299.83936   -974.82941    133237.49   -42134.495    3659.9643   -45794.459   0.15664261 
   32400     294.1849   -990.52219    133249.74     -42152.5    3590.9436   -45743.443   0.16677207 
   32500    297.95269   -985.14791    133285.15   -42055.532    3636.9349   -45692.467   0.15949751 
   32600    300.64329   -1000.7805    133283.29   -41998.632    3669.7775    -45668.41   0.16835262 
   32700    294.27555    -1021.079    133284.71    -42095.48    3592.0502   -45687.531    0.1711264 
   32800    307.18326   -951.59007    133294.31   -41971.299     3749.607   -45720.906   0.15688432 
   32900    297.74347   -1024.7417    133308.91   -42023.155     3634.381   -45657.536   0.17556184 
   33000    297.18812   -991.55613    133295.45   -42013.255    3627.6021   -45640.857   0.16099517 
   33100    304.57649    -980.1025    133306.58   -42031.437    3717.7877   -45749.225   0.16242546 
   33200    300.68181   -1007.1994    133311.53   -42046.319    3670.2476   -45716.566   0.17122281 
   33300    295.82259   -1011.2665    133341.88    -42027.61    3610.9339   -45638.544   0.15991695 
   33400    298.53871   -1015.1238    133302.47   -42058.759    3644.0881   -45702.847   0.17954992 
   33500    293.69016   -1010.9066     133300.4   -42122.501    3584.9047   -45707.406   0.15721474 
   33600    300.68991   -1025.7701    133291.86   -42096.569    3670.3465   -45766.916   0.17303978 
   33700    299.19796   -1006.0339    133304.89   -42054.636    3652.1351   -45706.771   0.16172315 
   33800    299.41327   -1024.6856    133339.89   -41907.636    3654.7632   -45562.399   0.17228716 
   33900    301.84502   -976.41623    133347.81   -41895.419    3684.4462   -45579.865   0.17552375 
   34000    294.58355   -1037.7213    133311.44   -42061.486    3595.8097   -45657.296   0.16658547 
   34100    292.88886   -982.00151     133288.6   -42049.186    3575.1236    -45624.31   0.16988937 
   34200    298.42447   -965.02111    133289.96   -42083.625    3642.6936   -45726.319   0.16631319 
   34300    294.48849   -1022.0968    133281.01   -42136.483    3594.6494   -45731.132   0.16282909 
   34400    292.49787   -1041.1936    133255.25   -42104.254     3570.351   -45674.605   0.17783367 
   34500     299.6518    -971.9535    133317.29   -41972.991    3657.6749   -45630.665   0.15863395 
   34600    296.46188   -1015.1732    133332.48    -41930.63    3618.7373   -45549.368   0.18042583 
   34700    296.86417   -1002.3685    133312.39   -42019.616    3623.6479   -45643.264   0.16501856 
   34800    295.12024   -999.43238    133292.92   -42082.718    3602.3607   -45685.078   0.16729951 
   34900    297.65745   -984.64051    133289.96   -42037.209     3633.331    -45670.54    0.1730341 
   35000    293.99418   -1000.5781    133303.22   -42062.629    3588.6156   -45651.244   0.16035677 
   35100     293.3362   -1013.6747    133291.53   -42021.088     3580.584   -45601.672   0.18272217 
   35200    297.87798   -993.47556    133335.25   -41980.494    3636.0229   -45616.517    0.1606985 
   35300    303.73786   -996.55597     133324.2   -42012.145     3707.551   -45719.696   0.17559761 
   35400    298.61321   -1033.9285    133327.68   -42055.643    3644.9974    -45700.64   0.16754399 
   35500    297.62869   -977.41039    133303.18   -42071.699      3632.98   -45704.679    0.1622678 
   35600    298.90529   -1012.6106       133294   -42045.887    3648.5627   -45694.449    0.1678465 
   35700    301.07891    -1026.207    133329.71   -42004.753    3675.0948   -45679.848   0.16415639 
   35800    302.11846   -987.11275    133322.52    -41865.62    3687.7839   -45553.404   0.17572334 
   35900    301.11668   -963.77592    133309.54   -41966.403    3675.5558   -45641.958   0.17356793 
   36000    297.95897   -959.80052    133285.24   -42042.332    3637.0115   -45679.344   0.15654879 
   36100    300.59269   -1003.2952    133260.97   -42079.308    3669.1598   -45748.468   0.17853921 
   36200    294.57295   -1015.2802    133242.77   -42059.148    3595.6803   -45654.828   0.15935353 
   36300    299.28907   -962.63325     133208.8   -42060.853    3653.2473   -45714.101   0.17702299 
   36400    299.43215   -996.36867    133226.79   -42077.498    3654.9937   -45732.492   0.16494381 
   36500    296.02256   -993.43531    133253.47   -42091.436    3613.3749   -45704.811   0.16689901 
   36600    301.05375   -960.35371     133255.7   -42039.788    3674.7877   -45714.576   0.17433475 
   36700    299.68111   -1007.7683    133266.94   -42094.632    3658.0326   -45752.665   0.16009839 
   36800    294.30982   -976.06255    133262.92   -42157.564    3592.4685   -45750.033   0.17419044 
   36900    297.11462     -1002.12    133255.13   -42102.663     3626.705   -45729.368   0.16297979 
   37000    295.97441   -1010.4127    133266.05   -42088.327    3612.7871   -45701.114     0.165403 
   37100    295.78638   -1006.4759    133279.48   -42121.967    3610.4919   -45732.459   0.16587683 
   37200    298.13706   -949.20031    133272.85   -42120.362    3639.1853   -45759.548   0.15878304 
   37300    291.24595   -1049.8293    133256.96   -42129.729    3555.0695   -45684.798   0.16832503 
   37400    292.14323    -973.0147     133234.3   -42155.368    3566.0222    -45721.39   0.16662371 
   37500    301.62736   -965.78535    133245.52   -42114.002    3681.7894   -45795.791   0.16017015 
   37600    290.76548   -991.78791     133257.8   -42140.389    3549.2048   -45689.594   0.17181436 
   37700    293.56693   -966.62487     133264.2   -42252.177    3583.4005   -45835.577   0.15001058 
   37800    287.37744   -980.55771     133220.4    -42280.66    3507.8489   -45788.509   0.17097592 
   37900    291.88859     -1011.74    133256.81   -42160.786    3562.9139     -45723.7   0.15747983 
   38000    294.94372   -1014.9107    133285.25    -42076.97    3600.2061   -45677.176   0.17609537 
   38100    296.33995   -979.03802    133306.23   -42071.945    3617.2491   -45689.194   0.15981121 
   38200    300.67205   -997.97878    133307.76   -42022.728    3670.1285   -45692.857   0.16982574 
   38300    304.34574   -974.15087    133288.42   -42053.201    3714.9711   -45768.173   0.16674135 
   38400    296.44574   -1011.4269    133306.78   -42023.294    3618.5404   -45641.835   0.16817689 
   38500    294.92441   -1024.2324    133282.65   -42049.903    3599.9704   -45649.873   0.17680595 
   38600    299.83168   -992.90667    133315.18   -42040.424    3659.8705   -45700.294    0.1654143 
   38700    297.08446   -1033.1519    133313.88   -42007.447    3626.3368   -45633.784   0.17319444 
   38800    299.33318    -957.8582    133301.47   -42057.377    3653.7857   -45711.162   0.16674184 
   38900    301.70079   -997.17675    133318.52   -41950.505    3682.6857   -45633.191   0.16502297 
   39000    298.62624      -1019.8    133323.24    -42004.81    3645.1564   -45649.966   0.17213706 
   39100    294.53982    -958.6241    133298.13   -42032.356    3595.2759   -45627.632   0.16595587 
   39200    296.50652   -1021.2401    133328.46   -42150.959    3619.2823   -45770.242   0.16237461 
   39300    294.20239   -998.17567    133263.54   -42186.546    3591.1571   -45777.703   0.16973601 
   39400    300.89851   -1017.3416    133307.23   -42026.228    3672.8927   -45699.121   0.16061033 
   39500    299.85012   -1007.5881    133295.61   -42048.693    3660.0957   -45708.788   0.17899027 
   39600    295.74334   -1016.5011    133328.22   -42020.316    3609.9665   -45630.283   0.15638515 
   39700    298.08956   -1015.2474    133291.79   -42026.815    3638.6056    -45665.42   0.17855474 
   39800    296.02132   -1001.2178    133299.16   -42055.246    3613.3597   -45668.606   0.16325482 
   39900    300.97642   -1037.7372    133329.03   -42011.947    3673.8437   -45685.791   0.16851149 
   40000    299.72523   -991.97732     133313.2   -42055.893    3658.5712   -45714.464   0.16732528 
   40100    296.14248   -1033.5407    133320.95   -42080.012    3614.8387    -45694.85   0.16465947 
   40200    298.69518   -947.62682    133321.48    -42051.93    3645.9979   -45697.928   0.16773663 
   40300    299.20451   -985.70416    133305.36   -42116.069    3652.2151   -45768.284   0.16194831 
   40400    294.79727   -1054.0363    133305.21   -42163.468    3598.4184   -45761.887   0.16384567 
   40500     300.2725   -999.87291    133295.11   -42051.439    3665.2513   -45716.691   0.17314826 
   40600    297.06768   -1057.1666    133331.62   -42060.414     3626.132   -45686.546   0.16125417 
   40700    297.91839   -979.70669    133287.09   -42128.154    3636.5161    -45764.67   0.17142075 
   40800    297.11721   -978.36198    133310.68   -42030.088    3626.7366   -45656.825   0.15991771 
   40900    295.23697   -1010.4624    133318.07   -42106.156    3603.7856   -45709.941   0.16592805 
   41000    294.38112   -1040.1754    133314.58   -42100.575    3593.3387   -45693.914   0.16907506 
   41100    298.08924   -1015.3359    133315.24   -42111.912    3638.6017   -45750.513   0.15955271 
   41200    298.65187   -1045.0785    133315.65   -42004.165    3645.4693   -45649.634   0.18616666 
   41300    297.34355   -993.74839    133333.98   -42052.056    3629.4994   -45681.555    0.1564102 
   41400    302.24133   -945.53644    133311.24   -42032.791    3689.2837   -45722.074     0.170313 
   41500    297.50191   -1005.8176    133328.86   -42004.955    3631.4324   -45636.388   0.16479815 
   41600    297.75978   -991.03589     133319.7   -42019.556    3634.5801   -45654.136   0.16391748 
   41700    293.10479   -987.52589    133299.17   -42121.083    3577.7594   -45698.842     0.173329 
   41800    294.84062    -948.5898    133332.29   -42047.382    3598.9477    -45646.33   0.15664734 
   41900    296.74572   -981.82096    133272.14   -42126.218    3622.2021    -45748.42   0.16647974 
   42000    292.52951   -1038.8642    133291.43   -42098.634    3570.7373   -45669.371   0.17377658 
   42100    294.80285   -975.71043    133259.45   -42170.537    3598.4866   -45769.023   0.15577171 
   42200    298.17865   -983.02863    133268.86    -42111.26     3639.693   -45750.953   0.18000633 
   42300    297.01955   -969.44431     133292.4   -42094.177    3625.5445   -45719.722   0.14923963 
   42400    293.59573   -1014.0433     133299.6    -42102.22    3583.7519   -45685.972   0.17526276 
   42500    290.58513   -997.20547     133305.4    -42069.57    3547.0034   -45616.573   0.16442083 
   42600    294.89648   -996.79957    133304.94   -42091.254    3599.6294   -45690.883   0.16005215 
   42700    294.32049   -1041.2728    133303.59   -42178.575    3592.5986   -45771.173   0.17269172 
   42800    302.11276   -982.02904    133310.06   -42100.365    3687.7144   -45788.079    0.1471802 
   42900    294.53422   -1012.2289    133284.03   -42123.831    3595.2075   -45719.039   0.17587015 
   43000    294.13976    -995.9001    133301.09   -42102.407    3590.3926     -45692.8   0.16260892 
   43100    298.73171   -1002.8431    133329.37    -42058.85    3646.4439   -45705.294   0.16606448 
   43200    300.12512   -1009.4852    133327.76   -42077.089    3663.4524   -45740.542   0.17249792 
   43300    294.99015   -988.16944    133303.15   -42126.825    3600.7729   -45727.598   0.15400578 
   43400    298.42199   -983.19772    133313.74   -42052.239    3642.6633   -45694.903   0.16973458 
   43500    295.83822   -982.32972    133331.12   -42059.697    3611.1248   -45670.821   0.16878277 
   43600    296.80006   -992.54983    133318.56   -42083.269    3622.8653   -45706.134   0.15923757 
   43700    291.70539   -990.45569    133277.68   -42157.097    3560.6777   -45717.774   0.17305805 
   43800    291.92586   -979.67188     133291.2   -42180.474    3563.3688   -45743.843   0.15164138 
   43900    292.22589   -983.66126    133299.77   -42095.561    3567.0312   -45662.592   0.17822783 
   44000    295.41824   -993.03058    133306.59   -42196.997    3605.9982   -45802.995   0.15471601 
   44100    296.93122   -1008.6759     133272.7   -42194.936    3624.4664   -45819.402   0.16594104 
   44200    299.60652   -984.33288    133290.67   -42104.123    3657.1221   -45761.245   0.15950278 
   44300    297.53309   -991.57236     133290.9   -42110.175     3631.813   -45741.988   0.15831632 
   44400    292.75946   -1037.9552    133297.53   -42150.056     3573.544     -45723.6   0.17008362 
   44500    295.31338    -989.8495    133318.24   -42133.562    3604.7183    -45738.28   0.15902001 
   44600    295.37189    -1031.572    133296.48   -42117.744    3605.4325   -45723.177    0.1696143 
   44700    298.37901   -965.79155    133298.82   -42098.795    3642.1387   -45740.933   0.16061873 
   44800    294.96632   -977.57846    133301.96   -42101.066     3600.482   -45701.548   0.16571415 
   44900    299.90876   -979.83668    133331.14   -42073.112    3660.8115   -45733.924   0.16952766 
   45000    298.17422   -1050.1603    133326.97   -42086.774    3639.6389   -45726.413   0.16248951 
   45100     298.1165     -954.113    133336.26   -41990.436    3638.9343   -45629.371    0.1689458 
   45200    304.38608   -997.70147    133322.84   -42026.041    3715.4634   -45741.505   0.16169042 
   45300     298.7877   -1013.6762    133317.76   -42067.932    3647.1273    -45715.06     0.163862 
   45400    300.49028   -1004.3778    133282.75   -42079.091    3667.9098   -45747.001    0.1732093 
   45500    297.21551   -1022.5758    133315.95   -42043.721    3627.9365   -45671.658   0.15530404 
   45600    296.76577   -1000.0526    133291.42   -42008.887    3622.4467   -45631.333   0.18323788 
   45700    299.73436   -976.61992    133309.17   -41987.856    3658.6826   -45646.539   0.15881903 
   45800    298.90728   -1009.6109    133318.44    -42037.07     3648.587   -45685.657   0.17645931 
   45900    300.70856   -1013.1863    133303.26   -41962.317    3670.5741   -45632.891   0.17137677 
   46000    304.73591   -943.44118     133314.6   -41996.883    3719.7337   -45716.617   0.16323833 
   46100    303.87373   -1000.2099    133320.75   -41908.123    3709.2095   -45617.333   0.17840409 
   46200     297.8306   -1035.0372    133338.16   -41971.863    3635.4446   -45607.307   0.16579013 
   46300    300.22856   -987.43572    133335.11   -41937.312     3664.715   -45602.027   0.17704889 
   46400     300.4404   -1000.8264    133293.11   -41998.493    3667.3008   -45665.794   0.17223246 
   46500    300.78499   -1014.5691    133288.85   -41929.859    3671.5071   -45601.366   0.16803535 
   46600    293.08224   -1015.5416    133294.96   -42043.544    3577.4841   -45621.028   0.18105276 
   46700    300.75057   -975.49878    133314.68   -41971.861    3671.0869   -45642.948   0.16035971 
   46800    302.34906   -1018.0711    133306.51    -41966.01    3690.5988   -45656.609   0.17403423 
   46900     300.7222   -1015.1572    133269.93   -41994.508    3670.7406   -45665.249   0.16894172 
   47000    298.63238   -944.94977    133266.53   -42059.578    3645.2314    -45704.81   0.15638667 
   47100    293.90442   -1016.5113    133227.54   -42063.475      3587.52   -45650.995    0.1817202 
   47200    298.48421   -970.79786    133266.32   -42075.972    3643.4227   -45719.394   0.15381512 
   47300    288.46499   -1042.3188    133248.59   -42137.667     3521.124   -45658.791   0.17708388 
   47400    302.42506   -980.12637    133231.13   -42080.021    3691.5264   -45771.547   0.16077834 
   47500    293.93611   -1013.5141    133234.96   -42110.107    3587.9068   -45698.014   0.17147352 
   47600    298.14838   -981.76846    133230.12   -42078.004    3639.3235   -45717.327   0.17481183 
   47700    300.62257   -991.27834    133254.67   -42023.452    3669.5245   -45692.976   0.16346046 
   47800    295.88535   -1030.0223    133240.29   -42069.244       3611.7   -45680.944   0.17223275 
   47900    289.43802   -1028.3289    133227.76   -42118.978    3533.0012    -45651.98    0.1688567 
   48000    295.28149   -1019.3485    133252.67   -42078.684    3604.3291   -45683.013   0.16788529 
   48100    287.06109   -1005.1326    133250.06   -42127.731    3503.9874   -45631.718   0.17520526 
   48200    298.77224   -983.11937    133270.73   -42117.438    3646.9386   -45764.376    0.1570985 
   48300    294.63181   -975.68374    133275.53   -42090.902    3596.3988     -45687.3   0.17189712 
   48400    296.24482   -986.73125    133264.41   -42092.039    3616.0879   -45708.126   0.15876565 
   48500    291.33084   -1015.4003     133265.9   -42180.155    3556.1058   -45736.261    0.1677522 
   48600    288.78423   -1017.9567     133252.3   -42173.913    3525.0208   -45698.933   0.16791884 
   48700     298.6847   -972.62286    133306.46   -42073.868    3645.8701   -45719.738   0.16145557 
   48800     303.4608   -1006.6655    133302.76     -42080.6    3704.1691   -45784.769   0.16978689 
   48900     303.5857   -979.41785    133303.91     -42060.4    3705.6937   -45766.094   0.15545144 
   49000    291.93481    -1019.408    133279.11    -42109.08    3563.4781   -45672.558   0.17321925 
   49100    297.87754   -1048.9582    133307.48    -42046.23    3636.0176   -45682.248   0.16877211 
   49200    293.30067   -1043.4062    133294.57    -42051.98    3580.1503    -45632.13   0.17171314 
   49300    296.48492   -1021.1526    133290.71   -42102.843    3619.0186   -45721.862   0.17295632 
   49400    292.79531   -988.70168    133242.31   -42145.042    3573.9817   -45719.024   0.15998761 
   49500    298.84256   -985.50573     133261.1   -42072.732    3647.7969   -45720.529   0.16835709 
   49600    298.03424   -989.86887    133240.82   -42092.519    3637.9302    -45730.45   0.16342481 
   49700    298.26973   -990.32263    133276.32   -42117.822    3640.8048   -45758.626   0.15723184 
   49800    303.53969   -980.99439    133266.54   -42093.658    3705.1321    -45798.79   0.16723878 
   49900    298.98344   -983.69298    133278.82   -42057.687    3649.5166   -45707.203   0.15562066 
   50000    292.59388   -1016.9888    133277.26   -42063.018     3571.523   -45634.541   0.17663906 
   50100    294.37291   -984.70758    133322.24   -41940.661    3593.2386     -45533.9   0.16847337 
   50200    295.20978   -1004.2106    133325.33   -42026.492    3603.4537   -45629.945   0.16834283 
   50300    297.16346   -989.26427    133298.52   -42031.336    3627.3012   -45658.637   0.16788235 
   50400    300.00294   -1017.4784    133312.28   -42055.866     3661.961   -45717.827    0.1592858 
   50500    305.35666   -982.27163    133305.47   -41995.477    3727.3107   -45722.788   0.16853882 
   50600    303.68072   -976.46467    133335.44    -41887.02    3706.8536   -45593.873   0.16822429 
   50700    293.16717   -1003.4045    133333.08   -42133.042    3578.5208   -45711.563   0.16373474 
   50800     297.8358   -1000.4954    133292.83   -42137.991    3635.5081   -45773.499   0.16354078 
   50900    295.14886   -949.72383    133287.94   -42143.822    3602.7101   -45746.532   0.16038029 
   51000    297.49632    -1011.844    133295.95   -42111.799    3631.3642   -45743.163   0.16523733 
   51100    293.50665   -991.89636    133303.85   -42106.817    3582.6646   -45689.481   0.16414879 
   51200    293.80024   -1030.3653    133299.33   -42166.457    3586.2482   -45752.705   0.15899654 
   51300    295.18485   -1012.5908    133271.36    -42175.94    3603.1494    -45779.09   0.16099385 
   51400    294.50432   -993.69024     133268.6   -42109.825    3594.8425   -45704.667   0.16067144 
   51500    291.37322    -989.8256    133284.77   -42142.876     3556.623   -45699.499   0.16505536 
   51600     296.8941   -967.24683    133302.61   -42085.882    3624.0133   -45709.895   0.16164917 
   51700    296.50283   -965.95838    133308.83   -42024.773    3619.2372   -45644.011    0.1732337 
   51800    295.41095   -1021.2484    133316.34   -42015.149    3605.9093   -45621.058   0.16421853 
   51900    296.53026   -1018.8563    133307.62    -42075.81    3619.5721   -45695.383   0.16730558 
   52000    298.34765   -1042.1006    133287.39   -42079.855    3641.7558   -45721.611   0.16448307 
   52100    295.62469   -1037.3298    133301.91   -42164.302    3608.5183    -45772.82   0.16293403 
   52200    293.15707   -1013.3431    133279.37   -42191.096    3578.3975   -45769.493   0.16386469 
   52300    290.56569   -1023.9816    133267.32   -42186.093     3546.766   -45732.859   0.16058698 
   52400    293.14847   -993.56561    133234.88   -42268.729    3578.2925   -45847.022   0.16051154 
   52500     299.2958   -933.22767    133243.95    -42142.51    3653.3294    -45795.84   0.15963798 
   52600    295.87531    -993.4951    133275.26   -42060.134    3611.5775   -45671.711   0.16606237 
   52700    294.45059   -1013.9563    133281.89   -42075.529    3594.1867   -45669.715    0.1722859 
   52800    298.62342   -953.89165    133313.03   -41965.746     3645.122   -45610.869   0.16351572 
   52900    296.91373   -1043.2625     133299.7   -42019.404    3624.2528   -45643.657    0.1720301 
   53000    302.12578   -1020.4924    133307.31   -41985.882    3687.8734   -45673.756   0.16371994 
   53100    296.88859   -994.48459    133272.14   -42106.931     3623.946   -45730.877   0.16143083 
   53200    294.52263   -989.33941    133254.64   -42159.381    3595.0661   -45754.447   0.16789531 
   53300    293.06713   -975.25665    133282.69   -42147.332    3577.2997   -45724.631   0.15421371 
   53400    293.08747   -1034.6326    133262.14    -42061.28    3577.5479   -45638.828   0.17609429 
   53500    299.51683   -1009.8024    133293.31    -42028.88    3656.0273   -45684.908   0.16248348 
   53600    292.46729   -1055.1147    133287.19   -42113.064    3569.9777   -45683.041   0.17007332 
   53700    292.68125   -1023.0751    133284.42   -42070.005    3572.5894   -45642.594   0.17245523 
   53800    296.28033   -989.86277    133283.19   -42109.305    3616.5213   -45725.826   0.15616421 
   53900    292.40407   -1024.2415    133300.48     -42117.1     3569.206   -45686.306   0.16480294 
   54000    293.60206   -990.66192    133286.89    -42151.85    3583.8292   -45735.679    0.1579971 
   54100    295.81586   -987.22911    133301.82   -42094.398    3610.8518    -45705.25    0.1611453 
   54200    295.50198   -999.03889    133316.62   -42037.825    3607.0204   -45644.846   0.17121434 
   54300    297.72186   -1022.7498    133333.24   -41975.341    3634.1172   -45609.458   0.16124289 
   54400    308.86634   -961.65147    133345.44   -41931.917    3770.1514   -45702.069   0.16951281 
   54500    300.71173   -979.45355    133296.05   -41988.365    3670.6129   -45658.978   0.16476055 
   54600    305.52049   -1016.2743    133313.09   -41981.035    3729.3105   -45710.345   0.16821253 
   54700    303.64712    -958.7262    133308.85   -42006.646    3706.4435    -45713.09   0.16703507 
   54800    295.44488    -1015.587    133330.89   -41992.493    3606.3235   -45598.816   0.16472793 
   54900     303.8582   -1007.1885    133300.43   -41995.669      3709.02   -45704.689   0.17122438 
   55000    300.58391   -1001.7101    133312.17   -42012.213    3669.0526   -45681.266   0.16162147 
   55100    295.41491     -976.865    133317.54    -42021.95    3605.9577   -45627.908   0.16892459 
   55200    295.64731   -988.63158    133290.22    -42155.92    3608.7944   -45764.714   0.16132838 
   55300    290.69477   -1024.2349    133280.58   -42213.664    3548.3417   -45762.006   0.15995582 
   55400    301.07148   -951.86701    133274.56   -42147.209    3675.0041   -45822.213   0.16037632 
   55500    294.38101   -982.33505    133265.24   -42147.768    3593.3374   -45741.105   0.15778395 
   55600    296.36378   -988.46791    133322.07   -42033.649    3617.5399   -45651.189   0.16435044 
   55700    303.56417   -996.65913    133349.91   -41978.079    3705.4309    -45683.51   0.16375091 
   55800     302.7987   -978.48811    133364.66   -41967.321    3696.0872   -45663.408   0.16309317 
   55900    301.98794   -1020.5475    133340.82   -41999.586    3686.1908   -45685.776    0.1687447 
   56000    301.12168   -1013.0861    133351.74   -42003.191    3675.6168   -45678.808   0.16080436 
   56100    296.26049    -993.6953     133347.3   -41984.749    3616.2791   -45601.028   0.17286543 
   56200     300.8839   -986.40338    133348.51   -42007.469    3672.7144   -45680.183   0.16122067 
   56300    290.42703   -1010.7697    133360.36   -42102.346    3545.0734    -45647.42   0.16584212 
   56400    294.96512   -1012.6915    133323.36   -42137.972    3600.4673   -45738.439   0.16096773 
   56500    299.00889    -958.4748    133295.62   -42187.818    3649.8272   -45837.646   0.15026181 
   56600    295.13718   -982.24088    133259.48   -42234.343    3602.5675   -45836.911    0.1618414 
   56700    292.72028   -1018.0516    133288.05    -42183.26    3573.0658   -45756.325   0.15593057 
   56800    296.89592   -1017.3855    133290.34   -42080.954    3624.0355    -45704.99   0.16725664 
   56900    294.30722    -1004.134    133295.52   -42191.973    3592.4367   -45784.409   0.15884097 
   57000    293.73538   -1036.7104    133263.27   -42213.174    3585.4565   -45798.631   0.15744237 
   57100    298.11978   -1020.1543    133306.45   -42092.969    3638.9744   -45731.944   0.16738601 
   57200    297.22615   -1031.0318    133332.54   -42060.003    3628.0664    -45688.07   0.16068769 
   57300    296.81307   -1035.7311    133313.25    -42189.22    3623.0241   -45812.244   0.15876165 
   57400    303.84696   -973.19246    133331.13   -42089.038    3708.8827    -45797.92   0.15564683 
   57500    296.88941   -991.33875     133333.4   -42082.198     3623.956   -45706.154   0.15517249 
   57600    294.24335   -966.11732    133288.79   -42151.419    3591.6571   -45743.076    0.1643968 
   57700    301.30973   -979.73999    133314.36   -42110.448    3677.9123    -45788.36   0.15565063 
   57800    294.37677   -1041.6335    133342.08   -42034.572    3593.2856   -45627.858   0.17046229 
   57900    294.17516    -1024.908    133331.65   -42102.189    3590.8247   -45693.014   0.16037747 
   58000    301.11014    -995.0719    133334.87   -42035.095     3675.476   -45710.571   0.16127975 
   58100    301.88486   -1006.6848     133314.8   -42096.119    3684.9326   -45781.052   0.16105846 
   58200    303.54097   -983.59125     133345.6    -41941.89    3705.1477   -45647.038   0.16306485 
   58300      295.251    -1017.605     133337.7    -42014.82    3603.9569   -45618.777   0.16564221 
   58400    298.37444   -1020.1919    133328.54    -42056.57    3642.0829   -45698.653   0.16094797 
   58500    300.77289   -1006.9998    133329.73   -42080.641    3671.3593       -45752    0.1596662 
   58600    300.25117    -968.2546    133314.02   -42122.484     3664.991   -45787.475   0.15721342 
   58700    299.87451   -995.62563    133326.46   -42077.385    3660.3934   -45737.779   0.15982768 
   58800    298.45904   -991.30968    133326.85   -42089.704    3643.1155   -45732.819   0.16099171 
   58900    298.62802   -1017.3681    133333.18   -42034.116    3645.1782   -45679.294   0.16329238 
   59000    302.31651   -1033.9919    133344.58    -41951.36    3690.2015   -45641.561   0.16776888 
   59100    300.22257   -998.11001    133330.92    -41955.04    3664.6419   -45619.682   0.16471446 
   59200    298.75896   -1039.8918    133320.28   -42042.272    3646.7765   -45689.048   0.16083149 
   59300     298.6001   -984.57334    133320.85   -42052.159    3644.8373   -45696.997   0.16728643 
   59400    299.72892   -1022.9839    133315.32   -42032.766    3658.6162   -45691.382   0.15988694 
   59500    296.66701   -1009.6193    133307.55   -42142.291    3621.2413   -45763.532   0.16717599 
   59600    298.00724   -1009.2613    133286.86   -42069.745    3637.6007   -45707.345   0.15901377 
   59700     295.5479    -1020.204    133311.23   -42030.469     3607.581    -45638.05   0.16855503 
   59800    297.77154   -967.84729    133313.02   -42165.562    3634.7236   -45800.286   0.15739297 
   59900    294.41609   -983.58722    133311.86   -42165.975    3593.7656   -45759.741   0.15298392 
   60000    294.40964   -1018.7354    133328.04   -42114.442    3593.6868   -45708.129   0.16453051 
   60100     302.1248   -985.17966    133315.13   -42105.689    3687.8614   -45793.551   0.15436258 
   60200    300.99882   -1016.0262    133318.89   -42066.184    3674.1171   -45740.301   0.16145312 
   60300    302.98746   -1018.3927    133323.13   -42004.962    3698.3913   -45703.354   0.16673653 
   60400    302.75506   -1011.0602     133355.3   -41968.652    3695.5545   -45664.207    0.1594457 
   60500    301.91247   -1021.6395    133349.42   -41957.468    3685.2696   -45642.738   0.17121847 
   60600    294.31568   -1005.7838    133326.86   -42046.558    3592.5399   -45639.098   0.16238781 
   60700    300.61204   -969.70746    133337.15   -41909.239    3669.3959   -45578.634   0.16455722 
   60800    305.49889   -990.53199    133343.42   -41907.314    3729.0468   -45636.361   0.17151278 
   60900    302.57035    -1001.765    133356.38    -41961.63    3693.2999   -45654.929   0.15786003 
   61000    299.75806   -998.78794    133324.04   -42053.186    3658.9719   -45712.158   0.16907205 
   61100      297.901   -1039.5851    133325.38   -41994.359    3636.3038   -45630.662   0.16349827 
   61200    300.65493   -976.39194    133311.17   -42010.079    3669.9195   -45679.998   0.16231661 
   61300    296.20691    -1013.645     133314.1   -42035.442    3615.6252   -45651.067   0.16714435 
   61400    294.39749   -992.87631    133303.74   -42057.773    3593.5385   -45651.312   0.16060218 
   61500    293.26331   -1016.6518     133303.1   -42040.591    3579.6943   -45620.286   0.16674351 
   61600    295.26316   -995.32269    133300.81   -42103.817    3604.1053   -45707.922    0.1596301 
   61700    294.52543   -998.10158    133293.47   -42119.821    3595.1003   -45714.922   0.15973537 
   61800    296.28291   -1019.4616    133281.94   -42114.564    3616.5528   -45731.116    0.1637654 
   61900     297.1342   -980.34365     133289.9   -42027.589     3626.944   -45654.533   0.16061815 
   62000    294.74021   -1005.2988    133327.29   -42050.488    3597.7219    -45648.21   0.16917134 
   62100    294.65282   -1006.1617    133310.65   -42073.388    3596.6552   -45670.044   0.16267578 
   62200    298.14963   -992.02226    133321.74   -41981.291    3639.3388    -45620.63   0.16970568 
   62300    294.43943   -991.84459    133319.11   -42088.472    3594.0505   -45682.522   0.16123963 
   62400    293.74723   -1037.1343    133322.53    -42092.25    3585.6012   -45677.851   0.16042198 
   62500    295.03273   -1007.5246    133305.78   -42089.022    3601.2926   -45690.315     0.164553 
   62600    292.35625   -1017.8775    133323.85    -42120.28    3568.6224   -45688.903   0.15930316 
   62700    296.30315   -1000.0317    133329.76   -42111.553    3616.7999   -45728.353   0.16513128 
   62800    297.28513   -974.46704    133295.39   -42110.757    3628.7863   -45739.544   0.15471104 
   62900    296.69239   -990.16265    133334.32   -42059.919    3621.5511   -45681.471   0.16542885 
   63000    292.03601   -1026.9482    133331.31   -42105.662    3564.7133   -45670.376   0.16252201 
   63100      289.666   -1050.7372    133317.46   -42171.419     3535.784   -45707.203   0.16013456 
   63200    301.33171   -992.81037    133311.46   -42034.522    3678.1806   -45712.702   0.16637907 
   63300    295.28295   -1013.6109    133308.01   -42124.732    3604.3468   -45729.078   0.15761139 
   63400    293.80676   -1027.1949    133294.66   -42196.614    3586.3279   -45782.942   0.15792498 
   63500     297.3194   -997.22322    133296.28   -42148.692    3629.2047   -45777.897   0.16024543 
   63600    296.06596   -1024.7842    133273.01   -42219.816    3613.9046   -45833.721   0.15339632 
   63700    289.55561   -972.48316    133251.61   -42225.487    3534.4366   -45759.924   0.16292427 
   63800    291.04526   -1015.5908    133254.22   -42253.961    3552.6198   -45806.581    0.1515665 
   63900    298.46016   -977.80728    133283.75   -42150.974    3643.1293   -45794.103   0.16104852 
   64000    291.01244   -1000.2096    133284.63   -42069.384    3552.2192   -45621.603    0.1666615 
   64100     298.6048   -977.75699    133338.14   -42041.098    3644.8947   -45685.992   0.15613829 
   64200    303.75893   -1000.0935    133317.46    -42000.88    3707.8082   -45708.688   0.16846344 
   64300    305.44948   -997.21108    133321.45   -42017.777    3728.4438   -45746.221   0.15266699 
   64400    301.14499   -1045.1894    133310.21   -42100.436    3675.9014   -45776.337    0.1650992 
   64500     294.5381   -1023.2882    133278.35   -42077.782    3595.2549   -45673.037   0.16598123 
   64600    296.91383   -1023.1489    133293.06   -42147.312    3624.2541   -45771.566   0.15763678 
   64700    292.30229   -1022.2056    133280.51    -42172.14    3567.9637   -45740.104   0.16857659 
   64800    291.95912   -1019.3618    133266.13     -42100.9    3563.7748   -45664.674   0.16101072 
   64900    298.13832   -971.90572    133275.36   -42025.463    3639.2007   -45664.664   0.16947595 
   65000    302.34299   -1032.9626    133321.92   -42004.752    3690.5247   -45695.276   0.16474755 
   65100    302.24752   -1014.9383    133347.97   -42064.732    3689.3594   -45754.092   0.15567975 
   65200    299.09434   -1034.2179    133299.75   -42079.064    3650.8703   -45729.934   0.17064304 
   65300    300.26517   -995.53474    133321.57    -41993.54    3665.1619   -45658.702   0.15759688 
   65400    295.13697   -1025.7328    133301.02   -42044.484    3602.5649   -45647.049   0.17140853 
   65500     299.4617    -958.7969    133318.17   -41969.178    3655.3544   -45624.532   0.16206017 
   65600    300.23551   -987.92007    133318.73   -41970.596    3664.7999   -45635.396   0.16529424 
   65700    301.41928   -1019.7747    133323.12   -41966.873    3679.2494   -45646.123   0.17180165 
   65800    301.04533   -1006.1617    133351.71   -42019.864    3674.6849   -45694.549   0.15644253 
   65900    298.58523   -1056.0656    133339.82    -42041.61    3644.6558   -45686.266   0.17031979 
   66000    300.04901   -1004.1229    133323.42   -42031.516    3662.5233   -45694.039   0.15828115 
   66100    296.94145   -972.03885    133307.97   -42065.756    3624.5912   -45690.347   0.16118855 
   66200    292.82857   -1016.5825     133289.2   -42137.878    3574.3877   -45712.266   0.16329559 
   66300    294.81553   -993.58518    133291.81   -42127.267    3598.6413   -45725.908   0.15587314 
   66400    294.46309   -1013.9778    133303.79   -42108.393    3594.3393   -45702.732   0.16858824 
   66500    294.42234    -969.7716    133300.24    -42077.81    3593.8419   -45671.652   0.15468075 
   66600    292.95082   -1012.0824    133277.59   -42121.795    3575.8799   -45697.674   0.16587954 
   66700    300.74953   -1013.9064    133263.72   -42113.618    3671.0742   -45784.692   0.16445381 
   66800    296.57348   -994.22305    133275.08   -42155.432    3620.0996   -45775.532   0.15454842 
   66900    289.73433    -1009.852    133240.97   -42130.576    3536.6181   -45667.194   0.17125877 
   67000    291.65196   -996.49848    133265.29   -42250.333    3560.0255   -45810.359   0.14455759 
   67100    300.85372   -962.55594     133267.8   -42065.797     3672.346   -45738.143   0.16427614 
   67200    295.80681   -992.51488    133255.24   -42119.027    3610.7414   -45729.769   0.16533429 
   67300    294.28614   -1017.3295    133249.43   -42118.079    3592.1793   -45710.258   0.16073177 
   67400    298.49386   -993.32068    133248.05   -42076.466    3643.5406   -45720.006   0.17286198 
   67500    303.39847   -965.07677    133287.66   -42063.926    3703.4083   -45767.334    0.1496683 
   67600    305.09137   -989.54824    133298.05    -41944.57    3724.0725   -45668.642    0.1728855 
   67700    301.57594   -993.73577    133330.24   -41994.786    3681.1617   -45675.947   0.16091297 
   67800    299.32192   -1007.1891    133302.23    -42031.21    3653.6483   -45684.858   0.16060169 
   67900    295.71148   -1021.3307    133289.78   -42053.944    3609.5776   -45663.522   0.17157902 
   68000     295.0264   -1000.6794    133281.67   -42107.328    3601.2153   -45708.543   0.15385908 
   68100    295.36089   -966.34729    133273.02   -42104.737    3605.2983   -45710.036   0.16524263 
   68200     294.8851   -1007.4201    133291.47   -42118.571    3599.4905   -45718.061    0.1605524 
   68300    296.58482   -1000.7648    133311.02   -42042.679    3620.2381   -45662.917   0.16447503 
   68400    300.14444   -968.27299     133323.1   -41969.692    3663.6882    -45633.38   0.16823711 
   68500    299.80615   -982.07849    133329.79   -42000.173    3659.5589   -45659.732    0.1601631 
   68600    295.23124    -981.0727    133301.87   -42021.899    3603.7157   -45625.615   0.16775329 
   68700    298.52281   -990.58664    133311.16   -42069.245    3643.8939   -45713.139   0.15768504 
   68800    295.73174    -974.6946    133283.92    -42056.41     3609.825   -45666.235   0.16414541 
   68900    298.01542   -995.80268    133263.45   -42043.498    3637.7005   -45681.199   0.16031021 
   69000    297.25793   -966.54345    133283.09   -42038.216    3628.4543    -45666.67   0.16093688 
   69100    294.32423   -1021.4976    133248.74   -42151.483    3592.6444   -45744.127   0.16433411 
   69200    296.62865   -1041.9875    133254.34   -42126.972     3620.773   -45747.745    0.1579166 
   69300    295.60664   -1020.4681    133221.12   -42142.663     3608.298   -45750.961   0.16852048 
   69400    297.44944   -994.88504    133241.73    -42205.86     3630.792   -45836.652   0.15058412 
   69500    293.99806   -977.19669    133254.39    -42138.56    3588.6629   -45727.223    0.1631705 
   69600    302.14557    -982.5887     133282.4   -41940.128    3688.1148   -45628.243   0.16859756 
   69700    299.85819   -1041.9536    133306.43   -42027.714    3660.1942   -45687.909   0.15963774 
   69800    299.26488   -996.69722    133305.67   -42081.073    3652.9519   -45734.025   0.16576735 
   69900    295.14093   -1006.4331    133267.28   -42144.374    3602.6133   -45746.988   0.15369316 
   70000    295.52566   -971.35284     133272.9   -42060.936    3607.3095   -45668.246   0.16756893 
   70100    289.41168   -991.64899    133264.76   -42171.858    3532.6797   -45704.538   0.16041868 
   70200    302.56392    -980.1057    133277.64   -42047.907    3693.2214   -45741.128   0.15449335 
   70300    295.69813   -1026.9064    133280.71   -42100.046    3609.4147   -45709.461   0.17268737 
   70400    300.87881   -1016.9532    133301.35   -41963.769    3672.6523   -45636.422   0.15812126 
   70500    299.80688   -950.28645    133267.49    -42065.07    3659.5679   -45724.638   0.16640097 
   70600    295.13686   -1008.8522    133272.25   -42066.491    3602.5636   -45669.054   0.16095487 
   70700    293.63056   -997.08812    133285.13   -42067.704    3584.1771   -45651.881    0.1557708 
   70800    292.71101   -1004.1281    133266.45   -42094.433    3572.9526   -45667.385   0.17218512 
   70900    293.10036   -1015.0127    133285.15    -42134.02    3577.7053   -45711.725   0.15099733 
   71000    293.01879   -1011.1625    133266.57   -42094.715    3576.7095   -45671.424   0.17270999 
   71100    299.26449   -979.11843    133241.74   -42152.905    3652.9472   -45805.853   0.15491886 
   71200    297.03982   -974.14115    133270.17   -42077.884     3625.792   -45703.676   0.15516407 
   71300    294.64773   -994.06585    133224.49   -42181.352    3596.5931   -45777.945   0.16816153 
   71400    296.25806   -961.47086    133271.97   -42121.006    3616.2495   -45737.255   0.14923817 
   71500     298.5024   -1014.9269    133266.14   -42076.814    3643.6448   -45720.459   0.16827778 
   71600    298.26951   -973.63892    133263.07   -42060.208     3640.802    -45701.01   0.15927516 
   71700    292.05578   -962.16738    133245.98   -42087.954    3564.9546   -45652.908   0.15737478 
   71800    289.15329   -1011.8486    133219.86   -42181.836    3529.5257   -45711.362    0.1691583 
   71900    293.83545   -1028.1855     133240.9   -42202.945    3586.6781   -45789.623    0.1514669 
   72000    288.46465   -1016.1115    133263.48   -42183.941    3521.1198   -45705.061   0.16788618 
   72100     295.6392    -1012.495    133281.63   -42047.167    3608.6954   -45655.863   0.16055208 
   72200    299.53155   -989.95803    133298.97   -41915.938    3656.2071   -45572.145   0.16560483 
   72300    300.24156   -1034.6535    133309.11   -41850.872    3664.8737   -45515.746   0.17799265 
   72400    304.18557   -993.62505    133304.26   -42016.242     3713.016   -45729.258   0.15621321 
   72500    303.85569   -1013.2697    133267.82   -42022.296    3708.9893   -45731.285   0.16724858 
   72600    303.53081    -1007.341    133283.57   -41954.172    3705.0237   -45659.196    0.1586618 
   72700    295.95538   -1018.4107    133248.42   -42061.107    3612.5548   -45673.662   0.16984233 
   72800    299.41022   -973.92768    133253.63   -42036.413     3654.726   -45691.139   0.16852149 
   72900    297.32265   -984.84477    133265.15    -42023.01    3629.2443   -45652.254   0.16389673 
   73000    297.07229   -971.52607    133252.03   -42063.843    3626.1884   -45690.032   0.16664386 
   73100    305.82134   -979.04152    133266.11   -42042.396    3732.9828   -45775.378   0.15356808 
   73200    302.54473   -996.86722    133279.46   -41960.878    3692.9871   -45653.865   0.17310443 
   73300    301.41736   -998.34232    133281.89   -41902.352    3679.2261   -45581.578   0.16865768 
   73400     304.9895   -1007.0626    133312.86   -41921.985    3722.8291   -45644.814    0.1655224 
   73500    301.76149   -1035.3569    133300.95   -41905.781    3683.4266   -45589.208   0.17572936 
   73600    296.22318    -979.1202    133274.43    -41935.95    3615.8237   -45551.774   0.16323741 
   73700    292.84778   -1049.3601    133270.77   -42053.029    3574.6222   -45627.651   0.17276051 
   73800    295.35331   -1039.0845     133272.7   -42134.799    3605.2057   -45740.004   0.16181453 
   73900    294.48887   -1035.7738     133256.9   -42100.656     3594.654   -45695.309   0.16498514 
   74000    291.51698   -998.72986    133255.21   -42080.206    3558.3779   -45638.584   0.16847658 
   74100    304.68738   -980.53677    133287.17   -41914.885    3719.1413   -45634.027   0.16316553 
   74200    302.73545   -982.82451     133293.4   -42024.916    3695.3152   -45720.232   0.17202231 
   74300    301.22411   -1016.5397    133284.57   -42085.834    3676.8671   -45762.701   0.16142075 
   74400    293.56208   -1014.2994    133273.45   -42050.949    3583.3412    -45634.29   0.17012913 
   74500    295.40942    -1002.537    133280.41   -42115.346    3605.8906   -45721.237   0.16640904 
   74600    295.56511   -1007.1755     133302.2   -42071.538     3607.791   -45679.329   0.15815564 
   74700    296.64079   -1021.2127    133280.54   -42015.281    3620.9212   -45636.202   0.17374796 
   74800    295.47596   -1008.8609    133259.84   -42079.663    3606.7028   -45686.365   0.15972897 
   74900    297.90996    -989.0508     133262.5   -42043.513    3636.4132   -45679.926     0.167993 
   75000    295.23625   -1000.0279    133247.05   -42095.941    3603.7768   -45699.718   0.16112634 
   75100    299.79156   -960.88937    133287.52   -42000.166    3659.3808   -45659.547   0.15809961 
   75200     294.7963   -970.02086    133281.23   -42002.298    3598.4067   -45600.705   0.16732053 
   75300    292.07295   -1013.7035    133279.63   -42075.556    3565.1643   -45640.721   0.15832601 
   75400    300.15437   -1005.1189    133274.36   -42104.997    3663.8094   -45768.806   0.16309147 
   75500    296.34587   -1012.8384    133251.23   -42121.589    3617.3213    -45738.91   0.16088088 
   75600    295.62692   -947.26106    133269.19   -42045.265    3608.5455   -45653.811    0.1650126 
   75700    303.61262   -1015.0498    133268.38   -41953.694    3706.0223   -45659.716   0.17007648 
   75800     302.4187   -979.72415    133277.76   -41942.682    3691.4488   -45634.131   0.16107971 
   75900    294.26414   -990.79712    133273.78   -42002.593    3591.9108   -45594.504   0.17375499 
   76000    301.09092   -1022.9468    133267.63   -41988.449    3675.2413    -45663.69   0.16318263 
   76100    293.99499   -996.99455    133275.03   -42084.051    3588.6255   -45672.677    0.1648757 
   76200     295.0418   -982.47712    133288.04   -42139.632    3601.4033   -45741.036   0.15690358 
   76300    296.47536   -983.35257    133268.84   -42088.319    3618.9019   -45707.221    0.1554854 
   76400     296.5547   -1039.8609    133290.01   -42110.913    3619.8704   -45730.783     0.167474 
   76500    297.68576   -974.55594    133294.33    -42055.95    3633.6765   -45689.627   0.15362533 
   76600     294.6345   -1052.2979    133301.72    -42047.78    3596.4316   -45644.212   0.16964616 
   76700    299.70941   -933.40415     133328.3   -42010.123    3658.3781   -45668.501   0.15316658 
[...]
   81900    291.92663    -991.6703    133292.24    -42130.49    3563.3782   -45693.868    0.1552002 
   82000    296.53418   -1010.9062    133339.17   -42062.715    3619.6199   -45682.335   0.15818856 
   82100    299.96387   -983.80935    133373.72   -42015.136    3661.4842    -45676.62   0.15113271 
   82200    302.01124   -985.58502    133374.37   -41972.879    3686.4752   -45659.355   0.15643772 
   82300    304.42438   -942.26015    133356.13   -42066.206    3715.9309   -45782.137   0.15456387 
   82400    297.74905   -976.95154    133337.77   -41987.875    3634.4491   -45622.324   0.15455622 
   82500    297.80238   -970.42638    133379.93   -41877.601    3635.1001   -45512.701   0.16550822 
   82600    302.36298   -983.35924     133381.8   -41934.155    3690.7687   -45624.924   0.15111184 
   82700     298.6967   -994.43845    133331.98   -42054.281    3646.0165   -45700.298   0.15757693 
   82800    295.37593   -1002.5899    133302.37   -42052.285    3605.4819   -45657.767   0.15791354 
   82900     296.1471   -997.24794    133332.12   -42010.857     3614.895   -45625.752   0.15784958 
   83000    295.63147    -1000.259    133343.14   -41973.664    3608.6011   -45582.265   0.16130298 
   83100    303.01766   -1004.7517    133353.63   -41951.657    3698.7599   -45650.416   0.15489454 
   83200    297.68337   -1022.6537    133335.22   -42011.863    3633.6474    -45645.51   0.15875608 
   83300     300.2582   -1009.1871    133324.69   -42042.379    3665.0768   -45707.456    0.1584604 
   83400    300.43535    -1022.931    133337.64   -42050.844    3667.2393   -45718.083   0.15645946 
   83500     289.5477   -1032.8115    133287.86   -42176.766      3534.34   -45711.106   0.15839561 
   83600    294.76914   -978.88114    133283.94   -42143.498    3598.0751   -45741.573   0.14641708 
   83700    293.44815   -996.96433    133308.27   -42150.922    3581.9506   -45732.872   0.15657304 
   83800    293.53934   -997.48633    133306.82    -42130.27    3583.0637   -45713.333   0.15309117 
   83900    296.64186   -970.93145    133319.13    -42104.47    3620.9343   -45725.404    0.1507457 
   84000    293.46898   -979.73315    133304.15   -42107.043    3582.2048   -45689.248   0.15855756 
   84100    299.94508   -956.27882    133328.47    -42070.81    3661.2548   -45732.065   0.14501092 
   84200    295.25981   -994.56445    133323.09   -42044.434    3604.0644   -45648.499    0.1604459 
   84300    299.79358   -1009.5456    133328.37   -42110.972    3659.4055   -45770.378   0.14950028 
   84400    295.09014   -996.87784     133334.2   -42100.151    3601.9933   -45702.145   0.15314669 
   84500    295.60406   -1036.6848    133325.83   -42118.355    3608.2665   -45726.621   0.15953069 
   84600    297.42967    -969.1431    133331.09   -42041.194    3630.5506   -45671.745   0.14907573 
   84700    293.03073   -1034.1655    133335.38   -42061.799    3576.8553   -45638.655   0.15955167 
   84800    297.04513    -987.4955    133336.84    -42057.38    3625.8568   -45683.237   0.15557455 
   84900    294.54291   -1006.8506    133355.67   -41981.167    3595.3136   -45576.481   0.15657802 
   85000    297.42435   -956.53795    133355.06   -42053.304    3630.4857    -45683.79   0.16055083 
   85100    299.04882   -1032.8067    133347.67    -42090.12    3650.3146   -45740.435    0.1479081 
   85200    300.05549   -1007.4217    133344.53   -42060.655    3662.6025   -45723.257   0.15929543 
   85300    300.61138   -1039.5081    133356.78   -42069.344    3669.3879   -45738.732   0.15214209 
   85400    297.02621   -1018.1992    133340.69   -42133.623    3625.6258   -45759.249   0.15362492 
   85500    294.66632   -990.20055    133343.82   -42082.822      3596.82   -45679.642   0.15803247 
   85600    295.77769   -1007.4908     133344.8   -42118.125    3610.3859   -45728.511   0.14987512 
   85700    292.17121   -1010.8333    133309.41   -42104.618    3566.3636   -45670.981   0.15680794 
   85800    296.66768   -989.10692    133353.45   -42064.261    3621.2495   -45685.511   0.15364788 
   85900    297.94942   -991.40634     133342.5   -42018.721    3636.8949   -45655.616   0.15881109 
   86000    297.68366   -998.68826    133334.56   -42078.014    3633.6509   -45711.665   0.15736474 
   86100    302.56875   -950.18464    133318.27   -42039.768    3693.2804   -45733.048   0.15189037 
   86200    295.22387   -1031.7951    133311.73   -42045.327    3603.6257   -45648.953   0.15754601 
   86300    298.17422   -1022.2752    133304.48   -42078.657     3639.639   -45718.296   0.15592327 
   86400    294.94599   -1026.7992    133292.35    -42114.46    3600.2338   -45714.693   0.15560056 
   86500    290.14877   -1030.9942    133277.39   -42159.292    3541.6769   -45700.968   0.15925298 
   86600    295.31222   -995.99794    133298.77   -42030.266    3604.7041    -45634.97   0.15908764 
   86700    298.10711   -998.15509    133314.15   -42042.105    3638.8197   -45680.924   0.15895562 
   86800    299.27057   -1027.5091    133323.59    -42112.15    3653.0214   -45765.172   0.14960412 
   86900    298.92834   -1009.6965    133302.65   -42066.696     3648.844    -45715.54   0.15638576 
   87000    297.84505   -998.13608    133304.04   -42031.002    3635.6209   -45666.623    0.1543674 
   87100    300.90884   -963.76819    133299.34   -42074.092    3673.0189   -45747.111   0.15372352 
   87200    298.96671   -1010.2838    133323.69   -42027.696    3649.3124   -45677.008    0.1554369 
   87300      299.649   -984.03787    133334.74   -41998.208    3657.6407   -45655.849   0.15901852 
   87400    300.92027   -962.47885    133323.76   -42047.921    3673.1583    -45721.08   0.15315678 
   87500    301.08063   -981.42568    133345.64   -42012.349    3675.1158   -45687.465   0.15429164 
   87600    294.32885   -975.45073    133335.18   -42043.193    3592.7007   -45635.894   0.15509705 
   87700    292.71549   -1044.3205     133338.8   -42036.818    3573.0073   -45609.825   0.15841229 
   87800    300.40476    -1005.834    133335.59    -42071.44    3666.8658   -45738.305   0.15601894 
   87900    297.33971   -1017.6278    133303.12   -42126.963    3629.4525   -45756.415   0.15769131 
   88000    296.73619   -984.98692    133326.46   -42082.749    3622.0858   -45704.834   0.15517979 
   88100    297.16315   -993.49393    133306.89   -42052.316    3627.2973   -45679.614   0.15664342 
   88200    297.46295   -1013.8275    133308.68   -42142.075    3630.9568   -45773.032   0.14938479 
   88300    295.04925   -1012.1729    133302.66   -42115.297    3601.4942   -45716.791   0.15522379 
   88400    296.36797   -1026.7772    133314.13   -42053.502     3617.591   -45671.093    0.1597364 
   88500    300.60304   -1025.5048    133329.81   -42101.913    3669.2861   -45771.199   0.15022847 
   88600    298.16323   -1014.7895    133280.96   -42077.297    3639.5048   -45716.802   0.15790004 
   88700    296.15945   -990.49665    133304.02   -42052.141    3615.0458   -45667.187   0.15079963 
   88800    294.80022   -1025.7954    133277.33   -42087.785    3598.4544   -45686.239   0.16002536 
   88900    295.54268   -999.83786    133286.45   -42095.049    3607.5173   -45702.566   0.15372722 
   89000    293.60674   -1016.8853    133313.06   -42036.675    3583.8864   -45620.562   0.15522379 
   89100    298.29147   -976.95606     133312.6   -42085.536    3641.0702   -45726.606   0.15425548 
   89200    296.44751   -972.38117     133313.5   -42029.838    3618.5619     -45648.4   0.15294331 
   89300    293.30658   -1009.3452    133297.03   -42147.921    3580.2224   -45728.143   0.15686492 
   89400     295.3337   -986.82487    133316.11   -42029.383    3604.9663   -45634.349   0.15910188 
   89500    300.75244   -999.42301    133316.99   -42112.103    3671.1098   -45783.212   0.14768372 
   89600    292.42031   -1033.2351    133282.29   -42208.815    3569.4043   -45778.219    0.1557565 
   89700    300.53855   -953.82069    133289.04    -42102.07    3668.4989   -45770.568   0.14569832 
   89800    302.21647   -988.31498    133324.41   -42052.884    3688.9803   -45741.865   0.15557883 
   89900    303.14593   -1013.1917       133343   -42030.901    3700.3257   -45731.227   0.15618145 
   90000    299.86195    -1009.435    133357.75   -42071.537    3660.2401   -45731.777   0.15109931 
   90100    301.34313   -962.69461    133340.84   -42015.962    3678.3199   -45694.282   0.16047636 
   90200    298.32169   -997.10415    133353.54   -42076.926     3641.439   -45718.365   0.14629574 
   90300    302.47379   -981.40692    133348.44    -42095.89    3692.1212   -45788.011   0.15217412 
   90400    297.95066   -993.14834    133349.32   -42060.141      3636.91   -45697.051   0.15352043 
   90500    297.87628   -1030.3238    133358.89   -42067.073    3636.0021   -45703.075   0.15507755 
   90600    302.43652   -997.51397    133365.55   -42035.975    3691.6663   -45727.641   0.15729187 
   90700    302.41063   -1007.6383     133351.9   -42081.544    3691.3503   -45772.894   0.14955994 
   90800    297.89675   -970.89566    133347.33   -42125.841     3636.252   -45762.093   0.15279673 
   90900    297.82138     -956.486    133344.63   -42050.022     3635.332   -45685.354   0.15465483 
   91000    290.74355   -1014.6156    133361.94   -42151.925    3548.9371   -45700.862   0.14944995 
   91100    289.55943   -1037.8511    133342.06   -42213.433    3534.4832   -45747.916   0.15735845 
   91200    295.05794   -997.73634    133328.56   -42205.561    3601.6004   -45807.161   0.14203565 
   91300    292.37574   -1004.4969    133334.65   -42155.171    3568.8603   -45724.031    0.1587158 
   91400    295.52446   -989.20696    133341.43    -42088.41    3607.2949   -45695.704   0.15081766 
   91500    302.19435   -987.20353    133369.14   -41932.192    3688.7103   -45620.902   0.15882801 
   91600    302.40241   -1002.9504    133387.85   -41979.774    3691.2499   -45671.024   0.16259919 
   91700    298.28124   -1008.8899    133347.25   -42077.339    3640.9453   -45718.284   0.14911204 
   91800    301.93486   -1020.9357    133331.95   -41962.983    3685.5429   -45648.526   0.16190779 
   91900    303.00454   -1009.7047    133326.33   -42021.287    3698.5998   -45719.886   0.15502943 
   92000    293.42107   -1032.1905    133327.69   -42034.567      3581.62   -45616.187   0.16243788 
   92100    299.12793   -1010.5969    133317.12   -42078.207    3651.2803   -45729.488    0.1573269 
   92200    293.29527   -993.21611    133308.53   -42101.128    3580.0844   -45681.213   0.14957409 
   92300    297.19313   -990.44813    133312.93   -41980.785    3627.6633   -45608.448   0.16220157 
   92400    297.54885     -979.576    133320.37   -42033.924    3632.0053   -45665.929   0.15995267 
   92500    295.57234   -978.69512    133310.42   -42010.889    3607.8792   -45618.768   0.15977869 
   92600    303.30578   -981.80066    133315.84   -41950.322    3702.2768   -45652.599   0.16266494 
   92700    301.53948   -1021.5443    133329.48   -42044.658    3680.7167   -45725.375   0.15220742 
   92800    297.09559   -976.69389    133280.72    -42033.55    3626.4727   -45660.023   0.16306703 
   92900    297.44136   -985.54353    133277.67   -42063.067    3630.6933    -45693.76   0.15879732 
   93000    298.33291   -976.53338    133276.84   -42080.497    3641.5759   -45722.073   0.15823612 
   93100    290.99837   -1016.0671    133272.85   -42064.556    3552.0475   -45616.603   0.16002093 
   93200    291.15766   -1037.9806    133291.76   -42056.833    3553.9918   -45610.825   0.16008049 
   93300    299.93912   -969.81369     133273.5    -42113.29     3661.182   -45774.472   0.15416683 
   93400    291.35759    -962.9237    133262.51   -42165.149    3556.4323   -45721.581    0.1606514 
   93500    299.16358   -979.64613    133297.16   -42128.351    3651.7154   -45780.067   0.15078111 
   93600    299.17777   -1025.4054     133275.3   -42098.163    3651.8886   -45750.051   0.15979265 
   93700    302.94476   -968.12472    133301.41   -42089.837    3697.8701   -45787.708   0.15007884 
   93800     293.3822   -998.24465    133276.67   -42129.753    3581.1455   -45710.898    0.1556183 
   93900    292.93663     -1020.79    133275.75   -42160.989    3575.7068   -45736.696   0.15676731 
   94000     291.6003   -1024.0312    133268.65   -42174.947    3559.3949   -45734.342   0.15435007 
   94100    294.17378   -1042.1134    133269.95   -42053.319    3590.8078   -45644.127   0.16205068 
   94200    298.20776   -965.00939    133310.73   -42010.333    3640.0483   -45650.381   0.15721781 
   94300    298.84149   -994.16021    133313.21   -42038.455    3647.7839   -45686.239   0.15674299 
   94400    300.19526   -998.03954     133307.8   -42070.735    3664.3086   -45735.044   0.15460517 
   94500     301.2717   -1049.3843    133347.71   -41977.647     3677.448   -45655.095   0.15973077 
   94600    299.98065   -991.48466    133331.66   -42097.533    3661.6889   -45759.222   0.15128544 
   94700    291.98549   -980.00844    133305.85   -42103.695    3564.0967   -45667.792   0.15710203 
   94800    298.74928   -974.87539    133300.56   -42094.084    3646.6584   -45740.743   0.14997216 
   94900    292.70459   -1010.0784    133274.95    -42138.77    3572.8743   -45711.644   0.15783763 
   95000    296.42885   -974.02082     133293.1    -42107.23    3618.3343   -45725.564   0.15233875 
   95100    295.44492   -1008.0187    133294.81   -42094.442    3606.3239   -45700.766    0.1594815 
   95200    295.28769   -1032.9294    133295.33   -42069.776    3604.4047    -45674.18   0.16086948 
   95300    300.71595   -1041.7728    133267.77    -42084.02    3670.6644   -45754.685   0.15490369 
   95400    298.42883   -975.74667    133295.11   -42050.583    3642.7468    -45693.33   0.15539027 
   95500    296.68636   -977.92672    133314.23   -42005.474    3621.4774   -45626.951   0.16172498 
   95600    293.64286   -976.09446    133301.85   -42061.263    3584.3272    -45645.59   0.15762661 
   95700    295.24605   -974.71461    133303.48   -42040.661    3603.8964   -45644.557   0.15775131 
   95800     301.5093   -999.47973    133281.66   -42049.408    3680.3483   -45729.756   0.15282153 
   95900    300.50014   -990.25702    133304.08   -42062.894    3668.0301   -45730.924    0.1557547 
   96000    304.72131   -977.66578    133316.59    -42027.52    3719.5554   -45747.076   0.15530571 
   96100    295.57255   -983.89058    133354.46       -41942    3607.8818   -45549.881   0.16178014 
   96200    301.53918   -1024.1302     133337.6   -41981.411    3680.7131   -45662.124   0.15983768 
   96300    295.98188   -983.52428    133322.28   -42001.667    3612.8783   -45614.545   0.15222514 
   96400    302.79273   -986.88723    133322.92    -42043.53    3696.0143   -45739.544   0.15526312 
   96500     303.6916   -987.67898    133332.35   -42021.991    3706.9863   -45728.977   0.15356825 
   96600    293.93083   -1019.9973    133308.11    -42074.18    3587.8424   -45662.023   0.15927194 
   96700     295.5915   -994.69187    133300.56   -42052.165    3608.1131   -45660.278   0.15691417 
   96800    297.53329   -985.37895    133296.73   -42072.391    3631.8154   -45704.206   0.15600997 
   96900    293.57524    -1016.074    133285.38   -42122.261    3583.5018   -45705.762   0.15480095 
   97000    291.60719   -1041.2841    133289.02   -42129.474    3559.4791   -45688.953   0.16412406 
   97100    297.59395   -1028.8829    133299.15   -42126.046    3632.5559   -45758.602    0.1526073 
   97200    298.53822   -1023.2448    133304.28   -42115.306     3644.082   -45759.388   0.15870207 
   97300    303.13899    -994.5727    133336.58   -41973.849     3700.241    -45674.09   0.15279056 
   97400    299.81435   -999.17838    133324.26   -42025.276    3659.6591   -45684.935   0.15849651 
   97500    301.46902   -991.81699    133307.34    -41984.09    3679.8566   -45663.946   0.16169086 
   97600      300.559   -1054.0316    133312.08   -41980.627    3668.7485   -45649.376   0.16043125 
   97700    307.23179   -1020.1064    133315.28   -41960.836    3750.1994   -45711.036   0.16119023 
   97800    302.60003   -1012.7875    133320.15   -42014.946    3693.6622   -45708.608   0.15509829 
   97900    302.15034   -995.11678    133302.63     -42000.6    3688.1731   -45688.773   0.15624763 
   98000    297.56374   -986.58644    133297.74    -42049.89    3632.1871   -45682.077   0.15865253 
   98100    299.15734   -1007.2096    133300.01   -42051.618    3651.6393   -45703.258   0.15398727 
   98200    296.06807    -1016.769    133322.36   -42075.936    3613.9304   -45689.866    0.1589302 
   98300    300.45748   -1013.5153    133316.78   -41973.137    3667.5093   -45640.646   0.16020839 
   98400    302.07304   -1013.2647    133318.54   -42021.318    3687.2295   -45708.548   0.15551169 
   98500    301.87947    -963.0506    133306.38   -42031.035    3684.8668   -45715.902     0.155942 
   98600    300.11213   -993.17023     133291.5   -42039.916    3663.2939    -45703.21   0.15135653 
   98700    304.74673   -990.02614    133308.49   -41993.763    3719.8657   -45713.629   0.16069284 
   98800     299.3142   -1009.7491    133319.99   -41979.675     3653.554    -45633.23   0.15942967 
   98900    295.38731    -1020.725    133305.06   -42068.256    3605.6207   -45673.877    0.1591564 
   99000    295.70985   -1012.1368    133282.15   -42045.616    3609.5578   -45655.174   0.15742523 
   99100    300.65291   -1008.2275       133288   -42118.613    3669.8948   -45788.508   0.14941954 
   99200    295.90395   -1002.7324    133284.05    -42089.78     3611.927   -45701.707   0.15542867 
   99300    299.87492   -976.53889    133287.01   -42067.687    3660.3984   -45728.085   0.15432638 
   99400    293.15949   -1011.4125    133299.33   -42104.255     3578.427   -45682.682   0.15191863 
   99500    300.09279   -981.17176    133306.18   -42055.495    3663.0578   -45718.553   0.15785992 
   99600    297.58184   -943.55071     133324.1   -42031.703    3632.4081   -45664.111   0.14969072 
   99700    295.27328   -1017.1753    133322.21   -42093.013    3604.2288   -45697.242   0.16023509 
   99800    298.14634   -1007.3188    133307.76   -42071.547    3639.2986   -45710.846    0.1553659 
   99900    292.53107   -1039.6661    133301.29    -42103.85    3570.7563   -45674.607    0.1527209 
  100000    294.21264   -977.14657    133306.55   -42065.331    3591.2823   -45656.614   0.15677325 
Loop time of 52.2532 on 6 procs for 100000 steps with 4096 atoms

Performance: 826.744 ns/day, 0.029 hours/ns, 1913.758 timesteps/s
97.7% CPU use with 6 MPI tasks x no OpenMP threads

MPI task timing breakdown:
Section |  min time  |  avg time  |  max time  |%varavg| %total
---------------------------------------------------------------
Pair    | 33.676     | 34.627     | 36.399     |  17.0 | 66.27
Neigh   | 4.8053     | 4.9747     | 5.2735     |   8.8 |  9.52
Comm    | 7.6768     | 9.7143     | 10.811     |  37.5 | 18.59
Output  | 0.20385    | 0.20519    | 0.21105    |   0.6 |  0.39
Modify  | 1.9618     | 2.0052     | 2.0398     |   1.9 |  3.84
Other   |            | 0.7269     |            |       |  1.39

Nlocal:        682.667 ave         709 max         664 min
Histogram: 2 0 0 1 1 0 1 0 0 1
Nghost:        1363.83 ave        1384 max        1350 min
Histogram: 2 0 0 0 2 1 0 0 0 1
Neighs:        0.00000 ave           0 max           0 min
Histogram: 6 0 0 0 0 0 0 0 0 0
FullNghs:      19421.7 ave       20218 max       18846 min
Histogram: 2 0 0 1 1 0 1 0 0 1

Total # of neighbors = 116530
Ave neighs/atom = 28.449707
Neighbor list builds = 6356
Dangerous builds = 0

undump              1
unfix               2
unfix               3
unfix               4




################################################
#######         Run Simulation         #########
################################################

reset_timestep      0
log                 log.run_${NAME}
log                 log.run_ice_298K_1000atm_ML
