
# Create simulation box of size 50 x 50 x 50 Angstrom
#
lattice	            sc 1
Lattice spacing in x,y,z = 1.0000000 1.0000000 1.0000000
region 	            all block 0 50 0 50 0 50 units box
create_box          1 all
Created orthogonal box = (0.0000000 0.0000000 0.0000000) to (50.000000 50.000000 50.000000)
  1 by 2 by 3 MPI processor grid

# fill box with 4175 randomly distributed atoms
#
create_atoms        1 random 4175 63782 all
Created 4175 atoms
  create_atoms CPU = 0.001 seconds
mass                1 18.015

# Define potential
#
pair_style          sw
pair_coeff          * * ML_mW.sw mW
Reading sw potential file ML_mW.sw with DATE: 2019-02-27

# Run minimization
#
minimize            1.0e-8 1.0e-8 10000 1000
WARNING: Using 'neigh_modify every 1 delay 0 check yes' setting during minimization (../min.cpp:187)
Neighbor list info ...
  update every 1 steps, delay 0 steps, check yes
  max neighbors/atom: 2000, page size: 100000
  master list distance cutoff = 6.0032907
  ghost atom cutoff = 6.0032907
  binsize = 3.0016454, bins = 17 17 17
  1 neighbor lists, perpetual/occasional/extra = 1 0 0
  (1) pair sw, perpetual
      attributes: full, newton on
      pair build: full/bin/atomonly
      stencil: full/bin/3d
      bin: standard
Per MPI rank memory allocation (min/avg/max) = 4.255 | 4.258 | 4.261 Mbytes
Step Temp E_pair E_mol TotEng Press 
       0            0    7792709.3            0    7792709.3    5898794.3 
     630            0   -45180.336            0   -45180.336   -154.07449 
Loop time of 1.12727 on 6 procs for 630 steps with 4175 atoms

98.4% CPU use with 6 MPI tasks x no OpenMP threads

Minimization stats:
  Stopping criterion = max force evaluations
  Energy initial, next-to-last, final = 
      7792709.32924461  -45180.0188663597   -45180.336116598
  Force two-norm initial, final = 2.0191930e+08 4.9721331
  Force max component initial, final = 1.0948746e+08 0.73126211
  Final line search alpha, max atom move = 0.053306038 0.038980685
  Iterations, force evaluations = 630 1000

MPI task timing breakdown:
Section |  min time  |  avg time  |  max time  |%varavg| %total
---------------------------------------------------------------
Pair    | 0.88668    | 0.97514    | 1.0476     |   5.4 | 86.50
Neigh   | 0.023841   | 0.024341   | 0.024668   |   0.2 |  2.16
Comm    | 0.03505    | 0.10755    | 0.19685    |  16.3 |  9.54
Output  | 0          | 0          | 0          |   0.0 |  0.00
Modify  | 0          | 0          | 0          |   0.0 |  0.00
Other   |            | 0.02024    |            |       |  1.80

Nlocal:        695.833 ave         704 max         685 min
Histogram: 1 1 0 0 1 0 0 1 0 2
Nghost:        1494.17 ave        1515 max        1468 min
Histogram: 1 1 0 0 0 0 1 1 1 1
Neighs:        0.00000 ave           0 max           0 min
Histogram: 6 0 0 0 0 0 0 0 0 0
FullNghs:      19997.0 ave       20462 max       19320 min
Histogram: 1 1 0 0 0 0 0 2 0 2

Total # of neighbors = 119982
Ave neighs/atom = 28.738204
Neighbor list builds = 26
Dangerous builds = 0

# Add velocity/set timestep
#
velocity            all create ${TEMP} 120598 rot yes dist gaussian
velocity            all create 225 120598 rot yes dist gaussian
timestep            5.0

# Define output
#
compute	            1 all msd
thermo	            100
thermo_style        custom step temp press vol etotal ke pe c_1[4] density

# Neighbor lists
#
neigh_modify        delay 0 every 1 check yes

# Set fixes
#
fix                 1 all momentum 10 linear 1 1 1 rescale
fix                 2 all nve
fix                 3 all temp/csvr ${TEMP} ${TEMP} 500.0 928347
fix                 3 all temp/csvr 225 ${TEMP} 500.0 928347
fix                 3 all temp/csvr 225 225 500.0 928347
fix                 4 all press/berendsen iso ${PRES} ${PRES} 1000.0 modulus 20000
fix                 4 all press/berendsen iso -50 ${PRES} 1000.0 modulus 20000
fix                 4 all press/berendsen iso -50 -50 1000.0 modulus 20000

# Run 0.5 ns equilibration
#
dump                1 all custom 1000 eq.${NAME}.dump id type x y z vx vy vz
dump                1 all custom 1000 eq.liquid_density_MLmW.dump id type x y z vx vy vz
run                 100000
Per MPI rank memory allocation (min/avg/max) = 3.506 | 3.508 | 3.511 Mbytes
Step Temp Press Volume TotEng KinEng PotEng c_1[4] Density 
     630          225    869.67124       125000   -42380.908    2799.4278   -45180.336 2.7295415e-33   0.99914793 
     700    143.17385   -73.587387    125532.71   -41519.877    1781.3549   -43301.232    0.2662902   0.99490798 
     800    177.82135   -283.54278    125554.79   -40734.092    2212.4356   -42946.528   0.61511071   0.99473296 
     900    195.39655   -248.87838    125476.97    -40307.18    2431.1045   -42738.285    1.0591286   0.99534989 
    1000    208.72066   -40.966034    125755.62   -40035.054    2596.8819   -42631.936    1.5128894   0.99314438 
    1100    219.04999    82.632769    125868.84   -39852.633    2725.3983   -42578.031    1.8319154   0.99225106 
    1200    218.92624    156.89215     126064.5   -39879.664    2723.8586   -42603.522    2.2610133     0.990711 
    1300    216.01233    110.65374     126247.5   -39849.585     2687.604   -42537.189    2.7579152   0.98927494 
    1400    217.03479   -109.53748    126389.31   -39856.762    2700.3254   -42557.087    3.2252801   0.98816495 
    1500     219.6072   -150.25262    126313.47   -39796.875     2732.331   -42529.206     3.624033   0.98875832 
    1600    228.49095   -90.490332     126526.2    -39707.02    2842.8618   -42549.881    3.8853625   0.98709588 
    1700    225.76219   -117.16895    126493.08    -39746.56    2808.9109   -42555.471    4.3288536   0.98735432 
    1800    222.74316    -131.4457    126583.86   -39833.093    2771.3484   -42604.441    4.6740534   0.98664629 
    1900    224.24242   -76.959241    126568.99   -39830.125    2790.0021   -42620.127    5.1825037   0.98676214 
    2000    224.91632    64.251529    126520.84   -39794.749    2798.3866   -42593.136    5.6049027   0.98713773 
    2100    227.55591   -52.256704    126506.26   -39753.094    2831.2281   -42584.322    5.8979017    0.9872515 
    2200    227.98945   -116.34607    126365.26   -39796.013    2836.6222   -42632.635    6.2856956   0.98835305 
    2300    229.35636    36.453395    126284.07   -39788.213    2853.6292   -42641.842    6.4941173   0.98898845 
    2400    228.71782   -14.517035    126356.15   -39798.858    2845.6845   -42644.542    6.8938773   0.98842429 
    2500    230.38036   -158.01107    126305.04   -39753.127    2866.3697   -42619.497    7.2918295   0.98882427 
    2600    230.30401    148.60331       126499   -39709.211    2865.4197    -42574.63    7.5803162   0.98730815 
    2700    225.90177    134.30768    126731.34   -39717.851    2810.6475   -42528.498    7.9989013   0.98549806 
    2800    227.71872    -112.7906     126959.3   -39700.153    2833.2538   -42533.407    8.3091012   0.98372858 
    2900    227.80786    102.42786    127074.28     -39773.2    2834.3629   -42607.563    8.7722224    0.9828385 
    3000    229.98732   -58.356218    127097.31   -39819.193    2861.4795   -42680.673    9.1907642   0.98266037 
    3100    228.45391   -243.47577    127352.19   -39788.231     2842.401   -42630.632    9.6680904    0.9806937 
    3200    227.26817   -336.16414    127124.64   -39837.796    2827.6481   -42665.445    10.008052    0.9824491 
    3300    222.96144    113.28746    127277.06   -39818.735    2774.0643   -42592.799    10.335007   0.98127257 
    3400    226.08687    87.788624    127534.96   -39861.633    2812.9505   -42674.584    10.524667    0.9792883 
    3500    223.92555   -329.08078    127353.36   -39911.084    2786.0595   -42697.144    10.833312   0.98068466 
    3600    227.26299    141.97122    127358.28   -39942.155    2827.5837   -42769.739    11.172582   0.98064678 
    3700    219.29693   -122.73299    127305.87   -40015.944    2728.4708   -42744.415    11.411648   0.98105052 
    3800    224.03999    -56.78548     127551.4   -39962.063    2787.4834   -42749.547     11.69317   0.97916206 
    3900     222.9368   -52.791652    127708.45   -40009.111    2773.7576   -42782.869    11.945952   0.97795794 
    4000    222.02593    -46.05928    127890.92   -39995.882    2762.4247   -42758.307    12.048255   0.97656258 
    4100    226.07417   -79.952711    127830.06   -39981.265    2812.7925   -42794.057    12.250487   0.97702758 
    4200    224.94862   -70.144101    127810.74   -39997.134    2798.7885   -42795.923    12.573315   0.97717525 
    4300    225.42891    -227.0631    127765.43   -40000.545    2804.7642   -42805.309     12.97421   0.97752181 
    4400     221.9643    21.677864    127716.28   -40000.606    2761.6579   -42762.264    13.252144   0.97789797 
    4500    224.95401   -215.69131    127726.48    -40004.35    2798.8555   -42803.205    13.395303   0.97781992 
    4600    222.94245   -10.754193    127547.66    -40048.59    2773.8279   -42822.417    13.723027   0.97919076 
    4700    224.89438    99.188483    127636.72    -39971.18    2798.1136   -42769.293    13.986345    0.9785075 
    4800    224.64738    219.36869    127543.79   -40034.779    2795.0405    -42829.82    14.313136   0.97922049 
    4900    227.80318     232.8603    127869.12   -39909.093    2834.3047   -42743.398    14.637964   0.97672913 
    5000    229.28276   -39.921303    128031.06   -39860.534    2852.7135   -42713.248    15.023047   0.97549371 
    5100     225.3458   -214.10188    127978.38   -39941.649    2803.7302    -42745.38     15.26466   0.97589523 
    5200    225.09172   -68.527708     127723.4   -39997.357     2800.569   -42797.926    15.385226   0.97784347 
    5300    222.13812   -205.05936    127886.71   -39965.748    2763.8206   -42729.569    15.591205   0.97659477 
    5400     222.8426    112.49007    127886.78   -40016.309    2772.5856   -42788.894    15.923025    0.9765942 
    5500    223.64109    -242.2527    127878.26   -40015.538    2782.5203   -42798.058    16.191262   0.97665931 
    5600    221.86819     5.983029    127884.26   -40003.231    2760.4621   -42763.693    16.461985   0.97661349 
    5700    222.48105   -171.42532    127752.81   -39999.092    2768.0872   -42767.179    16.763971   0.97761835 
    5800    225.50642   -219.41685    127641.24   -40039.374    2805.7286   -42845.103    16.942405   0.97847287 
    5900    225.67442   -41.975336    127639.01   -40087.837    2807.8189   -42895.656    17.373233   0.97848997 
    6000    222.19311    50.087797    127925.71   -40088.265    2764.5047    -42852.77    17.682925   0.97629702 
    6100    223.73665    39.704177    128143.26   -40018.901    2783.7093    -42802.61     17.98205   0.97463956 
    6200    222.64549    26.615903     128135.9   -40090.351    2770.1332   -42860.484    18.201173   0.97469558 
    6300    227.06796   -57.415114    128164.65   -40069.398    2825.1571   -42894.555    18.510589   0.97447692 
    6400    226.67279    79.574725    128035.05   -40047.076    2820.2405   -42867.316    18.719656   0.97546326 
    6500    224.60348    130.17829    128213.68   -39989.521    2794.4943   -42784.015    19.036848   0.97410423 
    6600      222.145   -171.56229    128160.88   -40088.646    2763.9062   -42852.552    19.347071   0.97450559 
    6700    221.56884   -68.261005    128152.85   -40147.706    2756.7376   -42904.444    19.673045   0.97456664 
    6800    223.28475   -161.01542    128110.43   -40082.391    2778.0868   -42860.478    19.813978   0.97488934 
    6900    229.11391     -14.5031    128043.45   -40019.991    2850.6127   -42870.604    20.011969   0.97539929 
    7000    228.28405    18.309982    128146.29   -40011.122    2840.2876   -42851.409    20.234328   0.97461652 
    7100    226.41834    -151.1147    127964.34   -40041.734    2817.0746   -42858.809    20.417753   0.97600232 
    7200     223.4036   -43.176115    127957.01   -40092.231    2779.5655   -42871.797     20.75963   0.97605824 
    7300    219.68726    56.098356    128043.52   -40151.343    2733.3272    -42884.67    20.943633   0.97539878 
    7400    220.60961   -176.87622    128145.13    -40170.72    2744.8029   -42915.523    21.301637   0.97462537 
    7500     221.6279   -4.2498312    128092.61   -40140.809    2757.4724   -42898.281    21.420981   0.97502497 
    7600    219.66294   -23.792884    128035.68   -40223.553    2733.0245   -42956.578    21.484631   0.97545847 
    7700    223.24263  0.087771036    127975.84   -40129.974    2777.5628   -42907.537    21.733598   0.97591459 
    7800    229.98723   -126.95147    127900.69   -40130.892    2861.4783    -42992.37    22.082722   0.97648804 
    7900    224.30937   -152.45243    127886.55   -40224.741     2790.835   -43015.576    22.297997   0.97659598 
    8000    223.38683   -10.167291     127964.9   -40187.696    2779.3568   -42967.052    22.607198   0.97599801 
    8100     220.9866   -137.94151    128022.35   -40254.334    2749.4934   -43003.827    22.783923   0.97556003 
    8200    221.00932    17.309722    127947.08   -40275.033    2749.7762   -43024.809    23.032456   0.97613397 
    8300    220.54588    -18.23209    128219.54   -40262.568      2744.01   -43006.578    23.383254    0.9740597 
    8400    221.31007    132.95218    128237.15    -40211.34     2753.518   -42964.858    23.458045   0.97392596 
    8500     224.2584    86.323674    128538.79   -40143.351    2790.2008   -42933.551    23.654235   0.97164049 
    8600    224.04203   -29.445698    128654.19   -40159.695    2787.5088   -42947.204    23.861858   0.97076897 
    8700    224.28123    49.763838    128800.27   -40133.704    2790.4849   -42924.189    24.239422   0.96966793 
    8800    227.92387   -113.33355    128563.67    -40169.42    2835.8063   -43005.226    24.661208   0.97145243 
    8900    224.16772   -178.76574    128520.43   -40252.423    2789.0726   -43041.495    24.762748   0.97177927 
    9000    222.46815   -176.26084    128669.58   -40219.549    2767.9267   -42987.476    24.846998    0.9706528 
    9100    224.57378   -167.45825    128546.02    -40288.83    2794.1248   -43082.955    24.914101   0.97158579 
    9200    227.49357   -76.784462    128534.31   -40189.973    2830.4526   -43020.426    25.003746   0.97167432 
    9300     221.2027   -175.07703    128197.38   -40240.115    2752.1821   -42992.297    25.327642    0.9742281 
    9400    221.45981  -0.15145358    128265.34   -40190.856    2755.3811   -42946.237      25.6733   0.97371191 
    9500     225.8589   -1.5376843    128467.21   -40199.899    2810.1141   -43010.013    25.877632   0.97218185 
    9600     223.5785   -128.95219    128394.74   -40172.866    2781.7416   -42954.608    26.106438   0.97273059 
    9700    226.97072   -102.31868     128466.2   -40111.063    2823.9472   -42935.011    26.348701   0.97218949 
    9800       224.29    11.571404    128381.37   -40177.882     2790.594   -42968.476    26.701357   0.97283186 
    9900    221.94048   -128.11383    128395.25   -40275.005    2761.3615   -43036.366    26.911149   0.97272671 
   10000     219.6528   -46.596359    128417.81   -40281.845    2732.8985   -43014.743      26.9785   0.97255585 
   10100    221.85279   -32.521967    128474.51   -40247.402    2760.2704   -43007.672      27.1561    0.9721266 
   10200     222.1639   -99.672494    128446.99   -40298.597    2764.1413   -43062.738    27.425618   0.97233487 
   10300    224.72645   -28.499723    128724.07   -40288.377    2796.0243   -43084.401    27.696245   0.97024192 
   10400    227.27099   -29.507882    128760.01    -40236.69    2827.6832   -43064.374    28.011736   0.96997109 
   10500     223.9586   -159.44464    128746.16   -40210.368    2786.4708   -42996.839    28.126999   0.97007548 
   10600    228.63426   -47.303088    128773.11   -40148.042    2844.6449   -42992.687    28.443431   0.96987244 
   10700    225.42547   -142.22842    128841.26   -40141.858    2804.7214    -42946.58    28.716304   0.96935946 
   10800    225.68052   -163.55153    128845.02   -40128.051    2807.8947   -42935.946    29.019044   0.96933112 
   10900    223.89554    29.960148    128912.23   -40150.628    2785.6861   -42936.314    29.123608   0.96882575 
   11000    227.67512   -176.67169    128901.34   -40133.526    2832.7113   -42966.237    29.358489   0.96890763 
   11100    224.72859    19.038573    129225.19   -40172.159    2796.0509    -42968.21    29.452518   0.96647947 
   11200    228.14906   -196.06691    129172.13   -40168.468    2838.6081   -43007.076    29.727533   0.96687649 
   11300    225.55504   -73.672951    129132.42   -40162.701    2806.3335   -42969.035    30.042024    0.9671738 
   11400    224.06608    136.64628    128953.91   -40164.633     2787.808   -42952.441    29.998818   0.96851264 
   11500    224.17573    31.745475    129094.92   -40197.774    2789.1723   -42986.946    30.198411   0.96745474 
   11600    225.75643   -124.86016    129157.94   -40213.505    2808.8392   -43022.344    30.538752   0.96698267 
   11700    227.28343    62.495495    129325.66   -40118.652    2827.8379    -42946.49    30.606017   0.96572859 
   11800    223.07025     -16.1499    129192.85   -40189.168     2775.418   -42964.586    31.047377   0.96672136 
   11900    222.55128   -173.64264    129085.81   -40206.825     2768.961   -42975.786    31.334417   0.96752303 
   12000     220.7714    60.936556    128920.48   -40198.259    2746.8159   -42945.075    31.616837   0.96876375 
   12100    225.02436   -27.941544    128833.75   -40156.685    2799.7309   -42956.415    31.785696   0.96941597 
   12200    222.92851   -163.84714    128709.49   -40155.873    2773.6545   -42929.528    32.041524   0.97035182 
   12300    224.94296   -130.66972     128854.4   -40165.104     2798.718   -42963.822    32.140043   0.96926057 
   12400    220.01535   -22.883381    128700.77   -40134.443    2737.4092   -42871.852    32.340395   0.97041762 
   12500    221.75714   -163.66583    128491.01   -40226.335    2759.0804   -42985.415    32.509648   0.97200179 
   12600    223.13301   -201.67268    128424.44   -40140.469    2776.1989   -42916.668    32.703097   0.97250564 
   12700    230.20818   -85.733491    128394.63   -40123.229    2864.2274   -42987.457    32.902555   0.97273145 
   12800    227.34339    38.121558    128493.21   -40092.016     2828.584     -42920.6    33.155351   0.97198517 
   12900    226.86708   -238.32852    128412.56   -40153.194    2822.6578   -42975.852    33.631036   0.97259559 
   13000    226.60323   -105.22444    128367.08   -40099.766     2819.375   -42919.141      33.8111   0.97294018 
   13100    226.09688   -34.417504    128290.61   -40112.038     2813.075   -42925.113    34.238401   0.97352012 
   13200    228.63488   -189.44391    128317.02   -40039.474    2844.6526   -42884.126    34.698385   0.97331974 
   13300    227.82111    85.029901    128367.33     -40081.1    2834.5277   -42915.628    34.682502   0.97293832 
   13400    222.70202   -42.315135    128535.63   -40160.964    2770.8365   -42931.801    34.937817   0.97166438 
   13500    223.74928   -5.2201263     128486.9   -40192.899    2783.8664   -42976.766    35.087871   0.97203291 
   13600    224.06074   -87.733646    128642.16   -40226.913    2787.7416   -43014.655    35.257802    0.9708597 
   13700    221.99187   -115.28767    128505.51   -40225.303    2762.0009   -42987.304    35.177772   0.97189214 
   13800    226.68467   -243.90059    128530.33   -40143.959    2820.3882   -42964.347    35.276071   0.97170444 
   13900    224.62816   -54.044565    128320.62   -40174.631    2794.8014   -42969.433    35.444517   0.97329242 
   14000    222.55422    39.965121    128239.55   -40142.359    2768.9976   -42911.356    35.816793   0.97390774 
   14100    224.46252      63.9721    128129.67   -40150.357    2792.7405   -42943.097    36.060976   0.97474293 
   14200     223.5683    51.076677    127964.64   -40198.513    2781.6147   -42980.127    36.332022        0.976 
   14300    225.88989    126.66522    128156.32   -40259.055    2810.4997   -43069.554    36.513564   0.97454024 
   14400    223.18875   -108.00316    128100.54   -40229.326    2776.8923   -43006.219    36.704687   0.97496457 
   14500    225.44056   -117.68682    128128.39    -40169.59    2804.9091   -42974.499    36.608422   0.97475268 
   14600    223.63924   -51.561491    128194.03   -40179.203    2782.4974     -42961.7    36.814636   0.97425356 
   14700    219.67167   -138.06963    128199.01   -40214.519    2733.1333   -42947.652    37.079577   0.97421569 
   14800    223.79125     27.07745    128175.38   -40257.515    2784.3886   -43041.904    37.224616   0.97439529 
   14900    217.68086    7.2211116    128210.64   -40319.328    2708.3637   -43027.692    37.572296   0.97412736 
   15000     221.7215   -233.06437    128235.97   -40333.937     2758.637   -43092.574    37.760096   0.97393496 
   15100    219.42131   -73.040878     128496.6   -40343.555    2730.0183   -43073.573    38.184422   0.97195946 
   15200    224.10392    -95.66951    128553.66   -40270.108    2788.2788   -43058.386    38.191222   0.97152811 
   15300    219.89302   -213.84073    128709.23   -40277.873    2735.8872   -43013.761    38.530439   0.97035378 
   15400    220.01073   -189.55343    128556.26   -40263.842    2737.3518   -43001.194     38.87086   0.97150846 
   15500    224.43412   -52.614713    128517.73   -40240.134    2792.3872   -43032.521    39.065754   0.97179972 
   15600    228.40297     175.4374    128459.89   -40189.821    2841.7672   -43031.588    39.395712   0.97223729 
   15700    221.31775    72.776216    128576.95    -40280.36    2753.6136   -43033.974    39.534809   0.97135209 
   15800    221.18003    -74.39778    128579.22    -40283.11    2751.9001    -43035.01    39.963158   0.97133497 
   15900    221.00289   -40.944711    128646.97   -40322.443    2749.6961   -43072.139    40.260376   0.97082341 
   16000    221.35822   -143.35328    128798.36   -40264.352    2754.1171   -43018.469    40.427964   0.96968228 
   16100    228.28695   -71.326257    128981.69   -40218.825    2840.3237   -43059.149     40.62251   0.96830404 
   16200    224.90903   -168.74417    128906.25   -40290.368    2798.2959   -43088.664    40.930475   0.96887073 
   16300    223.63881   -111.05021    128780.14   -40314.013     2782.492   -43096.505    41.103246   0.96981948 
   16400    222.95973    182.04134    129000.71   -40212.527     2774.043    -42986.57    41.266958   0.96816131 
   16500    225.76588   -152.94059    128777.01   -40212.256    2808.9567   -43021.213    41.203279   0.96984309 
   16600    228.24147   -135.17405    128673.91    -40187.76    2839.7578   -43027.518    41.245427   0.97062018 
   16700    224.92967   -229.82007    128549.75   -40210.689    2798.5527   -43009.242    41.634567    0.9715576 
   16800    227.41723   -214.63921    128609.58   -40193.421    2829.5027   -43022.923    41.828371   0.97110562 
   16900    223.66814   -133.08618    128751.87   -40161.298    2782.8569   -42944.155    41.858901   0.97003244 
   17000    225.89113   -160.23689    128569.71   -40180.247    2810.5151   -42990.762    41.972984   0.97140683 
   17100    233.88167    -20.41133    128693.15   -40116.079    2909.9326   -43026.012    42.136644   0.97047509 
   17200    227.25077   -96.173682     128743.4   -40136.856    2827.4316   -42964.288    42.496452   0.97009628 
   17300    228.29243     31.34696    128752.99   -40200.208    2840.3919   -43040.599    42.703716   0.97002403 
   17400    225.57115   -42.013594    128716.03   -40224.336    2806.5339    -43030.87     43.10696   0.97030254 
   17500    228.41926   -66.233964    128382.22   -40211.746    2841.9699   -43053.716    43.270313   0.97282547 
   17600    223.30432    -57.86027    128592.17   -40190.975    2778.3302   -42969.305    43.550104   0.97123716 
   17700    226.45895   -93.176467    128559.07   -40205.083    2817.5799   -43022.663    43.666211   0.97148722 
   17800    222.39413    126.20935    128700.94   -40195.232    2767.0058   -42962.237    43.917196   0.97041634 
   17900    226.06551   -10.947684    128949.18    -40139.93    2812.6848   -42952.615     44.06408   0.96854815 
   18000    225.70233    32.865429       128966   -40087.732    2808.1661   -42895.898    44.304004   0.96842185 
   18100    224.62183   -268.09891     128753.9   -40182.245    2794.7226   -42976.968     44.51282   0.97001715 
   18200    224.91518   -15.141046    128901.98   -40186.199    2798.3725   -42984.571    44.785802   0.96890285 
   18300    227.10647   -19.142743    128803.38   -40107.498    2825.6363   -42933.134      44.9099   0.96964454 
   18400     227.3847   -41.603245     129024.7   -40169.527     2829.098   -42998.624    45.115778   0.96798127 
   18500    221.30097   -69.322753    128932.21   -40139.034    2753.4048   -42892.439    45.214842   0.96867568 
   18600    221.65062   -14.966601     129019.9   -40186.771    2757.7551   -42944.527    45.421177   0.96801726 
   18700    225.47342   -30.274637    128746.47   -40159.069     2805.318   -42964.387    45.499733   0.97007312 
   18800    230.09281    -202.5368    128813.05   -40131.661    2862.7921   -42994.453    45.555533   0.96957172 
   18900    224.98881    39.766706    128745.99   -40176.855    2799.2886   -42976.144    45.679991   0.97007672 
   19000    228.51854   -14.632709    128933.15   -40159.338     2843.205   -43002.543    46.028243   0.96866855 
   19100    222.30862   -101.42698    128905.21   -40229.184    2765.9418   -42995.125    45.980956   0.96887854 
   19200    228.24146   -68.294443    128965.74    -40184.14    2839.7576   -43023.898    46.365243   0.96842381 
   19300    227.37408   -74.283174    129079.02   -40136.932    2828.9659   -42965.898    46.862596   0.96757388 
   19400     224.7261    -106.3047     128948.2   -40138.598    2796.0199   -42934.617    47.280506   0.96855549 
   19500     227.4031   -14.460168    128822.35   -40125.163    2829.3268    -42954.49    47.558525   0.96950176 
   19600    225.38604  -0.88883935    128619.22   -40154.994    2804.2308   -42959.225    47.692331   0.97103288 
   19700    232.23526    84.731388    128661.11   -40134.504    2889.4482   -43023.953    47.632467   0.97071675 
   19800    226.31764   -155.46121    128760.63   -40179.371    2815.8217   -42995.192    47.550852   0.96996647 
   19900    225.05371   -192.32294    128557.53   -40190.076     2800.096   -42990.172    47.719845   0.97149882 
   20000    224.92121   -26.860866    128578.23   -40227.492    2798.4474   -43025.939    47.782215   0.97134246 
   20100    226.20123    103.09538    128946.22   -40191.338    2814.3734   -43005.712    48.240045   0.96857039 
   20200    223.93999    63.066778    128886.46   -40253.559    2786.2392   -43039.798    48.401167   0.96901947 
   20300    225.82574     2.180424    128790.39   -40304.272    2809.7016   -43113.973     48.21671   0.96974231 
   20400    223.57271   -96.805671    128746.58   -40301.839    2781.6695   -43083.508    48.391502   0.97007233 
   20500      224.336   -140.45104    128854.56   -40267.479    2791.1663   -43058.645    48.542795   0.96925939 
   20600     223.2363    55.704947    129069.23       -40276    2777.4839   -43053.484    48.784369   0.96764733 
   20700     227.2467   -157.28968    128982.55   -40206.529    2827.3809    -43033.91    49.010085   0.96829762 
   20800    224.92952   -81.048543    128853.18   -40226.221    2798.5508   -43024.772    49.533794   0.96926976 
   20900    223.48751   -79.931116    128618.49   -40264.394    2780.6095   -43045.003    49.790306   0.97103838 
   21000    221.43629   -73.897885    128510.52   -40361.614    2755.0885   -43116.702    49.859706   0.97185424 
   21100    223.20364    -33.11286    128433.41   -40384.864    2777.0776   -43161.942    49.940353    0.9724377 
   21200    220.67579    15.514399    128845.58   -40357.419    2745.6263   -43103.045    50.187967   0.96932697 
   21300    221.78364   -84.724382    128799.16   -40374.788    2759.4101   -43134.198    50.348828   0.96967626 
   21400    224.71497    -130.0929    128670.71   -40341.792    2795.8815   -43137.673    50.457377   0.97064433 
   21500    223.24726   -17.565195    128624.16   -40318.044    2777.6204   -43095.664    50.562551   0.97099555 
   21600    225.47552     116.4262    128481.79   -40251.549    2805.3442   -43056.893    50.909282   0.97207156 
   21700    224.67446   -187.84885    128563.98   -40223.192    2795.3774   -43018.569    51.057664   0.97145009 
   21800    225.68586    71.889066    128618.28   -40204.783    2807.9612   -43012.745    51.332249   0.97103998 
   21900    222.84742   -41.175835    128629.21   -40209.882    2772.6456   -42982.528    51.383961   0.97095744 
   22000    223.15013    103.77308     128535.5   -40244.177    2776.4118   -43020.589    51.646305   0.97166537 
   22100    221.12407    -86.88661    128586.64   -40160.533    2751.2038   -42911.737    52.281954   0.97127894 
   22200     226.0043   -83.672532    128411.77   -40186.514    2811.9231   -42998.438    52.233814   0.97260155 
   22300    223.40996    63.771273    128530.08   -40152.141    2779.6447   -42931.785    52.391329   0.97170633 
   22400    226.41266    54.849469    128441.84   -40107.368    2817.0039   -42924.372    52.421329    0.9723739 
   22500    226.65256   -69.161035    128450.94   -40097.378    2819.9888   -42917.367    52.219231   0.97230502 
   22600    225.50106   -30.088194    128604.98   -40064.532    2805.6619   -42870.194    52.507968   0.97114038 
   22700    225.81872   -57.792156    128685.01   -40069.155    2809.6142   -42878.769    52.917477   0.97053641 
   22800    231.07056   -237.15849    128611.13   -40038.791    2874.9571   -42913.748     53.21566   0.97109397 
   22900    226.33104   -23.729708    128690.97   -40083.973    2815.9885   -42899.961    53.523587    0.9704915 
   23000    229.67416   -71.945342    128776.46   -40069.656    2857.5832   -42927.239    53.673675   0.96984719 
   23100    223.13497   -123.83561    128601.31    -40181.86    2776.2232   -42958.083    53.980167   0.97116815 
   23200    224.78975    -7.630614    128833.19   -40123.763    2796.8119   -42920.575    54.238787   0.96942014 
   23300    225.21219     41.40375    128726.51   -40158.211    2802.0678   -42960.279    54.291034   0.97022357 
   23400    225.14016   -81.213873    128607.12   -40074.649    2801.1716   -42875.821    54.301858   0.97112425 
   23500    224.69472    22.334572    128504.57   -40104.255    2795.6295   -42899.885    54.692125   0.97189925 
   23600    221.86275   -55.229764    128508.61    -40073.01    2760.3944   -42833.405    55.089413   0.97186863 
   23700    226.48469   -41.636705    128400.94   -40107.574    2817.9001   -42925.475    54.960748   0.97268359 
   23800    221.10337    247.80122    128464.57   -40166.354    2750.9462     -42917.3     55.28526   0.97220181 
   23900    221.96488    158.02223    128388.16   -40187.175    2761.6651    -42948.84    55.485034   0.97278046 
   24000    222.05545   -125.54007    128305.45   -40120.266     2762.792   -42883.057    55.564741   0.97340755 
   24100    226.06046    48.034395    128402.56   -40133.325    2812.6219   -42945.947     55.95504   0.97267134 
   24200    223.06171   -135.68159    128469.28   -40197.912    2775.3118   -42973.224    56.165361   0.97216617 
   24300    223.31966   -113.35589    128370.88    -40177.87    2778.5211   -42956.391    55.864046   0.97291139 
   24400     223.5069   -105.71821    128420.91   -40230.358    2780.8508   -43011.209    55.964598    0.9725324 
   24500     221.3986   -126.49319    128344.35   -40182.892    2754.6195   -42937.512    56.130252    0.9731125 
   24600    225.08117   -155.59629    128458.13   -40167.648    2800.4376   -42968.086    56.390017   0.97225055 
   24700    222.44893   -163.81458    128354.15   -40193.392    2767.6875    -42961.08    56.561555    0.9730382 
   24800    220.36458   -195.65504    128434.79   -40181.347    2741.7543   -42923.101    56.866879    0.9724273 
   24900    222.77984   -49.652082     128135.4   -40126.826    2771.8047   -42898.631    57.150056   0.97469939 
   25000    227.13392    224.71894    128159.65   -40113.454    2825.9777   -42939.431    57.119258   0.97451489 
   25100    223.33408   -20.848547    128167.78   -40123.289    2778.7006    -42901.99    57.091577   0.97445309 
   25200    226.33616    32.804292    127981.86   -40169.099    2816.0521   -42985.151    57.339695   0.97586871 
   25300    220.36055   -150.89025    128094.55   -40171.199    2741.7042   -42912.903    57.813803   0.97501022 
   25400    221.03085    11.416187    128331.11    -40144.88     2750.044   -42894.924     58.27511   0.97321288 
   25500    229.30688   -159.96899    128497.95   -40111.947    2853.0135    -42964.96    58.629594   0.97194927 
   25600    223.17514   -92.208908    128458.69   -40189.377    2776.7231     -42966.1    59.043718   0.97224636 
   25700    220.97661   -116.80171    128509.89   -40199.867    2749.3691   -42949.236    59.388424   0.97185895 
   25800    222.57659   -1.2809127    128299.18   -40167.246     2769.276   -42936.522    59.686469   0.97345514 
   25900    225.30882   -52.518857    128358.51   -40138.243    2803.2701   -42941.513    59.916821   0.97300518 
   26000     228.2001    36.647873    128429.91   -40064.314    2839.2431   -42903.557    60.095182   0.97246419 
   26100    223.18537    50.802322    128598.02   -40135.297    2776.8503   -42912.147    60.402352   0.97119294 
   26200    225.13621    14.142591    128488.21   -40134.334    2801.1225   -42935.456    60.546095   0.97202299 
   26300    226.44227    -159.8073    128780.24   -40111.786    2817.3723   -42929.159    60.709533   0.96981877 
   26400    223.21481   -30.953561    128833.29   -40099.449    2777.2166   -42876.665    60.860855   0.96941943 
   26500    225.64178    74.240702    128890.67   -40158.326    2807.4127   -42965.739    61.336793   0.96898781 
   26600    222.67546   -94.952931    128849.08   -40201.179    2770.5061   -42971.685    61.392588   0.96930062 
   26700    223.67609   -71.943648    128852.35   -40240.314    2782.9558    -43023.27    61.593078   0.96927598 
   26800    225.14766   -112.37297    128919.44   -40184.063    2801.2649   -42985.328    61.997786    0.9687716 
   26900    225.55121   0.66253965    128961.98   -40198.407    2806.2859   -43004.693    62.236414   0.96845204 
   27000    224.10167   -173.88839    129098.02   -40221.751    2788.2508   -43010.001    62.780015   0.96743149 
   27100    225.53374    -107.2846    128997.65   -40221.795    2806.0685   -43027.863    62.699756   0.96818426 
   27200      222.824   -96.671021     128935.6   -40235.999    2772.3541   -43008.353    62.941441   0.96865014 
   27300    219.09288   -111.33221    128914.41   -40265.746    2725.9319   -42991.678     62.93711    0.9688094 
   27400    224.84407   -14.926894    128803.18   -40205.424    2797.4877   -43002.911    62.776899   0.96964605 
   27500    229.09476   -71.369795    128866.71   -40141.019    2850.3744   -42991.394    62.971585     0.969168 
   27600    224.77364    43.979618    128974.32   -40160.421    2796.6114   -42957.032    63.576792   0.96835941 
   27700    225.41561   -186.31746    128762.38   -40157.555    2804.5987   -42962.154     63.59256    0.9699533 
   27800     228.4519   0.66420742    128653.03   -40095.358     2842.376   -42937.734    63.741585   0.97077771 
   27900    220.04351    119.46201    128730.18   -40114.183    2737.7596   -42851.942     64.21323   0.97019585 
   28000    222.58222   -128.26189    128623.74   -40136.581     2769.346   -42905.927    64.469261   0.97099875 
   28100    222.77741   -64.555599    128391.05    -40104.85    2771.7746   -42876.625     64.57406   0.97275854 
   28200    225.22004    33.095273    128481.11   -40148.189    2802.1655   -42950.355    64.986397   0.97207671 
   28300    225.30948   -107.36161    128581.75   -40138.122    2803.2783     -42941.4    65.497943   0.97131581 
   28400    227.02069   -123.61371    128574.66   -40192.798     2824.569   -43017.367    65.809091    0.9713694 
   28500    225.18228   -113.61135    128405.43    -40233.44    2801.6956   -43035.136     65.96403   0.97264963 
   28600    221.90342   -111.28797    128450.37   -40176.665    2760.9004   -42937.566    66.295545   0.97230931 
   28700    224.35356    21.784509    128185.49   -40183.342    2791.3849   -42974.727    66.278381   0.97431844 
   28800     226.1853   -11.213809    128077.59   -40139.907    2814.1751   -42954.082    66.656787   0.97513933 
   28900    226.25464   -86.580255    128210.33    -40090.85    2815.0379   -42905.888    66.982595    0.9741297 
   29000    221.75326   -74.870684    128263.18   -40156.613    2759.0322   -42915.646     67.25534   0.97372836 
   29100    225.55951    22.215249    128299.08   -40080.489    2806.3892   -42886.878    67.432793   0.97345589 
   29200    223.78478   -76.485328    128107.57   -40026.982    2784.3081    -42811.29    67.446141   0.97491107 
   29300    223.79256   -137.66591    128081.69    -40082.14    2784.4049   -42866.545    67.670944   0.97510806 
   29400    224.89984   -29.939103    128121.65   -40144.177    2798.1816   -42942.358    67.966143   0.97480396 
   29500    219.88769   -33.169242    128190.05   -40174.044    2735.8209   -42909.865     68.48857   0.97428379 
   29600    229.86916    49.119444    128140.63   -40088.624    2860.0094   -42948.634    68.753941   0.97465956 
   29700    223.49007   -97.260243    128442.99   -40139.119    2780.6413   -42919.761    69.008459   0.97236515 
   29800    226.76456    67.605762    128429.13   -40129.197    2821.3822    -42950.58    68.745017   0.97247012 
   29900    223.84466   -13.314131    128619.36   -40170.027    2785.0531    -42955.08    69.032819   0.97103182 
   30000    224.48879    -227.0394    128672.26   -40144.544    2793.0673   -42937.611     69.05026   0.97063263 
   30100    227.91781    62.090513    128728.68   -40158.277    2835.7309   -42994.008    69.417505   0.97020716 
   30200    224.61718     18.05466    128841.49   -40169.276    2794.6647   -42963.941    69.780785   0.96935772 
   30300    226.04415   -119.89586    128900.36   -40145.677     2812.419   -42958.096    70.303617   0.96891499 
   30400    227.08174   -73.507038    128965.48   -40134.553    2825.3285   -42959.882    70.550351   0.96842575 
   30500    229.34899      51.1262    129079.66    -40146.19    2853.5375   -42999.728    70.554009   0.96756912 
   30600    229.68397   -71.311603     128961.8   -40149.033    2857.7053   -43006.739    70.695865   0.96845335 
   30700    224.23456   -59.935324    129037.95   -40168.364    2789.9042   -42958.268    70.807743   0.96788186 
   30800    226.93281   -148.49533    128810.31   -40102.663    2823.4756   -42926.138    71.113386   0.96959235 
   30900    222.59046    -135.6151     128640.2   -40222.068    2769.4485   -42991.517     71.19409   0.97087452 
   31000      222.519   -52.919054    128606.64    -40266.14    2768.5594   -43034.699    71.060862   0.97112783 
   31100    220.79529   -54.836369    128590.54   -40259.065    2747.1131   -43006.178    71.295333   0.97124945 
   31200    225.13946   -175.00914    128427.05   -40262.981    2801.1629   -43064.144    71.420633   0.97248591 
   31300    224.33182   -67.203232    128383.31   -40209.922    2791.1143   -43001.036    71.413608   0.97281722 
   31400    222.67183    50.748941    128703.41   -40161.753    2770.4608   -42932.214    71.744008    0.9703977 
   31500    224.19397   -7.7137974    128691.92   -40197.104    2789.3992   -42986.503    72.004255    0.9704843 
   31600    229.17685   -87.546866    128539.68    -40124.92    2851.3958   -42976.316    72.461332   0.97163371 
   31700    223.87719    -148.5759    128280.99   -40162.403    2785.4579   -42947.861     72.82137   0.97359314 
   31800    225.27757    243.60477    128190.93   -40064.419    2802.8813     -42867.3    73.180815   0.97427714 
   31900    227.60166    109.39376    128480.09   -40041.439    2831.7974   -42873.236    73.652888   0.97208441 
   32000    231.47454    154.30546    128758.15   -40038.553    2879.9834   -42918.536    74.118886   0.96998515 
   32100    227.49172   -99.271311     128685.3   -40058.319    2830.4295   -42888.748    74.048156   0.97053422 
   32200    227.11705    131.35503    128594.57   -40062.262    2825.7679    -42888.03    74.081725   0.97121897 
   32300    225.08507   -30.333233    128597.44   -40045.756    2800.4862   -42846.242    74.069973   0.97119735 
   32400    227.34725   -64.875266    128485.39   -40127.231    2828.6321   -42955.863    74.309059   0.97204433 
   32500    223.66641   -109.27589    128462.23   -40140.564    2782.8354     -42923.4    74.563662   0.97221953 
   32600     226.7487    -75.18135    128641.14   -40090.365    2821.1849    -42911.55    75.165146   0.97086739 
   32700    223.59868    64.188763    128680.78   -40166.718    2781.9927   -42948.711     75.31319   0.97056832 
   32800    220.39176   -269.16868    128635.54   -40206.534    2742.0925   -42948.626    75.353549   0.97090969 
   32900    222.72082   -87.831413    128580.56   -40201.116    2771.0704   -42972.186    75.522908   0.97132484 
   33000    223.03765    46.879512    128698.02   -40258.992    2775.0124   -43034.004    75.602837   0.97043833 
   33100    223.11447    57.458277     128860.1   -40196.902    2775.9682    -42972.87    75.504364    0.9692177 
   33200    220.87197   -173.10962    129009.65   -40226.793    2748.0672    -42974.86    75.643652    0.9680942 
   33300    223.41943   -94.542001    128909.38   -40163.078    2779.7624    -42942.84    75.703948   0.96884719 
   33400     221.5902   -31.618445    128948.29   -40251.279    2757.0034   -43008.282     76.04484   0.96855486 
   33500    228.66551    30.505225    129075.22   -40209.242    2845.0336   -43054.275    76.488317   0.96760235 
   33600    225.61464   -82.691535    129120.27   -40196.858    2807.0751   -43003.933    76.936429   0.96726482 
   33700     223.6335   -59.468259    129120.25   -40198.681    2782.4259   -42981.107    77.204914   0.96726496 
   33800    224.65258    -171.6104    128884.06   -40194.729    2795.1052   -42989.834    77.498142   0.96903756 
   33900    226.06576   -33.757261    129024.47   -40210.114    2812.6878   -43022.802    77.988842     0.967983 
   34000    226.96845   -69.136054    129066.54   -40180.452     2823.919   -43004.371    77.943798   0.96766746 
   34100    221.35488   -73.195257    128982.59   -40228.864    2754.0755   -42982.939    77.841188   0.96829731 
   34200    223.50594    271.66792    129107.88   -40255.823    2780.8388   -43036.662    78.007011   0.96735759 
   34300    224.32238   -305.05838    129306.74   -40317.082    2790.9969   -43108.079    78.446334   0.96586989 
   34400    223.74144   -19.054897    129366.66   -40241.537    2783.7689   -43025.306    78.684589   0.96542258 
   34500     226.6606    -194.1774    129286.15    -40254.96    2820.0887   -43075.049    78.581058   0.96602378 
   34600    225.01576   -158.99869    129396.39   -40246.266    2799.6238    -43045.89    78.667882   0.96520071 
   34700    220.99303    133.19772    129235.77   -40328.075    2749.5735   -43077.649    78.677394    0.9664003 
   34800    224.81011   -24.958473    129380.37   -40310.788    2797.0652   -43107.853    79.020456   0.96532028 
   34900     221.4456    49.318265    128940.43   -40311.296    2755.2042     -43066.5    78.923614   0.96861386 
   35000    218.54937    32.560257    129060.03   -40368.163    2719.1696   -43087.333    79.003336   0.96771629 
   35100    229.30635   -37.796571    129185.21   -40307.911    2853.0069   -43160.918    79.152262   0.96677856 
   35200    225.39327    122.21682    128961.98   -40317.479    2804.3207     -43121.8    79.477138   0.96845206 
   35300    223.90439   -68.683283    129044.54   -40294.942    2785.7963   -43080.738    79.699941   0.96783241 
   35400    221.74965    52.692443    129030.68   -40314.654    2758.9872   -43073.641    80.009804   0.96793641 
   35500    225.70416    161.68121    129143.87    -40213.25    2808.1888   -43021.439    80.187996   0.96708806 
   35600    227.35946   -51.036721    129128.06    -40256.99    2828.7839   -43085.774    80.386821   0.96720646 
   35700    221.77374   -74.968903    128901.73   -40225.217     2759.287   -42984.504    80.378365   0.96890467 
   35800    224.73452   -20.606126    128805.56   -40267.257    2796.1247   -43063.382    80.313982   0.96962809 
   35900    227.41438   -80.448743    128742.42   -40206.083    2829.4673    -43035.55    80.265095   0.97010362 
   36000    227.88211   -142.30207    128666.24   -40186.269    2835.2867   -43021.556    80.439702   0.97067804 
   36100    230.20081   -123.47143    128762.59    -40207.76    2864.1358   -43071.895    80.835988   0.96995169 
   36200    221.45179   -181.54861    128786.39    -40251.76    2755.2813   -43007.041    81.124754   0.96977245 
   36300    221.71016   -220.58017     128969.2   -40308.618    2758.4959   -43067.114    81.280262   0.96839784 
   36400    224.94043   -94.545154    128887.83   -40254.455    2798.6866   -43053.142    81.501833   0.96900918 
   36500    224.18485   -117.66463     128671.7   -40221.516    2789.2858   -43010.802    81.229712   0.97063686 
   36600     218.3187     30.50975     128676.9   -40339.871    2716.2996    -43056.17    81.510008   0.97059763 
   36700     224.1122   -95.804161    128612.96   -40273.762    2788.3819   -43062.143    81.567698   0.97108012 
   36800    224.03912   -158.96818    128683.68   -40255.421    2787.4726   -43042.894     81.50552   0.97054643 
   36900    223.96881   -42.993858    128895.17   -40280.388    2786.5977   -43066.986    82.079771   0.96895403 
   37000    229.29985    35.940756    128863.61   -40216.845     2852.926   -43069.771    82.232933   0.96919128 
   37100    229.39178   -67.802869    128869.74   -40209.087    2854.0698   -43063.157    82.331463    0.9691452 
   37200     224.2419    79.234424    128826.56   -40270.632    2789.9955   -43060.627    82.235754   0.96947002 
   37300    224.12737   -120.62988    129010.93   -40282.803    2788.5706   -43071.373    82.492455   0.96808456 
   37400     224.0161   -41.979106    129083.84   -40304.424    2787.1862    -43091.61    82.790493   0.96753778 
   37500    217.93735   -135.42284    129059.23    -40310.32    2711.5549   -43021.875    83.000536   0.96772228 
   37600    225.19201   -39.225758    128948.73   -40268.834    2801.8167   -43070.651    83.285447   0.96855156 
   37700    224.32844   -190.63349     128757.2   -40265.168    2791.0722    -43056.24    83.421025    0.9699923 
   37800    218.60296   -296.37684    128733.88   -40357.242    2719.8364   -43077.079    83.591271   0.97016799 
   37900    221.09479    102.64779    128784.33    -40316.71    2750.8395   -43067.549     83.84175   0.96978792 
   38000    227.79676   -62.201059    128903.65     -40291.3    2834.2247   -43125.524    83.962097   0.96889028 
   38100    222.01795   -32.810634    128916.73   -40238.354    2762.3254   -43000.679    84.318514   0.96879194 
   38200    222.51128    5.5113646    128862.46   -40265.781    2768.4633   -43034.244    84.362161   0.96919993 
   38300    224.21445    76.349746    128805.41   -40198.229     2789.654   -42987.883    84.890997   0.96962926 
   38400    225.60918   -79.383141    128734.94   -40256.111    2807.0071   -43063.118    85.111716   0.97016002 
   38500    226.75153   -50.819383    128504.24   -40278.756    2821.2202   -43099.976    85.272971   0.97190171 
   38600    223.51943    -18.65255    128698.16   -40226.298    2781.0067   -43007.305    85.389898   0.97043729 
   38700    223.79151    -91.68385    128659.38   -40231.781    2784.3919   -43016.173    85.285019   0.97072979 
   38800    223.44679   -89.785456    128685.38   -40262.045    2780.1029   -43042.148    85.434735   0.97053367 
   38900     226.9888    16.431428    128758.43   -40204.425    2824.1722   -43028.597    85.934692   0.96998304 
   39000    223.50151   -101.62446    128628.15   -40238.404    2780.7836   -43019.188    86.221914    0.9709655 
   39100    224.66623   -106.82151    128529.32    -40198.05     2795.275   -42993.325    86.614204   0.97171209 
   39200    224.33983   -224.24954    128623.98   -40222.233     2791.214   -43013.447     86.57201   0.97099692 
   39300    228.02319   -81.710628    128665.61    -40220.34     2837.042   -43057.382    86.937083   0.97068275 
   39400    222.41023    64.971129    128659.78   -40182.299    2767.2061   -42949.505    87.141987   0.97072677 
   39500    227.86017   -18.085348    128584.53   -40161.296    2835.0137    -42996.31    87.592764   0.97129487 
   39600    223.29252    31.612601       128646    -40203.75    2778.1835   -42981.934    87.563109   0.97083072 
   39700    228.76136   -74.729524     128661.4   -40165.622    2846.2262   -43011.849    87.551166   0.97071453 
   39800    221.01786    -230.4033    128555.94   -40232.847    2749.8824   -42982.729    87.435655   0.97151086 
   39900    221.56925    137.16612    128688.68   -40264.987    2756.7427    -43021.73     87.72603   0.97050875 
   40000    223.20264   -119.42826    128674.68   -40298.986    2777.0652   -43076.051    87.847681   0.97061437 
   40100    223.61224   -124.04432    128775.39   -40201.463    2782.1614   -42983.625    88.382778   0.96985527 
   40200    225.69472    17.681891    128905.85   -40211.637    2808.0714   -43019.708    88.654387   0.96887372 
   40300    229.12578    30.969453    128853.08   -40190.713    2850.7603   -43041.473    88.878858   0.96927053 
   40400    228.00663   -151.29253    128776.25   -40106.191     2836.836   -42943.027     89.02538   0.96984876 
   40500    225.47659   -16.772418    128780.26   -40115.807    2805.3574   -42921.164    89.148874   0.96981858 
   40600    225.35154    38.801984    128673.95   -40151.196    2803.8016   -42954.997    89.445213   0.97061983 
   40700    224.96875    31.448673    128705.48   -40194.807     2799.039   -42993.846    89.402695   0.97038211 
   40800    223.42813   -24.630372     128665.7   -40241.293    2779.8707   -43021.164    89.376091    0.9706821 
   40900    221.10813    25.448421    128776.64   -40253.223    2751.0055   -43004.229    89.474564   0.96984583 
   41000    224.06122   -17.948603    128557.69   -40180.185    2787.7475   -42967.933     89.61266   0.97149763 
   41100    221.65765    109.03027    128805.92   -40168.978    2757.8425    -42926.82    89.793584   0.96962539 
   41200    226.24174   -255.05686    128708.89   -40192.329    2814.8774   -43007.206     89.89532   0.97035636 
   41300    216.37681    76.940624    128639.04   -40337.646    2692.1389   -43029.785    89.800615   0.97088323 
   41400    221.47175   -37.139501    128759.97   -40294.318    2755.5296   -43049.847    90.020209   0.96997146 
   41500    219.14797   -212.96297    128805.26   -40290.719    2726.6174   -43017.337    89.943202   0.96963036 
   41600    221.94146    67.409246     128565.9   -40272.734    2761.3737   -43034.108    90.212472   0.97143559 
   41700    225.61357   -271.64327     128834.4   -40259.303    2807.0618   -43066.365    90.562139   0.96941108 
   41800    225.08406    -35.92165    128891.29   -40278.539    2800.4736   -43079.013    90.667782    0.9689832 
   41900    225.62005   -57.385171    129115.99   -40242.318    2807.1424    -43049.46    91.098149   0.96729684 
   42000    225.65186   -41.288447    129128.29   -40232.477    2807.5381   -43040.015    91.317087   0.96720472 
   42100    224.85535   -143.37423    129217.11   -40228.062     2797.628    -43025.69    91.821972   0.96653988 
   42200    229.93281   -50.650098    129074.43   -40190.647    2860.8013   -43051.449     91.72566   0.96760828 
   42300    227.45148   -40.540779    128873.88   -40163.884    2829.9289   -42993.813    91.722291   0.96911411 
   42400    228.21487   -23.520425    128970.91   -40201.805    2839.4268   -43041.232    91.711181   0.96838496 
   42500    228.91686    75.838984    129159.04    -40211.56    2848.1609    -43059.72    92.119646   0.96697447 
   42600    227.28682   -186.18925    129284.28   -40235.061    2827.8801   -43062.941    92.216935   0.96603774 
   42700    226.92149    158.79606    129305.41   -40249.235    2823.3348    -43072.57    92.432465   0.96587982 
   42800     224.8246   -232.54917    129192.38   -40203.028    2797.2454   -43000.274    92.515002   0.96672487 
   42900    222.62368    24.529327     129256.2   -40256.374    2769.8618   -43026.236    92.921021   0.96624758 
   43000    224.97756    19.683703    129473.35   -40284.591    2799.1486   -43083.739     92.90075   0.96462704 
   43100    220.98849   -160.15258    129318.29   -40263.674    2749.5169   -43013.191    93.417118   0.96578363 
   43200    222.40811    91.368994    129210.71   -40224.559    2767.1798   -42991.738    93.539835   0.96658776 
   43300      228.288   -67.481479    129304.19   -40250.035    2840.3368   -43090.372    93.395531   0.96588895 
   43400    228.06996   -3.7141986    129341.84   -40206.593    2837.6239   -43044.217    93.410242   0.96560784 
   43500     226.8324    15.731446    129465.84   -40206.938    2822.2263   -43029.164    93.585049   0.96468296 
   43600    235.64409   -44.376796     129564.1   -40115.975    2931.8605   -43047.836    93.892136   0.96395136 
   43700    230.32229   -83.383795    129821.67   -40145.884    2865.6471   -43011.531    94.301305   0.96203882 
   43800    228.18133    -117.0977    129691.56   -40153.648    2839.0096   -42992.657    94.647937   0.96300399 
   43900    227.08404    114.93654     129616.8   -40209.245    2825.3571   -43034.602    94.824777   0.96355943 
   44000    220.80226   -38.050802       129551   -40249.774    2747.1998   -42996.973    95.224285    0.9640488 
   44100    226.96413   -173.33468    129418.33   -40259.331    2823.8652   -43083.197    95.312997    0.9650371 
   44200    224.45223   -32.145489     129286.4   -40290.849    2792.6125   -43083.461    95.089414   0.96602185 
   44300    219.43042   0.90035069    129345.18   -40290.264    2730.1316   -43020.395    95.119496   0.96558289 
   44400    228.12382    60.265702    129108.64   -40241.589    2838.2941   -43079.883    95.152088   0.96735191 
   44500    223.65516    147.41596       129030   -40247.956    2782.6954   -43030.652    95.170659   0.96794146 
   44600    222.04643    75.569426    129082.76   -40320.915    2762.6797   -43083.594    95.310641   0.96754586 
   44700    227.78224    15.657043    128996.83   -40286.325    2834.0441   -43120.369    95.141262   0.96819036 
   44800    223.80668   -112.59092    129054.59   -40247.726    2784.5805   -43032.306    95.650393   0.96775705 
   44900      223.853   -157.28372    129005.56   -40195.151    2785.1569   -42980.308     95.94455   0.96812491 
   45000    220.93248    96.119645     128892.4   -40185.944    2748.8201   -42934.764    96.194241   0.96897484 
   45100    225.53069   -134.81076    128972.19    -40112.58    2806.0305    -42918.61    96.600984   0.96837535 
   45200    225.51992    8.9772388    129151.04   -40184.831    2805.8966   -42990.728     96.80861   0.96703436 
   45300    223.16424   -77.124404    129106.68   -40197.922    2776.5874   -42974.509      97.0005   0.96736662 
   45400    226.81682   -152.24766    128999.98   -40179.775    2822.0325   -43001.808    97.108883   0.96816671 
   45500    226.75755   -107.18286    129012.91   -40188.486     2821.295   -43009.781    97.361873   0.96806974 
   45600    226.76051   -206.57098    128865.34    -40189.84    2821.3319   -43011.172    97.447856   0.96917829 
   45700    224.81059    18.558794     128903.7   -40209.665    2797.0711   -43006.736    97.436094   0.96888985 
   45800    231.61046   -211.90393    128820.64   -40146.562    2881.6745   -43028.237    98.013767   0.96951457 
   45900    229.64986    63.122238    128896.93   -40074.677    2857.2809   -42931.958    98.199051   0.96894075 
   46000    226.47942    2.9486345    128996.71    -40066.29    2817.8345   -42884.125    98.232167   0.96819128 
   46100    225.93958   -132.35908    129141.35   -40014.012     2811.118    -42825.13    98.562618   0.96710694 
   46200    232.14162    52.793623    129166.98   -40019.031    2888.2831   -42907.315    98.636668     0.966915 
   46300    226.51145   -79.803951    129137.96   -40054.181    2818.2331   -42872.414    98.859703   0.96713231 
   46400     229.5718    -39.72968    129098.12    -40102.82    2856.3097   -42959.129    98.754925   0.96743078 
   46500     233.3676     113.5219    129270.98   -40124.072    2903.5366   -43027.608    99.023843   0.96613709 
   46600    230.12808    103.05411    129380.91   -40129.348    2863.2308   -42992.578    99.287863   0.96531626 
   46700    230.84944   -82.868494    129527.15   -40228.559    2872.2059   -43100.765    99.607878   0.96422638 
   46800    225.19312   -115.27059    129596.29   -40295.517    2801.8306   -43097.347    100.20022   0.96371195 
   46900    228.05987     111.8385    129498.87     -40221.8    2837.4984   -43059.298    100.30424   0.96443694 
   47000    228.93112    46.889294    129620.68   -40210.166    2848.3383   -43058.504    100.36001   0.96353062 
   47100    228.14041   -73.021637    129762.25   -40186.884    2838.5005   -43025.384    100.86567   0.96247941 
   47200    226.29035   -147.19408    129658.52   -40247.015    2815.4822   -43062.497    100.65124    0.9632494 
   47300    228.02453    56.375373    129599.62   -40279.323    2837.0586   -43116.381    101.19771   0.96368719 
   47400    227.26901   -147.10214    129506.96   -40249.944    2827.6585   -43077.602     101.4386   0.96437671 
   47500    224.99711     24.63671    129502.86   -40181.123    2799.3918   -42980.515    101.54677    0.9644072 
   47600    229.13367   -56.296824    129489.84   -40132.911    2850.8585    -42983.77    101.74598   0.96450419 
   47700    228.12401   -104.29914    129437.49    -40179.14    2838.2963   -43017.436    101.74508   0.96489428 
   47800    222.95735   -99.061674    129453.26   -40175.815    2774.0133   -42949.828    101.96605   0.96477673 
   47900    225.43153   -57.254322    129248.13   -40260.873    2804.7968    -43065.67    101.84072   0.96630789 
   48000     222.4108   -22.529663    129269.75   -40278.581    2767.2132   -43045.794    102.14065    0.9661463 
   48100    222.22911   -121.03777     129380.7   -40244.092    2764.9526   -43009.045    102.19982   0.96531779 
   48200    222.31556    56.600075    129203.13    -40283.52    2766.0282   -43049.549    102.19303   0.96664449 
   48300    224.26527   -223.78317    129066.84    -40264.09    2790.2863   -43054.376    102.56134   0.96766524 
   48400    228.95047   -22.514868    129085.17   -40169.164    2848.5791   -43017.743      102.636   0.96752782 
   48500     223.6046   -287.34534    129111.75   -40227.171    2782.0663   -43009.237    102.76598    0.9673286 
   48600    226.75286   -112.01932    129186.06   -40235.084    2821.2366   -43056.321    102.86935   0.96677221 
   48700    226.49267    7.1931426    128951.59   -40193.708    2817.9994   -43011.707    102.76983   0.96853006 
   48800    226.61772   -118.75076    128915.86   -40210.098    2819.5552   -43029.653    103.13025   0.96879849 
   48900    227.54312   -40.772552    128850.85   -40191.181     2831.069   -43022.249    103.68952   0.96928726 
   49000    224.67186    18.122806    128889.46   -40224.868    2795.3451   -43020.213    104.12645   0.96899691 
   49100    226.35897    85.895888    128639.98   -40205.576     2816.336   -43021.912    104.15298   0.97087613 
   49200    227.13391   -51.906848    128783.32   -40219.081    2825.9776   -43045.059    104.41322   0.96979556 
   49300    227.01999    46.219058    128887.92   -40171.065    2824.5603   -42995.626    104.65322   0.96900848 
   49400    222.54951   -21.795206    128812.37    -40138.58     2768.939   -42907.519    105.14076   0.96957681 
   49500    224.85767   -110.71812    128773.51   -40147.889    2797.6569   -42945.546     105.3082   0.96986946 
   49600     225.0914   -76.129584    128738.61   -40144.701     2800.565   -42945.266    105.28655   0.97013236 
   49700    221.32758    -100.6206    128685.65    -40161.59    2753.7359   -42915.326    105.22806   0.97053162 
   49800    222.46983    14.620974    128683.56   -40208.726    2767.9477   -42976.674    105.70386   0.97054739 
   49900    228.06301    326.91667    128808.09   -40100.278    2837.5374   -42937.816    106.24508   0.96960908 
   50000    225.55147    -252.1426    128776.48   -40150.119    2806.2891   -42956.408    106.61468    0.9698471 
   50100    226.63062   -9.6061512    128978.67    -40175.57    2819.7158   -42995.286    106.73679   0.96832674 
   50200     228.4677   -115.73726    129161.92   -40223.035    2842.5725   -43065.608    107.19442   0.96695287 
   50300    229.36485   -91.548031    129167.18   -40209.918    2853.7347   -43063.653     107.4049   0.96691352 
   50400     225.6261   -76.157971    129002.82   -40244.003    2807.2176    -43051.22    107.42939   0.96814542 
   50500    224.03978     73.79872    128899.13   -40280.018    2787.4808   -43067.499    107.93163   0.96892425 
   50600    226.38564   -108.94521    128825.77   -40307.578    2816.6678   -43124.246      108.266   0.96947601 
   50700    222.02983   -3.3983555       128627   -40311.255    2762.4732   -43073.728    108.38253   0.97097416 
   50800    224.49117    82.747247    128553.98   -40293.064    2793.0969    -43086.16    108.54283   0.97152565 
   50900    220.25573    76.778821     128618.5   -40193.532       2740.4   -42933.932     108.7238   0.97103831 
   51000    225.07842   -68.785022    128615.72   -40219.069    2800.4035   -43019.473    108.68163   0.97105928 
   51100    225.58249   -77.357988    128653.57   -40266.316     2806.675   -43072.991    108.83963   0.97077363 
   51200    224.14892    129.83825    128714.98   -40276.001    2788.8387    -43064.84    109.13181   0.97031044 
   51300    218.34899   -185.34214    128406.79   -40342.553    2716.6766    -43059.23    109.22544    0.9726393 
   51400    224.22095   -18.742988    128486.67   -40334.074    2789.7349   -43123.809    109.41787   0.97203462 
   51500    225.07192   -24.541404    128484.01   -40329.516    2800.3226   -43129.839     109.8958   0.97205477 
   51600    223.48877    44.436399    128549.62   -40281.434    2780.6252   -43062.059    109.69603   0.97155861 
   51700    225.46187    187.01514    128868.86   -40265.116    2805.1743    -43070.29    110.24608   0.96915183 
   51800    223.35826   -142.70629    129187.94   -40311.097    2779.0014   -43090.098    110.35516   0.96675813 
   51900    225.74217    71.627162    129106.62   -40357.787    2808.6618   -43166.449    110.37839   0.96736709 
   52000    218.88339   -129.58283    129089.45   -40368.152    2723.3255   -43091.478    110.50766   0.96749571 
   52100    223.13651     23.23291    129159.52   -40322.637    2776.2424   -43098.879    110.35281   0.96697088 
   52200    224.76567   -71.511594    129179.88   -40360.535    2796.5123   -43157.047    110.42924   0.96681843 
   52300    226.08286   -95.120317    129086.63   -40344.243    2812.9006   -43157.144    110.35945   0.96751689 
   52400    226.59873   -177.60461     129114.2   -40297.963     2819.319   -43117.282    110.82376   0.96731025 
   52500     228.1386    10.401565    129069.73   -40290.693    2838.4778   -43129.171    111.19064   0.96764356 
   52600    221.99055   -254.57924    129001.39   -40304.707    2761.9845   -43066.692    111.26412   0.96815615 
   52700    217.46609    9.2790611    128762.04   -40297.697    2705.6915   -43003.388    111.06064   0.96995585 
   52800    226.61764    115.95154    129003.01   -40247.673    2819.5543   -43067.227     111.6292   0.96814398 
   52900    219.14147   -54.529148    129072.73   -40232.315    2726.5365   -42958.852    111.67438   0.96762107 
   53000    227.46596    123.54248    129096.91   -40200.456     2830.109   -43030.565      111.606   0.96743982 
   53100    226.56468   -160.38831    128987.52   -40243.343    2818.8953   -43062.238    111.96431   0.96826027 
   53200    223.72737    31.970893    128991.85   -40234.381    2783.5939   -43017.975    111.88769   0.96822774 
   53300     225.5875    9.7446532    128918.41   -40236.386    2806.7374   -43043.123    112.02807   0.96877934 
   53400    222.22597    5.8012847    128835.87   -40312.589    2764.9135   -43077.502    112.17728       0.9694 
   53500    222.98502   -167.88491    128826.79   -40314.288    2774.3576   -43088.645    112.39687   0.96946833 
   53600    221.39038   -127.68397     128827.4    -40314.78    2754.5172   -43069.297    112.51796   0.96946371 
   53700     221.7973   -133.25136    128942.72   -40343.682    2759.5801   -43103.262    112.91193   0.96859666 
   53800    226.06778    132.54032    128938.19   -40235.605     2812.713   -43048.317    113.39207    0.9686307 
   53900    223.94513    121.05508    128838.49   -40297.127    2786.3031   -43083.431    113.54304   0.96938028 
   54000    224.79102   -60.678903    128887.36   -40286.914    2796.8276   -43083.742    113.56628   0.96901271 
   54100    222.82374   -179.09402    128792.33   -40311.662     2772.351   -43084.013    113.73781   0.96972771 
   54200    226.84458   -92.780459    128841.44   -40283.619    2822.3778   -43105.997    113.56928   0.96935806 
   54300     221.3608   -185.19964    128908.19   -40265.367    2754.1491   -43019.516    113.93024   0.96885614 
   54400     223.4406   -52.330018    129002.73       -40290    2780.0259   -43070.026    114.17623   0.96814609 
   54500    229.29841   -173.32494    128838.86   -40272.158    2852.9081   -43125.066    114.36818   0.96937748 
   54600    225.75017   -123.93529    129036.23   -40185.673    2808.7613   -42994.435    114.79156   0.96789476 
   54700    226.95727   -218.45186     129001.3   -40210.079    2823.7799   -43033.859    115.05954   0.96815681 
   54800    226.40767   -7.3332361    129021.83   -40280.902    2816.9419   -43097.844    115.13881   0.96800281 
   54900    223.81655    111.83629    129153.48   -40322.086    2784.7034    -43106.79     115.4293   0.96701606 
   55000    221.06514   -121.53546    128921.08   -40376.937    2750.4706   -43127.408    115.22113   0.96875931 
   55100    222.66151    66.705398    129240.64   -40351.849    2770.3324   -43122.181    115.63526   0.96636393 
   55200    222.50009   -167.08224    129192.99   -40351.123    2768.3242   -43119.447    115.75684   0.96672032 
   55300    223.94613   -106.35128    128978.17   -40312.844    2786.3156    -43099.16    115.92215   0.96833043 
   55400    223.88572   -108.24264    128965.49   -40305.331     2785.564   -43090.895    116.00345   0.96842564 
   55500     226.1465    18.910357    129011.55   -40233.097    2813.6924   -43046.789    115.96529    0.9680799 
   55600     227.7895   -12.212489    128910.42   -40268.139    2834.1345   -43102.273    116.08061   0.96883937 
   55700    227.53131    98.738398    129166.17   -40261.476    2830.9221   -43092.398    116.56349    0.9669211 
   55800    221.97379   -15.449481    129222.46   -40271.979    2761.7759   -43033.755    116.82565   0.96649988 
   55900    227.23686   -119.13635    129278.79   -40231.488    2827.2586   -43058.747    116.53401   0.96607876 
   56000    226.58005   -36.242639    129277.09   -40219.167    2819.0866   -43038.254    116.70163   0.96609143 
   56100    227.01271   -61.343056    129302.61   -40183.656    2824.4698   -43008.126    116.64892   0.96590074 
   56200    228.38072   -45.588585    129400.63    -40212.09    2841.4903    -43053.58    116.73505   0.96516909 
   56300    227.30436   -148.90143    129492.21   -40242.519    2828.0984   -43070.617    117.13913    0.9644865 
   56400    224.57017    14.165753    129541.28   -40226.854    2794.0798   -43020.934    117.51825   0.96412121 
   56500    221.98663    103.82927    129711.61   -40321.789    2761.9357   -43083.725    117.97007   0.96285515 
   56600    228.82904   -146.95214    129863.36   -40345.176    2847.0682   -43192.244    118.53708   0.96173003 
   56700    220.19049   -20.943017    129958.63    -40376.84    2739.5883   -43116.429    118.91279   0.96102501 
   56800    225.28689   -144.03823    129869.52   -40292.301    2802.9973   -43095.299    118.81037    0.9616844 
   56900    223.88084   -99.816825    129748.28   -40269.157    2785.5032    -43054.66    118.98477   0.96258301 
   57000    227.47391    34.012618    129728.88   -40198.795    2830.2079   -43029.003    118.95025   0.96272699 
   57100    224.34763   -61.454466    129620.37   -40253.618     2791.311    -43044.93    119.08077    0.9635329 
   57200    221.76292   -156.27352    129421.26   -40282.432    2759.1523   -43041.585    118.96165   0.96501525 
   57300    220.84544   -114.67356    129399.56   -40319.931    2747.7372   -43067.669    119.34362    0.9651771 
   57400    224.25947   -165.75271    129262.04   -40333.072    2790.2142   -43123.286    119.57759   0.96620394 
   57500    219.90455   -225.59807    129096.57   -40381.776    2736.0306   -43117.807     119.9577   0.96744239 
   57600    222.37246    -81.66509    129019.43   -40331.049    2766.7361   -43097.785    120.16301   0.96802082 
   57700    218.50669    206.97292     129419.3   -40373.431    2718.6386    -43092.07    120.39282   0.96502988 
   57800    220.35828    87.544283    129451.47   -40400.732    2741.6759   -43142.408    120.73985   0.96479009 
   57900    221.54831    29.331261    129601.14   -40361.596    2756.4822   -43118.078    120.99739   0.96367584 
   58000    223.04596   -88.197239     129541.8   -40366.762    2775.1158   -43141.878    121.25955   0.96411731 
   58100    217.25078   -133.96626    129338.45   -40285.192    2703.0128   -42988.204    121.02961   0.96563312 
   58200    225.66922   -96.765364    129233.87   -40227.267    2807.7542   -43035.021    120.56333   0.96641455 
   58300    226.17686   -184.72761    129248.89   -40145.359    2814.0701   -42959.429    120.97982   0.96630221 
   58400    229.03502   -123.14108    129207.58   -40148.225    2849.6311   -42997.856    121.03622    0.9666112 
   58500    226.55938   -211.33969    128956.89   -40157.109    2818.8294   -42975.938    121.35795   0.96849028 
   58600    227.61716   -185.14335    128976.14    -40124.05    2831.9902   -42956.041     121.7198   0.96834571 
   58700    230.14221    -101.1565    128971.86   -40130.607    2863.4066   -42994.013    121.75203   0.96837781 
   58800    227.51998   -115.78243    129183.63   -40182.748    2830.7811    -43013.53    121.77686   0.96679036 
   58900    223.44837   -131.12573    129304.45   -40241.895    2780.1226   -43022.018    122.25181   0.96588704 
   59000    223.83949    77.636011    129020.41   -40223.393    2784.9889   -43008.382    122.25458   0.96801347 
   59100    224.82024    28.669048    128865.93   -40221.931    2797.1912   -43019.122    122.20945   0.96917386 
   59200    226.35944   -120.13567    128860.71   -40252.003    2816.3418   -43068.345    122.18561   0.96921309 
   59300    223.31366    2.7996152    128720.18    -40245.21    2778.4465   -43023.656    122.60066   0.97027123 
   59400    227.74162   -388.63738     128923.9   -40292.957    2833.5387   -43126.496    123.01961   0.96873807 
   59500    224.01381    8.8907202    128910.67   -40256.282    2787.1577    -43043.44    122.94056    0.9688375 
   59600     221.6996   -112.35869    128905.08   -40248.305    2758.3645    -43006.67    122.70144   0.96887953 
   59700    224.01977   -128.63101     128767.2   -40266.724    2787.2318   -43053.956    122.91539     0.969917 
   59800    226.28158   -125.46101    128750.27   -40284.834     2815.373   -43100.207    123.05657   0.97004453 
   59900    221.75499   -14.397439    128776.04   -40250.826    2759.0536    -43009.88    123.41575   0.96985037 
   60000    221.12011   -2.8478883    128732.72   -40287.418    2751.1546   -43038.572    123.49129   0.97017678 
   60100    225.67278   -168.84098    128898.36   -40235.438    2807.7985   -43043.237    123.77158   0.96893001 
   60200     225.4109    79.722893    128782.69   -40223.157    2804.5401   -43027.698    123.81297   0.96980033 
   60300    227.71155    98.570961    128827.91   -40191.319    2833.1645   -43024.483    123.91853    0.9694599 
   60400    231.34749    6.7538297    128766.61   -40150.236    2878.4026   -43028.638    124.14059   0.96992143 
   60500    228.64863    -25.39496    128957.29   -40170.444    2844.8236   -43015.267    124.75343   0.96848725 
   60600    221.37825   -34.933577    128727.39    -40208.11    2754.3663   -42962.476    124.52575   0.97021695 
   60700    224.49642   -142.30195    128666.13   -40221.604    2793.1623   -43014.767    125.15438   0.97067884 
   60800    226.81129   -226.55107    128558.47   -40181.815    2821.9637   -43003.779     125.5042    0.9714917 
   60900    227.50276   -84.062531     128575.1   -40156.336    2830.5669   -42986.903    125.42978   0.97136609 
   61000    223.88395      25.9937     128793.6   -40192.976     2785.542   -42978.517    125.69982   0.96971816 
   61100    219.66848    66.194173    128898.69   -40222.283    2733.0935   -42955.377    126.08197   0.96892754 
   61200    222.84939   -228.81026    128658.15   -40230.015    2772.6701   -43002.685    126.08368   0.97073903 
   61300    220.77451   -16.709185    128699.38   -40223.157    2746.8546   -42970.012    126.19455   0.97042811 
   61400    225.22849   -264.62531    128475.29   -40276.942    2802.2707   -43079.213    126.56763   0.97212071 
   61500    223.91989   -9.8413944    128539.52   -40292.357    2785.9891   -43078.346    127.05527   0.97163494 
   61600    225.82406    29.264001    128753.58    -40266.89    2809.6807    -43076.57    127.35597   0.97001958 
   61700    221.57994    93.894395    128724.35   -40364.233    2756.8758   -43121.109    127.55228   0.97023984 
   61800    221.65381   -81.983368     129005.2   -40439.168    2757.7948   -43196.963    128.18933    0.9681276 
   61900    220.28777   -114.99303    129041.87   -40383.325    2740.7986   -43124.123    128.19919   0.96785246 
   62000    224.52711   -11.045703     128996.7   -40328.127    2793.5441   -43121.671     128.1016   0.96819134 
   62100    222.20676   -86.327165     129152.4   -40332.215    2764.6745   -43096.889    128.25224   0.96702414 
   62200    227.47175   -61.276903     129267.6   -40289.357     2830.181   -43119.538    128.50061   0.96616235 
   62300    224.31332    20.742557    129098.96   -40336.006    2790.8841    -43126.89    128.71995   0.96742448 
   62400    228.33376   -134.86473     129103.5   -40282.162    2840.9061   -43123.068    129.05438   0.96739044 
   62500    225.60957    142.15439    129075.83   -40316.529     2807.012   -43123.541    129.39264   0.96759783 
   62600    226.40184   -99.621787     129254.2    -40330.47    2816.8693   -43147.339    129.79308   0.96626251 
   62700    225.26025   -193.54114     129350.4   -40339.232    2802.6657   -43141.898    130.05333   0.96554393 
   62800    222.42413   -128.21903     129062.4   -40328.577     2767.379   -43095.956     130.0973   0.96769852 
   62900    226.83031   -23.030483    129058.37   -40283.265    2822.2002   -43105.465    130.05237   0.96772874 
   63000    230.78984   -217.17566    129062.69   -40245.842    2871.4643   -43117.307    130.66043   0.96769632 
   63100    227.24675    92.199879    129061.08   -40239.181    2827.3816   -43066.562    130.85441   0.96770843 
   63200    227.64308    40.148164    129323.05   -40260.438    2832.3127   -43092.751    130.96567   0.96574808 
   63300    224.29588   -123.14158     129294.1   -40289.514    2790.6672   -43080.181    131.14248   0.96596433 
   63400    226.63058   -13.281494    129321.27   -40202.376    2819.7153   -43022.091    131.40082    0.9657614 
   63500    224.77366   -145.21111    129172.01   -40286.237    2796.6117   -43082.849    131.77458   0.96687732 
   63600    221.40271    45.508296    129224.96   -40286.874    2754.6706   -43041.544     131.8972   0.96648117 
   63700    222.46763   -63.202401    129133.07   -40285.626    2767.9203   -43053.547      132.483   0.96716888 
   63800    219.59417   -352.47922    129137.17   -40391.353     2732.169   -43123.522    132.42819   0.96713821 
   63900    219.61565   -56.530707    128894.98   -40381.445    2732.4362   -43113.881    132.61959   0.96895547 
   64000    219.95261    26.563158    129062.94   -40362.035    2736.6286   -43098.664    132.81273   0.96769442 
   64100    228.56338   -108.64608    128984.73   -40275.282     2843.763   -43119.045    132.82928   0.96828121 
   64200    224.44966   -257.67931     128896.1   -40286.411    2792.5805   -43078.991    132.70855   0.96894701 
   64300    226.05087    186.03075    128889.74   -40189.517    2812.5025    -43002.02    132.86654   0.96899485 
   64400     227.8479    114.71111    129107.44   -40218.749    2834.8611    -43053.61    133.32635   0.96736091 
   64500    231.05776   -205.49838     129017.7   -40206.024    2874.7978   -43080.822    133.71114   0.96803376 
   64600     227.4467   -289.13408    129033.42   -40247.649    2829.8693   -43077.519     134.3031   0.96791586 
   64700    229.49128   -115.46147    128971.88    -40268.87    2855.3078   -43124.178    134.84614   0.96837768 
   64800    229.70608   -58.407155    128946.06   -40286.107    2857.9804   -43144.087    134.99853   0.96857161 
   64900    227.93995   -87.286804     129014.4    -40275.22    2836.0064   -43111.226     135.1408   0.96805855 
   65000     223.7539   -79.320318     129091.8   -40256.296    2783.9239    -43040.22    134.83261   0.96747811 
   65100     227.3701    95.743577    129115.08   -40284.495    2828.9163   -43113.411    134.87028   0.96730367 
   65200    228.38004   -105.67294    129115.87   -40280.175    2841.4819   -43121.657    135.19536   0.96729777 
   65300    221.15278   -91.635362    129031.52   -40284.173     2751.561   -43035.735    135.20985   0.96793011 
   65400    225.66701   -76.185152    129090.12   -40211.823    2807.7267    -43019.55     135.7556    0.9674907 
   65500    225.81209    154.64099    129212.07   -40263.104    2809.5318   -43072.635    135.97886   0.96657757 
   65600    225.20113   -271.03747     129169.8   -40296.089    2801.9302   -43098.019    136.26375   0.96689391 
   65700    223.26028    85.309697    129130.11   -40340.906    2777.7823   -43118.689    136.31939   0.96719108 
   65800    220.25746    -42.63198    128715.71   -40354.362    2740.4216   -43094.784    136.19819   0.97030497 
   65900    221.63717   -51.466142     128669.6   -40308.496    2757.5877   -43066.084    136.43706   0.97065267 
   66000    228.15893    78.979618    128963.25   -40210.321    2838.7308   -43049.052    136.93958    0.9684425 
   66100    228.92163   -97.062468    128969.28   -40156.891    2848.2203   -43005.111    137.26815   0.96839724 
   66200    228.40506   -123.94695    129072.48   -40137.296    2841.7932    -42979.09    137.31355   0.96762292 
   66300     226.1178   -5.5442644    129067.57   -40178.779    2813.3353   -42992.114    137.43408   0.96765974 
   66400    225.05906   -97.899042    129003.47   -40232.282    2800.1626   -43032.445     137.5065   0.96814054 
   66500    223.23038    162.68636    128901.02   -40258.513    2777.4103   -43035.924    137.43469   0.96891005 
   66600    226.40111    113.69026    129151.86   -40273.621    2816.8602   -43090.482    137.85668   0.96702822 
   66700    226.10439   -90.453945    129173.57   -40304.805    2813.1685   -43117.973    138.39475   0.96686567 
   66800    225.46414   -104.61806    129125.04   -40242.003    2805.2025   -43047.206    138.32184   0.96722904 
[...]
   84600    219.57953   -78.563585    128920.08   -40342.132    2731.9868   -43074.119    169.28145   0.96876676 
   84700    220.11485   -230.92622    128967.85   -40348.353    2738.6472       -43087    169.03286   0.96840796 
   84800    224.99756    -40.31613    129005.45   -40311.323    2799.3973   -43110.721    169.12717   0.96812567 
   84900    224.65387   -39.858136     129053.4   -40298.629    2795.1212    -43093.75    169.42318   0.96776599 
   85000    223.97228   -97.321676    129249.87   -40267.398    2786.6409   -43054.039    170.01299   0.96629492 
   85100    225.55549   -42.886976    129378.98   -40288.852    2806.3391   -43095.191    170.38932    0.9653306 
   85200    228.20134   -59.861766    129328.67   -40308.521    2839.2585    -43147.78    170.63093   0.96570613 
   85300    224.43242   -130.26714    129276.16   -40361.957     2792.366   -43154.323     171.1828    0.9660984 
   85400    223.98631   -2.9557887    129295.08   -40363.057    2786.8155   -43149.873    171.32434   0.96595706 
   85500    223.07367   -35.269709     129596.9   -40320.054    2775.4605   -43095.514    171.86334   0.96370743 
   85600    226.15274   -317.67377    129658.25   -40301.117      2813.77   -43114.887    172.09369   0.96325142 
   85700    226.99149    101.55217    129657.64   -40348.365    2824.2057   -43172.571    172.10632   0.96325597 
   85800    223.57368   -208.24156    129360.42   -40371.328    2781.6817    -43153.01    172.20155   0.96546912 
   85900    227.88356   -61.146843    129404.72    -40262.23    2835.3047   -43097.535    172.29426   0.96513859 
   86000    224.53461    48.204114    129489.09   -40315.134    2793.6375   -43108.772    172.33496   0.96450978 
   86100    223.15684   -201.48512    129501.39   -40317.285    2776.4953   -43093.781    172.61991   0.96441814 
   86200    228.98501    108.89519    129495.49   -40292.346    2849.0088   -43141.355    172.80941   0.96446212 
   86300    224.36917    111.94323    129762.73   -40318.534    2791.5791   -43110.113    172.97908   0.96247583 
   86400    220.13422    5.6329426    129760.32   -40347.124    2738.8883   -43086.012    173.27764   0.96249371 
   86500    224.83445    -76.16803    129531.56   -40333.808     2797.368   -43131.176    173.39508   0.96419355 
   86600     230.9134    51.655944    129519.02   -40273.732    2873.0018   -43146.734    173.47418   0.96428687 
   86700     228.1528   -159.19077    129481.04   -40267.969    2838.6546   -43106.623    173.31016    0.9645697 
   86800    227.89897    13.030513    129432.25    -40341.69    2835.4965   -43177.186    173.41892   0.96493332 
   86900    229.88193   -32.046841    129522.81   -40311.464    2860.1682   -43171.633    173.86045   0.96425868 
   87000     226.0692   -58.392866    129372.59   -40325.114    2812.7306   -43137.844    173.77444   0.96537828 
   87100    225.91335   -4.3404569     129389.4   -40352.493    2810.7916   -43163.285    174.07685    0.9652529 
   87200    226.15922    162.32077    129278.77    -40343.24    2813.8507   -43157.091    174.14475   0.96607891 
   87300    225.09515   -77.692258    129348.73   -40353.369    2800.6116    -43153.98    174.38956   0.96555635 
   87400     221.0523    38.936151    129546.52   -40362.714    2750.3108   -43113.025    174.20687    0.9640822 
   87500    222.38423   -6.6061794    129662.44   -40370.472    2766.8826   -43137.355    174.83922   0.96322026 
   87600    224.89028   -355.40279    129573.71   -40378.449    2798.0626   -43176.512    174.96921   0.96387985 
   87700    223.22341   -65.805732    129404.36   -40385.641    2777.3237   -43162.965    174.93751   0.96514129 
   87800    224.20033    107.53215     129498.2    -40376.44    2789.4784   -43165.919    174.81608    0.9644419 
   87900    224.38054   -234.51768    129599.12   -40393.001    2791.7205   -43184.722    175.17835   0.96369092 
   88000    224.89184   -58.151064       129496   -40420.062    2798.0821   -43218.144    175.56647   0.96445833 
   88100    227.05379   -116.85682    129364.13   -40351.565    2824.9808   -43176.546     175.5404   0.96544144 
   88200    227.66015    25.228246     129440.6   -40337.641    2832.5251   -43170.166    175.65203   0.96487106 
   88300    228.55548   -25.727234    129658.77   -40368.981    2843.6647   -43212.645    176.45959   0.96324753 
   88400    222.96891      160.942    129677.77    -40476.18    2774.1571   -43250.337    176.73887   0.96310639 
   88500    226.51574   -257.51996    129698.57   -40375.344    2818.2865    -43193.63    176.90326   0.96295193 
   88600    223.61014    -124.5776    129644.94   -40325.663    2782.1353   -43107.798    176.95752   0.96335027 
   88700    230.22164   -91.747151     129569.6   -40299.402    2864.3949   -43163.797    176.59247   0.96391041 
   88800    226.61038    70.096836       129521   -40227.003     2819.464   -43046.467    176.60543    0.9642721 
   88900    228.80272   -100.81188    129334.23   -40265.333    2846.7408   -43112.073    176.55616   0.96566466 
   89000    224.35623   -256.71791    129316.17   -40237.148     2791.418   -43028.567    176.60331   0.96579946 
   89100     222.4399   -135.72958    129239.71   -40319.961    2767.5752   -43087.536    176.23922   0.96637086 
   89200    219.25983 -0.018392453    129169.91   -40347.437    2728.0092   -43075.446    176.72923   0.96689307 
   89300    221.84534   -174.65386    129079.19    -40373.15    2760.1777   -43133.327    177.00292   0.96757263 
   89400    218.31962   -79.219304    129080.17    -40379.13    2716.3112   -43095.441    177.37648   0.96756526 
   89500    220.69863    8.6333812    129132.82   -40398.748    2745.9105   -43144.659    177.51046   0.96717081 
   89600    220.83565    49.549244    129107.42   -40434.134    2747.6154   -43181.749    177.60737   0.96736108 
   89700    222.79593   -249.67367    128950.68   -40408.729    2772.0049   -43180.734    177.58521   0.96853689 
   89800    222.18941   -128.51219    129046.93   -40366.534    2764.4587   -43130.992    177.97174   0.96781452 
   89900    220.12671    113.53656    129072.93   -40424.099    2738.7947   -43162.894    178.08867   0.96761958 
   90000    225.23372   -23.036339    129144.56   -40338.818    2802.3356   -43141.154     178.7627   0.96708288 
   90100    222.26661   -68.262711    129095.62     -40356.3    2765.4192   -43121.719    179.04518    0.9674495 
   90200    219.72306   -7.7521803    129159.88   -40377.081    2733.7726   -43110.853    179.15787   0.96696816 
   90300    222.06332   -8.4063151    129209.53   -40389.521    2762.8899   -43152.411      179.603   0.96659657 
   90400    223.91353    18.230243    129109.49   -40368.115    2785.9101   -43154.025    179.63038   0.96734558 
   90500    223.13787   -70.447626    128935.23   -40335.109    2776.2593   -43111.369    179.49336   0.96865298 
   90600    228.64958   -49.409578     128959.6   -40234.634    2844.8355    -43079.47    179.63591   0.96846992 
   90700    226.46385   -230.87406    128866.38   -40237.332    2817.6408   -43054.973    179.89365   0.96917044 
   90800    223.44765     8.081106    129069.81   -40256.566    2780.1136    -43036.68    180.06432   0.96764292 
   90900    224.09882   -66.041344    129251.12   -40353.404    2788.2153   -43141.619    180.35862   0.96628558 
   91000    220.44067   -161.39782    129060.68   -40367.677    2742.7011   -43110.378    180.55009    0.9677114 
   91100     221.7876    17.365592    128964.06   -40356.062    2759.4594   -43115.521    180.80594   0.96843641 
   91200    225.14873   -28.957889    129084.35   -40328.331    2801.2782   -43129.609    180.34617   0.96753392 
   91300    227.38081   -93.526076    128944.36   -40235.248    2829.0496   -43064.297    180.49456   0.96858436 
   91400    224.90335   -31.903431    128857.42   -40219.975    2798.2253     -43018.2    181.02434   0.96923789 
   91500    226.63805   -87.608018    128749.96   -40232.348    2819.8082   -43052.156    181.19028   0.97004686 
   91600    223.10438   -92.088296    128802.79   -40255.433    2775.8426   -43031.275    181.68189   0.96964899 
   91700    219.29396   -117.92569    128689.27   -40316.628    2728.4338   -43045.062    181.90142   0.97050431 
   91800      225.633    44.868583    128893.36   -40281.257    2807.3035   -43088.561    182.24497   0.96896758 
   91900    226.47213    111.36012    128814.77   -40287.578    2817.7438   -43105.322    182.17225   0.96955877 
   92000    222.24861    51.103017    128901.52   -40300.689    2765.1952   -43065.885    182.40954   0.96890624 
   92100    222.68293    122.74632    128955.18   -40356.193     2770.599   -43126.792    182.83368   0.96850308 
   92200    227.58805   -87.590174    129005.94   -40304.138    2831.6281   -43135.766    183.02042   0.96812205 
   92300    228.75967   -55.760967    129100.94   -40223.874    2846.2051   -43070.079    183.21875   0.96740961 
   92400    226.68025  -0.64756587    128997.07   -40239.942    2820.3333   -43060.276    183.11981   0.96818858 
   92500    222.47241   -139.41225    129091.29   -40281.073    2767.9797   -43049.053    183.18423   0.96748192 
   92600    226.52467   -45.039368    128837.72   -40259.483    2818.3975    -43077.88    183.23776   0.96938608 
   92700    229.51913    79.021311    129018.62   -40254.879    2855.6543   -43110.534    183.66772    0.9680269 
   92800    222.64203   -19.905941    129196.76   -40297.369    2770.0902   -43067.459     184.0611   0.96669215 
   92900    227.02259   -204.05035     129301.2   -40256.672    2824.5926   -43081.265     184.7029   0.96591131 
   93000    224.38037    46.647625    129148.98   -40295.936    2791.7184   -43087.655    184.70515    0.9670498 
   93100    225.27778   -1.9610092    129291.81   -40234.317    2802.8839   -43037.201    185.04652   0.96598144 
   93200    225.50877   -211.50933    129243.51   -40251.515    2805.7578   -43057.272    185.31199   0.96634249 
   93300    228.57744   -156.13272    129066.44   -40275.654    2843.9379   -43119.591    185.09607   0.96766823 
   93400    221.57747   -47.646645    128715.47   -40311.478     2756.845   -43068.323    184.52804   0.97030673 
   93500    223.27598   -64.415621    128708.51   -40338.856    2777.9777   -43116.833    184.95947   0.97035923 
   93600    221.00546    38.695137    128891.31   -40415.696     2749.728   -43165.424    185.28479   0.96898305 
   93700    222.46207   -45.208734    129053.91   -40384.691    2767.8511   -43152.542    185.63553   0.96776216 
   93800    221.65455    44.537465    128855.76   -40363.147     2757.804   -43120.951    185.86297   0.96925034 
   93900    222.86082   -36.996096    128898.66   -40349.011    2772.8123   -43121.823    186.43511   0.96892779 
   94000    226.80166   -61.945916     129009.2   -40366.903    2821.8438   -43188.747    186.45162   0.96809759 
   94100    224.94557   -72.235288    129146.29   -40377.227    2798.7505   -43175.977    186.72204   0.96706989 
   94200    221.17408   -120.97218    129104.36   -40369.794    2751.8261    -43121.62    186.63885     0.967384 
   94300    223.62607    121.56157    129155.88   -40310.006    2782.3335   -43092.339    187.30925   0.96699814 
   94400    225.33047   -154.87253    129241.53   -40293.973    2803.5394   -43097.513     187.6936   0.96635725 
   94500    228.55228    228.99438    129230.37   -40231.653    2843.6248   -43075.278     187.0293   0.96644068 
   94600    224.37052   -216.89611    129204.79   -40272.382    2791.5958   -43063.977    187.15935   0.96663204 
   94700    222.83014   -124.03226    129164.56   -40312.202    2772.4305   -43084.633    187.35724   0.96693315 
   94800    224.67758   -70.616022    129229.15   -40305.598    2795.4162   -43101.014    187.37366   0.96644983 
   94900    225.78355   -68.037101    129250.72   -40265.709    2809.1766   -43074.885    187.88305   0.96628859 
   95000     227.8288   -152.27205    129066.67   -40238.351    2834.6234   -43072.974    188.27306    0.9676665 
   95100    225.67903   -188.01362    128914.61   -40239.878    2807.8761   -43047.754    188.25873    0.9688079 
   95200    226.57385   -69.162345     128906.4   -40268.218    2819.0095   -43087.228    188.13825   0.96886957 
   95300    227.98882    15.363957    128929.19   -40158.385    2836.6143   -42994.999    188.68273   0.96869835 
   95400    229.93538   -34.931513    128966.38   -40229.625    2860.8333   -43090.459    188.78394   0.96841895 
   95500    226.18081    -195.5983    129119.72   -40243.828    2814.1193   -43057.947    189.23886   0.96726891 
   95600    228.84354   -230.31327    129057.77    -40229.82    2847.2487   -43077.068    189.42778   0.96773325 
   95700     226.5783   -118.71059    128940.07   -40295.141    2819.0649   -43114.205    189.20219   0.96861659 
   95800    221.42167    106.07013    129039.15   -40343.056    2754.9066   -43097.962    189.31357   0.96787286 
   95900    220.64652   -35.422206     129073.2   -40277.414    2745.2622   -43022.676    189.76205   0.96761756 
   96000    219.91569   -61.588798    129094.75   -40350.227    2736.1693   -43086.396    189.59602   0.96745604 
   96100     227.7133   -8.9492063     129090.1   -40284.663    2833.1864   -43117.849    189.56097   0.96749084 
   96200    221.72765    45.545533    129027.75   -40333.696    2758.7135    -43092.41    189.87553   0.96795837 
   96300    224.40896   -120.41252    129034.75   -40285.584    2792.0741   -43077.658    190.48849   0.96790588 
   96400    224.35738    43.230277    128968.65   -40270.779    2791.4323   -43062.211    190.60008   0.96840193 
   96500    224.46943   -92.082571    129012.88   -40308.278    2792.8265   -43101.105    190.56841   0.96806992 
   96600    223.94895    112.67462     129205.9   -40297.583    2786.3507   -43083.934    191.05912   0.96662378 
   96700    223.32662   -113.32079    129150.37   -40384.652    2778.6077    -43163.26    191.12379   0.96703933 
   96800    221.84017   -51.542858    129071.17   -40439.253    2760.1135   -43199.367     190.9881   0.96763276 
   96900    219.18875   -209.89335    129052.12   -40365.675    2727.1248     -43092.8    191.48879   0.96777557 
   97000    222.84699    13.493594    129080.45   -40370.578    2772.6402   -43143.218    191.86899   0.96756317 
   97100    222.57293   -218.29039    128984.37   -40360.341    2769.2304   -43129.572    191.83225   0.96828389 
   97200    222.69863   -114.32723    128965.87   -40380.954    2770.7943   -43151.749    191.78555   0.96842283 
   97300    218.51347   -103.80079    128964.75   -40358.007     2718.723    -43076.73    191.68872   0.96843123 
   97400     218.9411   -15.799837    128757.09   -40358.506    2724.0435   -43082.549    191.82785   0.96999311 
   97500    223.32195   -136.78617     128702.9   -40253.534    2778.5496   -43032.084    191.89947   0.97040156 
   97600    222.43558   -46.956321    128661.07   -40310.038    2767.5215   -43077.559    191.76436   0.97071705 
   97700    230.01672    55.914698    128672.97   -40236.651    2861.8453   -43098.496    191.73411   0.97062723 
   97800    226.42285   -22.411722    128831.98     -40214.7    2817.1307    -43031.83    192.05405   0.96942929 
   97900    226.84057   -123.68513    129120.68   -40189.318     2822.328   -43011.646    192.32899   0.96726172 
   98000    226.36406    20.393998    129143.19   -40209.306    2816.3992   -43025.705    192.69007   0.96709313 
   98100    228.13676   -156.21277    128904.34    -40292.72    2838.4551   -43131.175    192.69074   0.96888507 
   98200    224.56479     47.79732     128983.5   -40258.057    2794.0129    -43052.07    192.77391   0.96829047 
   98300    224.56156   -251.41964    128942.38   -40287.851    2793.9728   -43081.823     193.1522   0.96859924 
   98400    226.02163    -143.1879    128796.69   -40294.727    2812.1388   -43106.866    193.21747   0.96969487 
   98500    221.77441    52.639614    128838.01     -40288.3    2759.2952   -43047.596    193.60596   0.96938386 
   98600    221.30089   -93.274994    128806.78   -40317.038    2753.4038   -43070.442     193.6949   0.96961892 
   98700    222.12633   -72.096391    128884.81   -40365.351    2763.6738   -43129.025    193.98989   0.96903187 
   98800    217.82179    51.730437    128873.94   -40339.886    2710.1171   -43050.004    194.39566   0.96911365 
   98900    221.17086   -165.79275    128928.11   -40339.176     2751.786   -43090.962     194.2396   0.96870641 
   99000     220.2819   -58.260919    128885.48   -40384.812    2740.7256   -43125.538    194.58717   0.96902682 
   99100    225.99209    45.702456    129071.44    -40315.09    2811.7712   -43126.862    194.56655   0.96763073 
   99200    225.04754   -47.860586    129110.93    -40316.44    2800.0192   -43116.459    194.90996    0.9673348 
   99300    228.13199   -47.467498     129323.9   -40278.101    2838.3957   -43116.496    195.36045   0.96574175 
   99400    229.15034     14.85949    129301.19   -40253.656    2851.0659   -43104.722    195.44748   0.96591137 
   99500    228.40035    -18.70952    129431.09   -40146.281    2841.7346   -42988.015    195.76137   0.96494199 
   99600    226.61673    34.319709    129342.86   -40172.207    2819.5429    -42991.75    196.17765   0.96560017 
   99700    233.60441    3.0110415    129247.68   -40199.205     2906.483   -43105.688    196.01745   0.96631129 
   99800    225.67567   -78.261254    129150.41   -40210.993    2807.8344   -43018.827    196.01504   0.96703905 
   99900     222.2073   -68.554207    129017.79   -40256.711    2764.6812   -43021.393     196.0606    0.9680331 
  100000    228.28674    -112.0539    128820.56   -40265.687    2840.3211   -43106.008    195.73717   0.96951519 
  100100    229.31337   -161.13891    128802.19   -40185.612    2853.0942   -43038.706    195.76467    0.9696535 
  100200    225.84159    93.145265    128952.83   -40192.257    2809.8987   -43002.155    196.41132   0.96852078 
  100300    229.12714    21.687241    129164.03   -40175.991    2850.7772   -43026.768    196.59412   0.96693705 
  100400    225.05494   -113.47023     129156.8   -40217.913    2800.1113   -43018.024    196.81265   0.96699118 
  100500    228.75515   -7.0276217    129113.46   -40132.646     2846.149   -42978.794    196.84568   0.96731584 
  100600    229.95386    47.910145    129181.71   -40218.735    2861.0632   -43079.798    197.23439   0.96680478 
  100630    227.53098    -79.20948    129126.52   -40210.847    2830.9179   -43041.765    197.24523   0.96721794 
Loop time of 89.2971 on 6 procs for 100000 steps with 4175 atoms

Performance: 483.778 ns/day, 0.050 hours/ns, 1119.857 timesteps/s
98.6% CPU use with 6 MPI tasks x no OpenMP threads

MPI task timing breakdown:
Section |  min time  |  avg time  |  max time  |%varavg| %total
---------------------------------------------------------------
Pair    | 72.765     | 73.742     | 75.461     |   9.8 | 82.58
Neigh   | 5.2339     | 5.2599     | 5.2778     |   0.7 |  5.89
Comm    | 5.9834     | 7.6809     | 8.6673     |  30.0 |  8.60
Output  | 0.16036    | 0.16113    | 0.16461    |   0.4 |  0.18
Modify  | 1.7684     | 1.7865     | 1.8092     |   1.1 |  2.00
Other   |            | 0.6663     |            |       |  0.75

Nlocal:        695.833 ave         707 max         686 min
Histogram: 1 0 1 1 1 0 0 1 0 1
Nghost:        1469.83 ave        1485 max        1462 min
Histogram: 3 0 1 0 0 0 1 0 0 1
Neighs:        0.00000 ave           0 max           0 min
Histogram: 6 0 0 0 0 0 0 0 0 0
FullNghs:      19533.0 ave       20010 max       19123 min
Histogram: 1 1 1 0 0 1 0 1 0 1

Total # of neighbors = 117198
Ave neighs/atom = 28.071377
Neighbor list builds = 5673
Dangerous builds = 0

undump              1
unfix               2
unfix               3
unfix               4


################################################
#######         Run Simulation         #########
################################################

reset_timestep      0
log                 log.run_${NAME}
log                 log.run_liquid_density_MLmW
