LAMMPS data file via write_data, version 29 Oct 2020, timestep = 800000

4175 atoms
1 atom types

-0.7628617786548553 50.76286177865283 xlo xhi
-0.7628617786548553 50.76286177865283 ylo yhi
-0.7628617786548553 50.76286177865283 zlo zhi

Masses

1 18.015

Atoms # atomic

597 1 1.056252205648778 1.2637442776663965 1.4629846818858123 1 0 0
394 1 50.74130937103304 -0.6124293966544174 1.6508179439129083 0 0 0
2539 1 6.711735003647067 0.21035903676179413 -0.05351352250721264 0 1 0
414 1 46.558052375720706 24.931280842531578 15.175278972144763 0 0 0
508 1 35.59936587563588 24.609415108795087 1.4093898005171557 0 0 0
2031 1 14.963240959532046 2.2756499393638068 2.367903587893364 0 0 1
695 1 44.07241029411358 10.16088987525837 16.115450502217918 0 0 0
185 1 28.510200773699516 1.8521636322067034 0.20659525920347943 0 0 0
96 1 26.9116197900625 1.763854202015025 2.3229827244133885 0 0 0
1463 1 33.68978938990681 0.5294066135032622 0.8086197174471124 0 0 1
1854 1 36.49386417333898 0.06233220155972896 1.5824005179430283 0 0 1
281 1 41.33512571636034 1.7069037912889935 0.5455256066835004 0 0 0
1320 1 44.5692784114561 23.627311732516613 13.700865332517385 0 0 0
2306 1 45.19888790774954 1.5252714009668362 0.6774645413316218 0 1 0
2279 1 46.143566553409315 0.3029503942418772 2.9981092139604413 -1 1 0
1832 1 -0.1361145531723419 3.534054300870797 2.6494880936321374 1 0 1
704 1 13.225552981571298 -0.6745032922030969 10.118084353962239 0 0 0
467 1 28.69117975784621 24.976505773210626 14.856190252484797 0 0 0
701 1 3.520080033120032 5.416043726431708 2.396316967750458 0 0 0
379 1 6.656829287584837 2.363856147923839 1.7255860069416098 0 0 0
840 1 43.14029551703209 22.408111179369833 16.046516324072396 0 0 0
1495 1 7.968174845965722 4.548988804157687 0.7905188972407953 0 0 1
2502 1 15.326405039161699 2.7334794337780406 -0.4768714690387253 0 1 0
89 1 19.29175241679311 4.753546137664637 2.579658743025035 0 0 0
109 1 19.72548859517786 3.836447368640906 0.020274059321838567 0 0 0
3554 1 24.624688828351946 4.07139644059894 0.16705547714911329 0 1 1
269 1 29.500476174293514 4.316096696199136 0.3898617377383464 0 0 0
220 1 31.24594069775711 4.154450891720527 2.5015606821931087 0 0 0
393 1 33.76581222358509 3.183110778227278 1.6411194877988082 0 0 0
9 1 35.7304508849203 4.959161236619102 0.6107941201080342 0 0 0
1997 1 38.16933731749192 4.370904766162993 1.3737785565794458 0 0 1
123 1 46.03548935480791 4.184213614240713 0.9795526468459375 0 0 0
38 1 10.288855003490156 17.792450649391192 0.02215720251105391 0 0 0
458 1 -0.7070876121360535 8.469951974292561 0.45993208771848737 0 0 0
150 1 7.538852254952587 7.23771377731312 1.736538833934893 0 0 0
486 1 12.031813358268503 6.78712952779898 0.3777100730562122 0 0 0
179 1 14.850665341992249 7.395572808612206 0.10141351704016954 0 0 0
1577 1 16.731408237513524 8.260448933420696 2.0650744516407156 0 0 1
4001 1 19.46175289878649 8.368417101269792 1.2663565558274135 0 1 1
2059 1 25.955350643909565 6.490082124295276 -0.587728974782129 0 0 1
412 1 24.67864150578215 8.762864630661973 0.3694720464967096 0 0 0
106 1 28.046436542764273 6.416305129164673 1.3390714269160395 0 0 0
600 1 30.150045432370998 8.353174143270957 1.202862944368438 0 0 0
1826 1 34.8053676457632 7.311864203285351 1.9520402923695968 0 0 1
536 1 39.81145578448913 6.496849335862962 0.6031533311456057 0 0 0
1764 1 43.92042891158347 5.592608761075153 1.9967719660390766 0 0 1
2135 1 5.717708647860003 24.511345965783818 1.4223444265442202 0 0 0
491 1 23.684793630035408 -0.5347741284979559 13.778425235589832 0 0 0
174 1 48.25102801558096 7.776997507322649 1.983022392058368 0 0 0
154 1 1.1936952622771553 9.7697694447676 2.0877981910061325 0 0 0
388 1 -0.101832137330776 12.030296671644729 2.8574737581116456 1 0 0
80 1 3.8354787929079412 9.776986510745822 1.5237139032946514 0 0 0
343 1 5.288983405150375 11.89274680940138 2.856120139282469 0 0 0
213 1 7.9036061002902365 12.024900555497755 1.4843982979495265 0 0 0
55 1 9.145875909920845 9.572498326352928 1.658052202208565 0 0 0
219 1 11.63357605837548 9.556987931759695 0.32300581815659646 0 0 0
238 1 13.172404932479301 11.729221631498163 1.4800342709695244 0 0 0
676 1 15.67109139216588 12.03646902708846 -0.19543799020789576 0 0 0
305 1 20.100530275666816 10.874525506661685 1.4882140320016948 0 0 0
340 1 49.8481129409266 24.671804753930147 4.659846949547667 -1 0 0
1783 1 26.43328456564746 10.785553699342113 0.7538792031526749 0 0 1
682 1 28.58581859578498 10.30554843838456 2.6017626143949713 0 0 0
474 1 34.61701243911267 10.602474855151456 1.4180536539695008 0 0 0
411 1 40.467155569617034 10.714458584524134 2.375180687503247 0 0 0
511 1 44.72547414720542 10.169518598877609 0.9831160136941399 0 0 0
381 1 47.36759880442966 10.264959388634576 1.3932279922915636 0 0 0
1956 1 3.8061245967772486 14.128074462122484 2.55817861125324 0 0 1
1983 1 38.32789802786526 13.651253885126991 -0.40550225509111537 0 0 1
370 1 11.827067749480632 13.990302111302734 2.207875824868443 0 0 0
424 1 17.802062734719126 12.322647853513573 1.6640029365887048 0 0 0
548 1 22.932990778818414 13.473890586210356 0.14524608631118663 0 0 0
705 1 25.459128397799706 13.328171081392712 1.39468100588233 0 0 0
1768 1 29.09616729539799 14.349582852688373 0.7897973852457689 0 0 1
646 1 29.605092978610315 12.905199880785606 3.142753532641263 0 0 0
201 1 32.190963871596935 12.93139493777484 2.992265904689695 0 0 0
1915 1 2.5808438928884323 4.936379814527171 -0.18058661751833316 0 0 1
2028 1 33.395938242374584 12.78669259805173 0.2033045219489743 0 0 1
456 1 38.375494454066725 14.717128195582939 2.0903662821602387 0 0 0
599 1 25.43946541377037 -0.30966084014560946 1.0662741145681258 0 0 0
1559 1 44.87605951503079 12.89021244332711 0.037596425233476394 0 0 1
47 1 45.13357131870309 14.608529035657739 2.1385398837007616 0 0 0
1986 1 50.53698795852971 13.052445291099923 0.6407219852570958 0 0 1
553 1 49.17805549817106 15.456355618083183 1.4643929350990543 0 0 0
191 1 -0.4691666965838406 17.330555395899744 2.3996626200216555 0 0 0
514 1 1.3793438682750359 17.314957443631023 0.16018140863704955 1 0 0
136 1 7.545533285573365 17.96650888798389 0.4558440403213109 0 0 0
545 1 40.65712025235983 11.972435822053518 -0.12351952987963455 0 0 0
416 1 16.852537937525195 -0.6747734182961878 4.51557094352717 0 0 0
2316 1 1.612416491432016 24.140625270839482 -0.025504051485150114 0 0 0
333 1 16.213111951603153 17.192216733755828 1.0120389456744192 0 0 0
1699 1 18.070265326527423 15.269828996372798 1.0787381830049996 0 0 1
1877 1 21.249367682218814 15.483209013323485 1.3288266386039602 0 0 1
365 1 21.470571997609376 18.12302340742392 0.502397075196205 0 0 0
570 1 26.84815495311579 15.756737349948477 1.111009737486204 0 0 0
577 1 30.62476215253076 16.640406298368607 0.9043516870404982 0 0 0
10 1 35.12870205805811 17.02275250013754 0.3739780183256136 0 0 0
1750 1 35.91397220551478 15.809903219791057 2.8401730710975146 0 0 1
48 1 11.240234322816939 15.278933558858746 -0.3857559568145089 0 0 0
1664 1 42.04810527320163 17.344263625923862 0.7234263698964631 0 0 1
2056 1 44.65064125798922 17.533443508820316 1.8314559575717713 0 0 1
1488 1 46.71314424301332 17.758825612149078 -0.26966948086821957 0 0 1
1649 1 -0.12595896702535314 21.912518177187902 0.6149375700913762 1 0 1
672 1 2.1870707847779807 19.930465229296843 0.27214386383139133 0 0 0
331 1 6.6566092603131075 20.237319081370803 1.45677526146814 0 0 0
235 1 12.16401614450919 19.690288985312534 0.6200000733665847 0 0 0
1717 1 8.436824360576301 -0.456908789304866 4.340669146400063 0 0 1
454 1 24.115565088696442 18.457231246331517 -0.2765417845072298 0 0 0
1445 1 25.86080402482814 19.459532457669873 1.8459334221431503 0 0 1
678 1 28.004626179061425 20.323714233626553 0.28327519659244227 0 0 0
418 1 34.798397323822655 19.851927259908475 0.3331244446329378 0 0 0
2118 1 37.386725056481225 21.002955359716466 0.3357411732171105 0 0 0
1416 1 38.54157929968359 20.869326114481204 2.7635145477559875 0 0 1
4130 1 41.3329720430785 19.782872452467156 -0.43759543990472066 0 0 1
262 1 41.090571213810364 21.342746429029358 2.1329436125653762 0 0 0
175 1 49.01371289431826 18.75999254505173 1.2582215142678517 0 0 0
2458 1 9.467933309631238 -0.7448031930917246 -0.19734150054034527 0 1 0
1334 1 31.390392709299118 -0.6578364907601556 12.447427554847287 0 0 0
520 1 3.079308068305475 24.61534247379862 2.4565823361856483 0 0 0
630 1 18.25714803838412 -0.14148738727647325 8.493783760372228 0 0 0
1761 1 16.12890321564815 23.712219389191034 -0.3229924619206328 0 0 1
2411 1 11.465845629978032 23.7788377292052 1.4736525004716032 0 0 0
2557 1 21.04748514271572 24.630367953521613 6.499658190876457 0 0 0
3389 1 43.65521421364035 19.77894635134077 16.165246397789304 0 0 0
709 1 17.24390248028657 21.72185816343081 1.095478185151135 0 0 0
2042 1 19.539976361157724 21.876092668558893 2.4092288371389516 0 0 1
2695 1 21.063346891906665 22.79423192288915 0.5293003520294688 0 0 0
596 1 23.722302233433826 23.643640323482447 1.4097682106848652 0 0 0
105 1 25.887457187770803 24.364378629611974 -0.27367349140355485 0 0 0
2461 1 30.316035806649605 21.861304742648286 1.1787522654586575 0 0 0
408 1 15.652029075211843 22.890441700456385 15.227079821848365 0 0 0
432 1 47.9312455792395 5.782351787077992 -0.15118977684727164 0 0 0
2182 1 22.77950221327396 -0.23332209705153673 2.454504159830174 0 1 0
675 1 40.89442502378898 24.190088207758702 1.7808927811700515 0 0 0
1813 1 44.556285327585854 22.239715653489117 0.39308909187401286 0 0 1
323 1 3.0090667083296614 14.91612232535268 0.010011936917955988 0 0 0
2047 1 2.856487647138408 0.9772869208107866 3.355118921735629 0 0 1
169 1 8.599413776930925 2.0384170045708525 3.3952329231325846 0 0 0
324 1 19.253105866677604 0.17882538711499474 3.199728194824982 0 0 0
2069 1 22.750996953609707 2.225701561507555 3.7809271482201696 0 0 1
621 1 35.135952674714446 -0.4204370960085545 11.124414792038795 0 0 0
2793 1 28.386148160915898 1.1177826145448124 4.515486855707815 0 1 0
654 1 32.64007566859425 1.2546157055759184 5.469271202190882 0 0 0
506 1 36.60824486570161 1.210130021597493 4.25200391751582 0 0 0
696 1 36.43271404780204 0.09443003268846828 6.885602813031487 0 0 0
1943 1 41.130277879135136 2.282759927422047 3.1289621539942076 0 0 1
349 1 41.83039577715665 0.40697804183697084 5.037178148606186 0 0 0
2398 1 44.40277175260667 1.0387349731192517 4.973329860603362 0 1 0
147 1 48.81024203216619 0.6275138622783385 3.3712051315043325 0 0 0
468 1 1.2564418263742168 5.596968492703998 4.12312994744705 0 0 0
1505 1 4.767644255373475 2.9808462466416903 3.535166496363594 0 0 1
578 1 10.29148755028357 3.2492105098140236 1.4192085436904183 0 0 0
380 1 8.435602841507153 4.155672322768448 5.106131155351855 0 0 0
484 1 12.534575293449722 3.0387305634008377 3.6695810149830104 0 0 0
690 1 16.704208738469223 3.9450055040164944 3.7045524072989284 0 0 0
400 1 17.217644582106995 3.0455549424612163 6.344540525349076 0 0 0
670 1 20.155070863246298 2.716787758145556 4.192040856607295 0 0 0
265 1 24.823356950096475 3.5626715955921924 2.751150646796547 0 0 0
247 1 28.63472362169983 5.021437645909506 5.819041508048577 0 0 0
143 1 26.673227155962735 5.524952180206539 3.8446902826194673 0 0 0
3860 1 30.43476027307774 2.9803515536447147 4.741297126496548 0 1 1
2630 1 34.388077235550114 3.0618041977651016 4.4503316026519535 0 1 0
534 1 34.576859299591604 5.129890996069709 6.473980990261249 0 0 0
69 1 38.679825098863034 2.9649026264652925 3.780342477727504 0 0 0
43 1 39.11023079992748 4.7363198136010904 5.864877200880129 0 0 0
35 1 42.500780482157936 4.364945073432017 3.8628278010786126 0 0 0
164 1 44.76079409917757 3.639028834010488 5.399728240262026 0 0 0
464 1 46.99723689515763 4.024037402980313 3.733962542237469 0 0 0
375 1 49.469193110364785 3.038563145826493 4.3864302098608094 -1 0 0
502 1 0.5785395880568067 8.193080180636363 4.309512655475793 0 0 0
193 1 5.63449660331016 7.989020804063603 5.625040807806378 0 0 0
4 1 5.039201959850264 7.633888666487628 2.713754392704872 0 0 0
477 1 8.442619659971843 8.396740862744007 5.732402220042971 0 0 0
12 1 9.352877670827942 6.527270142444261 3.877468147241027 0 0 0
686 1 11.889920845550183 5.486057315329265 2.9536417409330165 0 0 0
466 1 13.029693235740893 7.682447837470326 4.3910506238111235 0 0 0
195 1 15.604881725959192 6.7512212015113615 4.118557644489418 0 0 0
66 1 19.697400059020488 7.650206676010512 5.914907140117887 0 0 0
354 1 20.72199831251859 7.278971708620597 3.3424410827162356 0 0 0
1719 1 23.209371555278246 8.541252305505678 2.749486600217282 0 0 1
225 1 25.083330799891705 7.769353440798641 4.888978829022202 0 0 0
95 1 32.12218859670129 6.95048099869318 2.8788212013619296 0 0 0
605 1 32.72061455302584 7.327371537192123 5.885488743722357 0 0 0
1 1 37.04567306710716 8.331670841005304 3.612650402898585 0 0 0
253 1 39.80644169161641 7.854848635304446 2.9938786630807686 0 0 0
140 1 40.92635901007107 6.3561366666984505 5.0291967954846735 0 0 0
420 1 45.156280440717936 7.827918223949773 3.0362841927385595 0 0 0
312 1 47.27219324186483 6.731915687393688 4.450240133968111 0 0 0
665 1 49.511005327258786 8.268822567711284 5.51956829873028 0 0 0
409 1 5.893591937912996 12.01045625569815 5.35666807687477 0 0 0
447 1 9.644629683988617 10.36815269470564 4.239024255151007 0 0 0
554 1 12.513224539522472 10.401397069799632 3.9909047457969686 0 0 0
708 1 15.656766420400796 10.681275329449033 2.9481851480408845 0 0 0
427 1 17.652339337078537 11.487104486708406 5.071324980571094 0 0 0
440 1 20.153673846030404 10.42688585366909 5.585245953178587 0 0 0
115 1 21.951420198633404 10.934260743338456 3.4117925572754 0 0 0
338 1 26.022225000955412 12.561481400435099 5.394219462268013 0 0 0
576 1 26.990588711319894 9.898410814427555 4.86780218219305 0 0 0
662 1 32.39069094967441 9.961386049227906 3.0323885573872276 0 0 0
51 1 33.14899326980546 10.01139949834767 5.664044583628069 0 0 0
271 1 35.66403817728073 11.161279623062425 6.197949326993065 0 0 0
419 1 36.23481438486087 10.946820443199844 3.617434272151285 0 0 0
372 1 44.14116764800535 9.154512202690592 4.9584902021863275 0 0 0
671 1 43.06665125203237 11.043589395741716 3.224519991349019 0 0 0
462 1 48.14276410237444 10.684890621745668 5.846423120308582 0 0 0
187 1 48.62599675873011 11.771097783579537 3.5454045316822755 0 0 0
19 1 1.050735668034737 14.708686172128646 3.418737981164239 0 0 0
8 1 0.203608958657705 14.19038659674768 6.4577996143734735 1 0 0
437 1 8.65540485450809 12.897217865717625 5.300322642905811 0 0 0
637 1 9.056205051091252 13.987886750379014 2.7558815183780827 1 0 0
36 1 12.915795993046384 14.438548981079563 4.743160475849388 0 0 0
516 1 17.40995140952448 14.055140232383174 4.208288202416594 0 0 0
113 1 21.799946339188654 15.185942986723306 4.087090324164841 0 0 0
531 1 23.856198849375613 13.250477123657705 3.629690552372188 0 0 0
351 1 28.63684397960367 13.555576477804397 5.595656946243065 0 0 0
42 1 34.04595641345345 14.656039910421079 4.157217568727675 0 0 0
339 1 35.042915536136945 13.863743719358808 6.730791935358827 0 0 0
266 1 38.77373200610582 12.41537594420394 3.5552678198657848 0 0 0
337 1 39.322059306517545 14.177210745802391 5.799890595718763 0 0 0
562 1 41.67236533919565 15.546543996475425 5.072339769310526 0 0 0
594 1 43.50971822696849 13.586466803639816 4.171598762983499 0 0 0
519 1 47.66354769114683 14.421578584567987 3.5091121006815813 0 0 0
609 1 0.6548980390436898 18.34348917090267 4.583811701872369 1 0 0
335 1 4.84397794352375 16.246100232879154 4.040811745927494 0 0 0
112 1 3.390888362381123 18.442875841206842 4.181213061238893 0 0 0
2052 1 7.52679082440422 16.43940541741623 2.666523328052 0 0 1
301 1 9.884748816963345 17.896513092046142 4.465388550975279 0 0 0
421 1 11.535814321076572 16.19062623047017 6.040251083268033 0 0 0
547 1 15.37763779021687 15.314024599724359 5.052498629247205 0 0 0
656 1 15.840806405496316 17.888692678605857 3.6939708306706436 0 0 0
1501 1 19.405151837046407 15.70920663256333 5.169811877928345 0 0 1
607 1 18.722010438349088 18.15388848584422 4.399155624615833 0 0 0
363 1 23.602408259574926 17.190805687419342 4.343349877598466 0 0 0
188 1 26.158372187261495 17.140678129433688 3.2539477368400096 0 0 0
192 1 28.407491031335383 17.630987442700764 4.795144153622053 0 0 0
296 1 30.655398600222902 17.63048005423178 3.328577652128236 0 0 0
555 1 32.469042428310786 16.708954120508704 4.8215189536021805 0 0 0
503 1 36.70677824224549 17.55115548716614 4.677242973142852 0 0 0
991 1 40.63752430077649 16.454973961401866 2.743806019617094 0 0 0
222 1 48.01117718635338 16.491087470692467 5.692398240499619 0 0 0
284 1 0.15125254378830932 21.000866202634096 5.794522086005538 0 0 0
575 1 4.04622719613467 20.079762336123572 2.2776985222200072 1 0 0
189 1 7.983598735284703 21.495716536522078 3.890155492657806 0 0 0
615 1 8.891015629049308 19.84436039793173 5.9387861021575254 0 0 0
1718 1 11.801082862850102 19.503577354912597 3.148405248304451 0 0 1
297 1 14.186440871425914 19.73631209895424 4.385702538848684 0 0 0
49 1 20.789166473873372 19.377935290802984 2.763007995532444 0 0 0
501 1 22.61330353015285 19.916139833664225 4.659002717810152 0 0 0
417 1 24.728648691232898 21.739410061916775 3.1823096127423347 0 0 0
587 1 31.197182765722488 20.371403438367174 3.29091566787078 0 0 0
529 1 33.789472209702865 20.72906556900082 2.770903649618295 0 0 0
151 1 34.02235346742286 18.8108887803378 5.160669551382945 0 0 0
460 1 39.26750915236269 18.350998564638317 3.880090521700173 0 0 0
463 1 42.627543327807544 20.21388348347742 4.290077578989395 0 0 0
366 1 46.823800494785786 18.987766609437802 5.651357891123517 0 0 0
108 1 45.21246963329142 19.564566781011866 3.486616048776062 0 0 0
1733 1 48.97083452460481 20.953330720220936 2.844167758498137 0 0 1
292 1 48.681400313066476 21.175652810764753 5.7195883688249 0 0 0
2311 1 -0.12013614080227886 22.332165759842397 3.4937184821675027 0 0 0
139 1 2.8204484910860756 22.08348034428137 3.671523474078315 0 0 0
236 1 7.5699904871910295 23.674421248114157 5.522975901365888 0 0 0
33 1 10.730067050061926 22.184088096711786 3.5068133353390207 0 0 0
170 1 15.956546779094616 21.61825440726479 3.5110286952643817 0 0 0
3754 1 14.966465787001622 24.097025002057347 3.8884396797500482 0 0 1
298 1 19.072373190790266 23.866585953305805 4.730448128620694 0 0 0
527 1 17.537464773549637 21.90239914580596 5.885271303584814 0 0 0
2307 1 25.433295409965975 22.978108191213977 5.599592661907064 0 0 0
518 1 29.63660048109995 21.72761918530904 5.336444399847614 0 0 0
6 1 27.851547004701878 23.973756995700445 5.497234019622695 0 0 0
2585 1 29.330597205540194 24.324992463377267 2.7686141847409953 0 0 0
177 1 34.62972750884059 23.129897607590877 3.478952028625346 0 0 0
2324 1 32.89947340671863 24.663323737808213 4.877528304757807 0 0 0
261 1 37.24262408889341 22.901015407161054 4.472485818443648 0 0 0
168 1 43.26404747238169 22.42388943061851 5.421399314281326 0 0 0
1795 1 46.51338538017934 22.00120195560371 2.414789894015314 0 0 1
1412 1 45.4060256105559 23.383133874351564 4.245409837160332 0 0 1
689 1 14.077716918235435 23.74772535165823 12.984767302990798 0 0 0
2640 1 1.0759143225383379 2.7679396228452893 7.308226742320253 1 1 0
280 1 2.366588675471243 0.7527265549215021 5.932093767061167 0 0 0
2319 1 39.49742819937923 24.74530301896878 14.103391755728923 0 0 0
18 1 6.286493632313481 1.360065113790283 7.36775368082602 0 0 0
639 1 8.866763896934293 0.7173227760039698 7.660473298243817 0 0 0
2665 1 13.344508521126242 0.17018600453363475 7.431222587597956 0 1 0
2524 1 16.254690353990842 0.4824706578701179 7.00512859984978 0 1 0
611 1 32.13159720865197 13.020126895123232 16.225335557528094 0 0 0
100 1 21.043547323244123 1.22345768062844 8.16541388661497 0 0 0
74 1 23.451881826881763 2.008549862016518 6.588310026926825 0 0 0
992 1 25.132242635957425 0.21919382729852344 7.7848159871011156 0 0 0
2752 1 27.44831946154842 1.1473269818618266 7.074310321879722 0 1 0
310 1 29.417465165413006 0.04223276738312942 8.500129137418984 0 0 0
2653 1 31.976658951947332 1.506630259610148 8.145866934030979 0 1 0
624 1 34.733573965790995 1.1944515962100752 8.8867439807115 0 0 0
1955 1 40.8116209484795 0.5982241283823875 7.597112754508776 0 0 1
441 1 44.848074074555555 2.2351656894567093 9.304797277625713 0 0 0
16 1 43.01950869621602 0.10653338987928662 9.134561111214907 0 0 0
567 1 45.916282895500814 0.3078405883603905 7.313759307623975 0 0 0
535 1 48.66115424246392 0.4573288545780556 7.507183680808071 0 0 0
478 1 2.164997190312833 5.119707047658876 6.568064539190558 0 0 0
256 1 5.0484906216876 5.867065258788882 7.191448019059977 1 0 0
45 1 5.910952453665194 3.578620004548262 5.876198922797468 0 0 0
592 1 9.930989560045155 3.081147692746887 7.2857700737736675 0 0 0
22 1 12.602997099796962 2.720778579015743 6.415141157419719 0 0 0
591 1 13.490795927347841 4.977344635326402 7.663111258662074 0 0 0
558 1 16.2035212192192 4.974894131123197 7.689069915756345 0 0 0
413 1 19.694273362289017 3.087567642653498 6.881445606211382 0 0 0
556 1 24.524226673710046 4.1748733852398185 7.690376211405633 0 0 0
479 1 27.466893267677385 3.7186991338277435 8.179613960862703 0 0 0
410 1 31.730676260947217 4.296327296511601 7.196020352497168 0 0 0
181 1 35.09080984695733 4.157712402757231 8.975267892777154 0 0 0
434 1 40.236687802710364 3.294815886880114 8.094569250174564 0 0 0
2488 1 42.62355872517081 3.7230538287766057 9.292496814371454 0 1 0
2005 1 46.53220495535285 5.671882677225941 6.970251108293026 -1 0 1
268 1 49.86811192939959 2.899682920024961 7.1178221694294015 0 0 0
2894 1 48.711752471510266 5.013292129410805 8.62929263561224 0 1 0
20 1 1.248471354843676 7.320384628236635 8.229022465018058 1 0 0
426 1 9.807775703152927 8.188755522679983 8.19375791301866 0 0 0
3 1 12.438009700731715 7.638221932934732 7.50524391968392 0 0 0
449 1 16.9941740946581 7.447328129000903 6.5056243157923 0 0 0
1115 1 16.417310768321393 9.440948490986326 8.3755576638864 0 0 0
82 1 20.392413849474423 5.853986531346775 8.085958055843506 0 0 0
524 1 22.26703439965698 7.430283059850192 9.267888441977538 0 0 0
58 1 24.484374765399526 7.145553016212465 7.684829398774177 0 0 0
488 1 26.13435884721889 8.377664897437096 9.232488914726533 0 0 0
663 1 30.039810513218175 7.292051885937523 6.707807229061934 0 0 0
71 1 36.708944117347954 6.391271673204988 5.620449058664554 0 0 0
148 1 38.40735340219831 8.153150900155175 7.56087556025523 0 0 0
162 1 44.061707610099035 6.117902608940415 8.185431966637749 0 0 0
50 1 42.68632423216076 7.5574693211338815 6.462661173901541 0 0 0
552 1 50.04612892558316 7.22832693451304 8.105374021780062 0 0 0
496 1 1.4558348792145122 9.415154492805629 6.4936262092642965 0 0 0
23 1 0.3443869995515747 11.059420749720495 8.595980036892914 1 0 0
616 1 4.2143696323685065 10.173454459291051 6.557105733587015 0 0 0
446 1 5.2081786853920295 10.838483298428933 9.197388026106227 0 0 0
1301 1 9.77024934220976 10.869785236410651 9.005883900305484 0 0 0
465 1 16.000699611953383 12.06017524296093 7.270039984154931 0 0 0
697 1 21.440534357911464 11.793340123554007 7.888091854028117 0 0 0
153 1 28.129224484483895 9.287953358110954 7.2780324317021385 0 0 0
283 1 29.20705700949993 11.735332540868907 7.580137996101923 0 0 0
629 1 31.94459055205864 11.406867416289087 7.785331161857615 0 0 0
313 1 36.53429689246167 9.83993816758355 8.53264507560484 0 0 0
838 1 37.8625527700634 11.910237613220708 9.559037825505513 0 0 0
293 1 40.99683764203884 9.435626659682034 7.696713480152166 0 0 0
1152 1 40.06307346484897 12.237064524123134 7.971489073157388 0 0 0
224 1 45.595168023552446 10.596970070457743 6.356157005377831 0 0 0
425 1 46.160797159314754 9.80712142130801 9.07560275228941 0 0 0
525 1 48.932499210393956 9.723865034385486 9.062076430659042 0 0 0
62 1 2.8086662707061687 15.17188126951908 7.435240917599753 0 0 0
657 1 5.202481888314856 14.930280365350363 6.2156363326388915 0 0 0
87 1 7.581044536184804 11.987584243544914 8.174084198429147 0 0 0
53 1 9.355014993533782 14.742807959655886 7.170577613424531 0 0 0
316 1 11.49679067282914 15.045843971912452 9.146203982580865 0 0 0
57 1 12.003041584801226 12.33485430046859 8.389522011790055 0 0 0
423 1 13.189126189283163 12.251889699299952 6.062222784740916 0 0 0
251 1 17.228478901771606 13.814169386747912 8.744850792734848 0 0 0
625 1 20.007469054989883 13.99934974583521 9.094258670038792 0 0 0
452 1 24.1907262003962 12.633012687614853 7.627242587164952 0 0 0
132 1 24.882038120958914 15.011129707159133 8.706682492882225 0 0 0
229 1 27.680280128282504 15.113416280662825 9.640324393026065 0 0 0
119 1 32.716029085238034 14.05072308664522 8.346926493418467 0 0 0
252 1 37.15824508953315 15.668046120957406 6.570647942673176 0 0 0
279 1 36.19080828498545 14.505464410880869 9.55868464299313 0 0 0
91 1 42.519645465442096 13.593100232735551 8.476978125274501 0 0 0
652 1 44.67783252161719 13.274553635676396 6.7248447107282745 0 0 0
37 1 46.36795745052582 15.166896494792626 7.693361972652738 0 0 0
359 1 49.49108189498925 12.28576925496061 7.401727808132678 0 0 0
332 1 47.99882918615958 14.029852202620532 9.497858145605289 0 0 0
39 1 2.7768605995150737 17.69391671407787 8.470049946143146 0 0 0
494 1 6.87119898266457 15.96025345022008 7.780258273056029 0 0 0
221 1 13.491174919003695 17.12289263933157 8.421087520791858 0 0 0
350 1 15.80631459650256 15.901639925764236 7.685458144382164 0 0 0
15 1 17.64267469886063 17.962849521405758 8.532785195755158 0 0 0
829 1 19.969627299072272 16.421455299676758 7.810521645863295 0 0 0
77 1 22.190783648455987 17.760268453653055 8.448258872164146 0 0 0
125 1 24.514869266347926 17.454751666702684 7.139634634672287 0 0 0
128 1 28.77572450405621 16.067662380200584 6.912295545757868 0 0 0
348 1 31.479461439356175 16.14548255927192 7.1405431451493335 0 0 0
231 1 31.911012612639343 18.29948331152664 8.763262914098098 0 0 0
176 1 37.66966742668296 17.00448659649619 9.089049210619022 0 0 0
574 1 40.20165203042919 17.26717276738306 9.960048743150894 0 0 0
294 1 42.19897133791163 16.385289012987634 7.993684086237888 0 0 0
275 1 44.63071352627249 16.771870513541888 8.87644954569837 0 0 0
54 1 50.45330251039499 16.865088645048495 6.543343365753663 0 0 0
325 1 49.98357789577885 18.38466639485994 8.905456009636463 -1 0 0
240 1 1.4039863718898986 21.872074384196473 8.366786894921388 0 0 0
59 1 1.0156997397274 19.53069123860653 9.727469039901163 0 0 0
566 1 4.372853055805225 19.15730228848082 6.6036195770533475 0 0 0
601 1 3.519273062930438 21.877208812647133 6.590224730887583 0 0 0
398 1 6.9627199324062925 18.815628422755985 7.495655214139079 0 0 0
142 1 11.031810134154492 21.06028378733824 7.337503813363497 0 0 0
302 1 13.607856737908934 19.587686206798985 7.07162919999236 0 0 0
352 1 18.707987242611882 19.707744672969746 6.569033709348838 0 0 0
317 1 21.443350401932715 20.1002544737166 7.221505272087322 0 0 0
560 1 25.76379675894686 19.833016052830832 7.880419414597265 0 0 0
512 1 28.311696485160283 19.705329650961147 6.979786762091727 0 0 0
60 1 33.217482173462244 20.228794652521824 7.3477860487634175 0 0 0
40 1 35.6381969546146 21.268593707884612 8.575834261293524 0 0 0
165 1 37.54075499595167 21.307665546971023 6.678556828354983 0 0 0
1968 1 38.77764381582327 18.82512231317699 6.999263419482874 0 0 1
636 1 41.309067363952835 20.67457007418011 8.270350803559705 0 0 0
669 1 41.53143937397135 18.687970337044543 6.211253612886724 0 0 0
7 1 43.84454882186661 21.301552833011865 7.832062791695433 0 0 0
490 1 45.62645425056445 19.166874968216895 7.88571478785072 0 0 0
710 1 47.841844691472645 20.09863720882612 9.307253130633876 0 0 0
214 1 -0.6051155782813507 23.729212056780312 8.778319475909596 0 0 0
110 1 5.495111329497094 23.46214910197817 7.228034194304491 0 0 0
2696 1 5.713833984672734 22.4163943396487 9.833907001039723 0 0 0
2361 1 23.640008951159626 24.864014210971458 5.500439250346164 0 0 0
549 1 11.241657199367403 23.532168489680455 6.005756022590946 0 0 0
2504 1 13.980338033261296 24.13798594095183 6.555822479594304 0 0 0
2310 1 15.350491518324702 21.81475835221145 7.492707235185433 0 0 0
2654 1 28.79212318232712 24.674436825447312 8.255502483743106 0 0 0
422 1 21.908538894683655 22.557989621246097 8.39818449870486 0 0 0
2457 1 24.940897165881925 22.41376371014163 8.359027878238102 0 0 0
2709 1 26.777891122305252 23.70070749231158 10.038368880896204 0 0 0
52 1 31.698988690854282 22.520452169145088 6.805665077932946 0 0 0
217 1 30.976015367168397 23.536767605619595 9.204212686054099 0 0 0
450 1 41.48159541967131 6.334986590594597 15.240468940717037 0 0 0
101 1 39.53044173974993 22.78677087853096 7.888937681145821 0 0 0
485 1 41.103828440010474 24.109487816201522 6.065400447942629 0 0 0
46 1 47.5800216840002 23.666294038311314 5.96221333798371 0 0 0
17 1 48.18963392492219 22.80457411143479 8.585599186001405 -1 0 0
200 1 1.5314510396805594 1.6208055360439988 9.70341966719545 1 0 0
2564 1 0.8759259162229625 -0.1837026768027359 11.746776866235795 0 1 0
2161 1 4.463358209829056 1.4683629192183631 10.125323926023071 0 1 0
2436 1 8.322705697692676 2.735488034344877 11.402529800444247 0 1 0
2816 1 8.777739756620798 0.14355186300712186 10.396148427868509 0 1 0
1096 1 37.458650339152925 19.66179614195418 16.38115688605155 0 0 0
2644 1 13.46941521290164 1.8654509088946547 11.050167886418482 0 1 0
497 1 16.084574328229625 1.7680109835581699 11.658352163158868 0 0 0
922 1 1.2774171576412336 7.716980783272589 15.50975881813548 0 0 0
306 1 21.825455137547998 1.798559525926763 10.774179871502842 0 0 0
135 1 26.609515715864315 0.16049326411236564 11.783801298070559 0 0 0
445 1 29.289184337641284 0.8030645418896527 11.21146603206194 0 0 0
833 1 37.449716677609345 0.13990131058954303 12.548289600939666 0 0 0
680 1 27.096138113233472 1.2897887839412712 16.151280212576655 0 0 0
730 1 41.35856661376471 -0.4310301385290243 11.393710015844743 0 0 0
713 1 40.927536427961655 2.093892380167958 12.723288307957773 0 0 0
2178 1 47.67762015005772 0.17288501414863455 11.944451849284102 0 1 0
290 1 50.178828842294436 1.4247834782841347 12.509613606262642 0 0 0
167 1 -0.03808598509895744 3.530669722128118 11.22419207290288 0 0 0