
# Create simulation box of size 50 x 50 x 50 Angstrom
#
lattice	            sc 1
Lattice spacing in x,y,z = 1.0000000 1.0000000 1.0000000
region 	            all block 0 50 0 50 0 50 units box
create_box          1 all
Created orthogonal box = (0.0000000 0.0000000 0.0000000) to (50.000000 50.000000 50.000000)
  1 by 2 by 3 MPI processor grid

# fill box with 4175 randomly distributed atoms
#
create_atoms        1 random 4175 63782 all
Created 4175 atoms
  create_atoms CPU = 0.001 seconds
mass                1 18.015

# Define potential
#
pair_style          sw
pair_coeff          * * ML_mW.sw mW
Reading sw potential file ML_mW.sw with DATE: 2019-02-27

# Run minimization
#
minimize            1.0e-8 1.0e-8 10000 1000
WARNING: Using 'neigh_modify every 1 delay 0 check yes' setting during minimization (../min.cpp:187)
Neighbor list info ...
  update every 1 steps, delay 0 steps, check yes
  max neighbors/atom: 2000, page size: 100000
  master list distance cutoff = 6.0032907
  ghost atom cutoff = 6.0032907
  binsize = 3.0016454, bins = 17 17 17
  1 neighbor lists, perpetual/occasional/extra = 1 0 0
  (1) pair sw, perpetual
      attributes: full, newton on
      pair build: full/bin/atomonly
      stencil: full/bin/3d
      bin: standard
Per MPI rank memory allocation (min/avg/max) = 4.255 | 4.258 | 4.261 Mbytes
Step Temp E_pair E_mol TotEng Press 
       0            0    7792709.3            0    7792709.3    5898794.3 
     630            0   -45180.336            0   -45180.336   -154.07449 
Loop time of 1.1627 on 6 procs for 630 steps with 4175 atoms

99.5% CPU use with 6 MPI tasks x no OpenMP threads

Minimization stats:
  Stopping criterion = max force evaluations
  Energy initial, next-to-last, final = 
      7792709.32924461  -45180.0188663597   -45180.336116598
  Force two-norm initial, final = 2.0191930e+08 4.9721331
  Force max component initial, final = 1.0948746e+08 0.73126211
  Final line search alpha, max atom move = 0.053306038 0.038980685
  Iterations, force evaluations = 630 1000

MPI task timing breakdown:
Section |  min time  |  avg time  |  max time  |%varavg| %total
---------------------------------------------------------------
Pair    | 0.87176    | 0.98778    | 1.0572     |   5.9 | 84.96
Neigh   | 0.023701   | 0.024832   | 0.026402   |   0.6 |  2.14
Comm    | 0.058441   | 0.1298     | 0.2471     |  16.5 | 11.16
Output  | 0          | 0          | 0          |   0.0 |  0.00
Modify  | 0          | 0          | 0          |   0.0 |  0.00
Other   |            | 0.02028    |            |       |  1.74

Nlocal:        695.833 ave         704 max         685 min
Histogram: 1 1 0 0 1 0 0 1 0 2
Nghost:        1494.17 ave        1515 max        1468 min
Histogram: 1 1 0 0 0 0 1 1 1 1
Neighs:        0.00000 ave           0 max           0 min
Histogram: 6 0 0 0 0 0 0 0 0 0
FullNghs:      19997.0 ave       20462 max       19320 min
Histogram: 1 1 0 0 0 0 0 2 0 2

Total # of neighbors = 119982
Ave neighs/atom = 28.738204
Neighbor list builds = 26
Dangerous builds = 0

# Add velocity/set timestep
#
velocity            all create ${TEMP} 120598 rot yes dist gaussian
velocity            all create 210 120598 rot yes dist gaussian
timestep            5.0

# Define output
#
compute	            1 all msd
thermo	            100
thermo_style        custom step temp press vol etotal ke pe c_1[4] density

# Neighbor lists
#
neigh_modify        delay 0 every 1 check yes

# Set fixes
#
fix                 1 all momentum 10 linear 1 1 1 rescale
fix                 2 all nve
fix                 3 all temp/csvr ${TEMP} ${TEMP} 500.0 928347
fix                 3 all temp/csvr 210 ${TEMP} 500.0 928347
fix                 3 all temp/csvr 210 210 500.0 928347
fix                 4 all press/berendsen iso ${PRES} ${PRES} 1000.0 modulus 20000
fix                 4 all press/berendsen iso -650 ${PRES} 1000.0 modulus 20000
fix                 4 all press/berendsen iso -650 -650 1000.0 modulus 20000

# Run 0.5 ns equilibration
#
dump                1 all custom 1000 eq.${NAME}.dump id type x y z vx vy vz
dump                1 all custom 1000 eq.liquid_density_MLmW.dump id type x y z vx vy vz
run                 100000
Per MPI rank memory allocation (min/avg/max) = 3.506 | 3.508 | 3.511 Mbytes
Step Temp Press Volume TotEng KinEng PotEng c_1[4] Density 
     630          210    801.42152       125000   -42567.537    2612.7992   -45180.336 2.7295415e-33   0.99914793 
     700    134.17989   -497.60063    126043.84     -41759.3    1669.4529   -43428.753   0.24493169   0.99087342 
     800    163.65533   -797.23289    126398.79    -41025.69    2036.1834   -43061.874   0.55765193   0.98809089 
     900    184.61526   -459.96343    126489.78   -40611.014    2296.9648   -42907.979    0.9248791   0.98738009 
    1000    195.41357     -459.094    126724.95   -40350.109    2431.3164   -42781.425    1.3129799   0.98554774 
    1100    206.00163   -457.09687     126886.5   -40187.794    2563.0519   -42750.845    1.5858353   0.98429299 
    1200    202.13625   -506.10623    127354.29    -40226.34    2514.9593     -42741.3    1.9348849   0.98067757 
    1300    200.85135   -607.10596    127735.79   -40210.108    2498.9726   -42709.081    2.2643233   0.97774864 
    1400    204.21531   -631.34736    127950.11   -40231.743    2540.8267   -42772.569    2.5648162   0.97611088 
    1500    205.78685   -803.26419    128063.53   -40198.777    2560.3796   -42759.156    2.8514991   0.97524633 
    1600    210.51667   -706.63629    128350.78   -40112.403    2619.2276    -42731.63    3.2419039   0.97306372 
    1700    213.92523   -642.17615    128162.54    -40172.42    2661.6366   -42834.057    3.6072362   0.97449292 
    1800    207.88569   -426.47911    128102.07   -40261.196    2586.4932   -42847.689    3.8738767   0.97495293 
    1900    210.11022     -643.351    128384.31   -40281.466    2614.1706   -42895.637     4.129519   0.97280959 
    2000    211.25443   -513.80435    128360.15   -40262.608    2628.4068   -42891.015    4.3513472   0.97299272 
    2100    213.20189   -660.34012    128677.98   -40241.938    2652.6368   -42894.575    4.6190815   0.97058948 
    2200    214.52435    -613.3338    128604.19   -40289.509    2669.0908   -42958.599    4.8742529   0.97114634 
    2300    211.61508   -666.15743    128915.25    -40286.98    2632.8939   -42919.873    5.0770375   0.96880305 
    2400    213.52899   -721.32534    129059.02   -40322.423    2656.7066    -42979.13     5.255149   0.96772382 
    2500    217.56416   -612.53249    129064.12   -40302.485    2706.9118   -43009.397     5.435203   0.96768558 
    2600    218.09344   -615.35515    129198.67   -40279.505    2713.4971   -42993.002    5.6624983   0.96667784 
    2700    214.75152   -579.85545    129402.55   -40326.355    2671.9172   -42998.272    5.9703414    0.9651548 
    2800    214.45195   -624.93681    129504.42   -40351.203      2668.19   -43019.393     6.145801   0.96439562 
    2900    214.01224   -816.83745    129489.86   -40437.843    2662.7191   -43100.562    6.3411296   0.96450403 
    3000    209.83816   -701.14134    129459.85   -40486.397    2610.7856   -43097.183    6.4385079   0.96472758 
    3100    212.76653   -660.01221    129515.43   -40480.681    2647.2201   -43127.901    6.6750117   0.96431362 
    3200    209.35113   -601.71877    129500.21   -40530.071    2604.7261   -43134.797    6.9132062   0.96442691 
    3300    214.21533   -600.26997    129779.16   -40542.847     2665.246   -43208.093    7.1431611   0.96235398 
    3400    212.84074   -754.73891    129818.45   -40594.606    2648.1434   -43242.749    7.3404305   0.96206272 
    3500    210.42316   -578.01185    130137.01   -40623.453    2618.0642   -43241.518    7.5884106   0.95970774 
    3600    207.98005   -707.65553    130125.48   -40681.848    2587.6672   -43269.516     7.711298   0.95979275 
    3700    204.93954   -653.65973    130343.73   -40739.219    2549.8374   -43289.057    7.8887053   0.95818562 
    3800    202.30271    -673.5731    130365.68   -40687.569    2517.0303     -43204.6    8.2220656   0.95802431 
    3900    209.41743    -568.5859    130249.08   -40733.733     2605.551   -43339.284    8.4250519   0.95888192 
    4000    209.95393   -545.69764    130389.32   -40727.753     2612.226   -43339.979    8.4746656    0.9578506 
    4100    210.80292   -603.15566    130357.04   -40719.546    2622.7891   -43342.335    8.6929392   0.95808782 
    4200    211.34577   -696.62792    130473.16   -40742.626    2629.5431   -43372.169    8.7629783   0.95723509 
    4300     209.3164    -384.3341    130668.58   -40758.525     2604.294   -43362.819    8.9344954   0.95580355 
    4400    210.07036   -652.45785    130790.35   -40759.306    2613.6747   -43372.981    9.0602373   0.95491366 
    4500    205.64151   -714.26649     130892.9    -40768.72    2558.5714   -43327.291    9.2551914   0.95416551 
    4600    208.60096   -509.66187    130994.83   -40807.552    2595.3925   -43402.944    9.5157195   0.95342304 
    4700    210.25193   -775.58885    130926.31   -40731.996    2615.9338    -43347.93    9.6032232     0.953922 
    4800    211.49811   -571.21803    130935.75   -40787.067    2631.4386   -43418.505    9.7276169   0.95385328 
    4900     212.4608   -752.15791    131088.51   -40699.795    2643.4163   -43343.211    9.7755402   0.95274174 
    5000    212.65276   -579.84048    131140.49   -40659.643    2645.8046   -43305.447    9.8080233   0.95236405 
    5100    209.53814   -670.92048    131365.73   -40731.308    2607.0528    -43338.36    9.9996195   0.95073118 
    5200    211.87524   -545.22658    131537.07   -40805.175    2636.1308   -43441.306    10.098164   0.94949269 
    5300     208.8927   -681.56826    131539.26   -40791.902    2599.0223   -43390.924    10.268035   0.94947692 
    5400    209.42895   -500.77872    131435.86   -40845.028    2605.6943   -43450.722    10.367005   0.95022384 
    5500    213.39766   -608.36595     131637.8    -40868.48    2655.0725   -43523.553    10.552344   0.94876613 
    5600    210.99791   -744.03302    131563.33   -40884.756    2625.2151   -43509.971    10.675739    0.9493032 
    5700    210.96289   -594.25749    131754.87   -40900.364    2624.7794   -43525.143    10.744716   0.94792317 
    5800    208.56825    -562.6792    131811.18   -40923.989    2594.9855   -43518.975    10.989973   0.94751816 
    5900    209.81124   -569.02153    131982.54   -40974.053    2610.4507   -43584.504    10.941323   0.94628799 
    6000    209.19519   -665.26089    131915.32   -40992.177    2602.7859   -43594.963    10.946443   0.94677017 
    6100    211.14718   -464.69628    132110.53   -40950.274    2627.0724   -43577.346    11.074077    0.9453712 
    6200    209.16928   -444.07387     132199.3    -41019.32    2602.4635   -43621.784    11.100435   0.94473644 
    6300     208.6097   -547.28855    132271.67   -40994.815    2595.5013   -43590.316    11.298382    0.9442195 
    6400     209.8303   -698.75187    132324.96   -40969.103    2610.6878   -43579.791    11.541609   0.94383928 
    6500    210.29106   -550.81373    132385.89   -40920.474    2616.4205   -43536.895    11.620432   0.94340486 
    6600    207.93942   -750.72141    132558.33    -40999.57    2587.1617   -43586.732    11.571991   0.94217763 
    6700    205.69462   -673.62466    132485.94    -41071.53    2559.2322   -43630.762    11.626517   0.94269242 
    6800     212.1258   -742.69594     132580.6   -41009.264    2639.2482   -43648.513    11.728361   0.94201932 
    6900    212.11037   -728.40516    132593.85   -40971.295    2639.0563   -43610.351    11.819398   0.94192524 
    7000    207.90187   -659.67029    132560.84   -40973.249    2586.6946   -43559.943    11.815012   0.94215979 
    7100    209.97821   -611.58692    132577.42   -40996.304    2612.5281   -43608.832     11.91205   0.94204195 
    7200    209.60921   -593.82762    132765.59   -41064.849    2607.9371   -43672.786    11.954307   0.94070676 
    7300    206.91243    -624.7973    132859.28   -41117.663     2574.384   -43692.047    12.054523    0.9400434 
    7400    206.15822   -597.12366    132813.21   -41139.152    2565.0003   -43704.153    12.224752   0.94036948 
    7500    209.12529   -730.67802    132891.71   -41117.669    2601.9162   -43719.585    12.134335   0.93981398 
    7600    204.11311   -583.92109    132891.98   -41200.467    2539.5551   -43740.022    12.166609   0.93981213 
    7700    209.32818   -593.29372    132916.63   -41103.824    2604.4406   -43708.265    12.224355   0.93963783 
    7800    210.06924     -713.941    132987.41   -41080.309    2613.6607    -43693.97    12.453271   0.93913767 
    7900    207.34612    -668.6403    132827.41   -41147.783    2579.7799   -43727.563    12.389965   0.94026898 
    8000    208.22721   -592.48387    132886.09   -41118.283    2590.7423   -43709.026    12.297362   0.93985379 
    8100    205.81872   -576.42944    132849.04   -41195.593    2560.7762   -43756.369    12.343529   0.94011589 
    8200    208.69766   -678.53088    132800.09   -41224.222    2596.5956   -43820.817    12.366476   0.94046236 
    8300    207.63593   -743.40395    132837.03   -41209.223    2583.3857   -43792.608     12.44972   0.94020088 
    8400     210.3954   -731.61848    132931.37    -41156.37    2617.7188   -43774.089    12.587761   0.93953364 
    8500    212.96707   -549.60223    133085.77   -41089.296    2649.7153   -43739.011    12.599871   0.93844363 
    8600     209.7541   -685.83648    132935.11   -41115.028    2609.7398   -43724.768    12.562293   0.93950718 
    8700      209.754   -730.46492    132880.57   -41099.341    2609.7385   -43709.079    12.580312   0.93989278 
    8800    209.38865   -803.74111    132839.47   -41143.471    2605.1928   -43748.663    12.567703    0.9401836 
    8900    207.04302   -710.44846    132840.57   -41211.945    2576.0088   -43787.954     12.61708   0.94017578 
    9000    210.29721   -557.62366     132939.3   -41160.069    2616.4971   -43776.566    12.702861   0.93947756 
    9100    202.31038   -608.81957    132978.09   -41217.995    2517.1257   -43735.121    12.789812   0.93920356 
    9200    209.33742   -627.63803    133079.24   -41122.269    2604.5555   -43726.824    12.810333   0.93848967 
    9300    205.91952    -711.7798    132951.61   -41170.982    2562.0303   -43733.012    12.811791   0.93939056 
    9400    210.42876   -620.32489    132951.87   -41125.737    2618.1338   -43743.871    12.942165   0.93938874 
    9500    208.79872   -686.62827    132913.43     -41148.4     2597.853   -43746.253    13.005239   0.93966043 
    9600    211.40216   -690.73998    132941.58   -41120.005    2630.2447   -43750.249     13.09233   0.93946146 
    9700    211.65331   -609.08734    132965.69   -41066.237    2633.3696   -43699.607    13.112664   0.93929108 
    9800    207.16359   -654.18685       133059   -41139.769    2577.5089   -43717.278    13.206457   0.93863241 
    9900    203.92343   -687.17622    133079.75    -41207.47    2537.1951   -43744.665    13.300153   0.93848605 
   10000    205.70857    -655.5646    132966.76   -41200.767    2559.4057   -43760.173    13.421989   0.93928356 
   10100    211.58377   -587.59261    133095.28   -41176.167    2632.5044   -43808.671    13.509835   0.93837653 
   10200    209.03935   -634.51775     132820.1   -41230.865    2600.8469   -43831.712    13.454045   0.94032068 
   10300    210.77955   -557.45099    132906.54   -41233.739    2622.4983   -43856.237    13.524118   0.93970918 
   10400    210.79686   -689.40036    132942.56   -41186.749    2622.7136   -43809.463    13.517907   0.93945456 
   10500    212.47842   -528.63062    132992.95   -41169.714    2643.6355   -43813.349    13.751016   0.93909861 
   10600    211.56171   -844.07459    132877.37   -41119.899    2632.2298   -43752.129    13.560745   0.93991542 
   10700    210.53247   -645.01874    132777.31   -41112.971    2619.4242   -43732.395    13.681641   0.94062373 
   10800    214.00052    -583.7081     132858.7   -41097.841    2662.5733   -43760.415    13.742401   0.94004755 
   10900    214.68886   -632.14199    132727.64   -41130.456    2671.1375   -43801.594    13.892212   0.94097572 
   11000     210.9122    -770.0349    132948.47   -41125.677    2624.1487   -43749.826    13.942653   0.93941277 
   11100    209.89265   -693.56886    132845.94   -41170.197    2611.4636   -43781.661    14.095876    0.9401378 
   11200    211.10703   -570.80561    132855.42   -41178.816    2626.5728   -43805.389    14.070099   0.94007076 
   11300    209.20878   -659.80755    132771.43   -41191.668    2602.9549   -43794.623    14.078178   0.94066541 
   11400    209.98479   -637.29962    132591.38   -41201.689      2612.61   -43814.299    14.018023   0.94194276 
   11500    206.88949   -501.60281    132663.11   -41239.396    2574.0985   -43813.495    14.068745   0.94143344 
   11600    209.05586   -738.64903    132636.52   -41246.919    2601.0523   -43847.971    14.051683    0.9416222 
   11700    212.75805   -699.04009    132836.72   -41155.343    2647.1147   -43802.457    13.956215   0.94020305 
   11800    210.89152   -781.82454    132908.75   -41223.671    2623.8914   -43847.562    14.073203   0.93969354 
   11900    209.77704   -746.60984     132951.3   -41241.507    2610.0252   -43851.532    14.223709    0.9393928 
   12000    209.26589   -660.19878    132850.46   -41238.939    2603.6656   -43842.605    14.316305   0.94010584 
   12100    209.88434   -675.07439    132843.36   -41189.755    2611.3602   -43801.115    14.390882   0.94015609 
   12200    209.64376   -588.63894    132908.53   -41187.484     2608.367   -43795.851    14.519267   0.93969506 
   12300    210.49117   -650.97634    132999.78   -41201.941    2618.9103   -43820.851    14.439336   0.93905037 
   12400    210.61161   -483.74773    133043.99   -41186.497    2620.4089   -43806.906    14.551553   0.93873835 
   12500    208.42175   -605.36679    133108.35   -41277.396    2593.1628   -43870.559    14.566587   0.93828442 
   12600    213.47256   -494.39268    133202.37   -41195.331    2656.0045   -43851.336     14.57229   0.93762213 
   12700    209.83073   -957.54749    133185.66   -41173.403    2610.6932   -43784.096     14.64639    0.9377398 
   12800    211.48537   -756.09197     133247.9   -41158.314    2631.2801   -43789.594    14.711956   0.93730179 
   12900    214.09041   -572.94244    133205.81   -41224.026    2663.6917   -43887.717    14.790816   0.93759789 
   13000    211.25001   -710.10911    133470.29   -41169.908    2628.3518    -43798.26    14.855202   0.93574001 
   13100    208.12141   -688.18446     133338.7   -41175.236     2589.426   -43764.662    14.982431   0.93666348 
   13200    211.95502    -562.9861    133372.73    -41099.77    2637.1234   -43736.894    14.960161   0.93642447 
   13300    214.04124   -625.14399    133419.01    -41143.94      2663.08    -43807.02    15.112233   0.93609964 
   13400    210.27457   -656.96742    133347.21   -41224.566    2616.2154   -43840.781    15.119792   0.93660373 
   13500    209.36028   -631.37329     133313.6   -41253.878    2604.8399   -43858.717     15.15321   0.93683984 
   13600     208.0044   -730.55886    133348.18   -41285.415    2587.9702   -43873.385    15.120225   0.93659692 
   13700    207.84413   -665.18992    133372.91   -41284.234    2585.9762    -43870.21    15.199867   0.93642325 
   13800    210.42241   -683.80588     133304.1   -41207.012    2618.0548   -43825.067    15.257464    0.9369066 
   13900    213.28791   -626.53555    133298.48   -41253.698     2653.707   -43907.405    15.261617   0.93694611 
   14000    210.40271   -702.34765    133407.73   -41247.999    2617.8098   -43865.809    15.234757   0.93617885 
   14100    209.90161   -670.41201    133588.09   -41250.106    2611.5751   -43861.681    15.403996    0.9349149 
   14200    209.13421   -620.25396    133428.52   -41294.135    2602.0271   -43896.163     15.36618   0.93603298 
   14300    206.02622   -599.02477    133491.95   -41344.582    2563.3578    -43907.94    15.474869   0.93558819 
   14400     210.0421   -739.04089    133341.97   -41315.742     2613.323   -43929.065    15.491862   0.93664049 
   14500    214.25635   -593.01299    133238.25   -41264.217    2665.7563   -43929.973    15.516119   0.93736967 
   14600    211.61116   -600.78776    133311.61   -41276.073    2632.8452   -43908.918    15.446854   0.93685383 
   14700    207.15966   -753.05045    133374.12   -41331.707      2577.46   -43909.167    15.449271   0.93641475 
   14800    209.13462   -625.01158    133424.87   -41374.077    2602.0323   -43976.109    15.479395   0.93605855 
   14900    207.69829   -562.80695    133270.79   -41454.903    2584.1616   -44039.065    15.526661   0.93714079 
   15000    203.30183   -553.02435     133312.7   -41474.946    2529.4613   -44004.407    15.568159   0.93684618 
   15100    208.35774   -580.42043    133494.59   -41491.117    2592.3664   -44083.483     15.80833   0.93556968 
   15200    206.91006   -561.45421     133557.5   -41416.183    2574.3545   -43990.538    15.934714     0.935129 
   15300    208.77585   -723.17228    133667.51   -41428.837    2597.5685   -44026.405    15.992326   0.93435938 
   15400    206.77842   -709.21183    133822.81   -41409.985    2572.7166   -43982.702    16.092763   0.93327505 
   15500    207.66066   -632.59088     133790.8   -41388.007    2583.6934     -43971.7    16.045484   0.93349834 
   15600    210.00499   -562.04638    133771.12   -41322.772    2612.8613   -43935.633    16.002521   0.93363566 
   15700     201.6483   -685.58436     133481.4   -41411.808    2508.8882   -43920.696    16.038944   0.93566211 
   15800    209.77669   -560.98649    133653.93   -41400.325    2610.0208   -44010.346    16.071518   0.93445431 
   15900    206.95328   -539.03588    133893.79   -41432.502    2574.8922   -44007.394    16.140063   0.93278034 
   16000    208.81565   -683.29437     133870.1   -41373.274    2598.0637   -43971.338    16.226517   0.93294537 
   16100    209.04207   -643.12504    133931.28   -41322.848    2600.8808   -43923.729     16.30127   0.93251919 
   16200    210.01666   -711.32605    134016.71   -41374.208    2613.0065   -43987.215    16.278537   0.93192478 
   16300    208.28322   -663.86141    133876.06   -41391.241    2591.4393   -43982.681    16.235795   0.93290387 
   16400    214.61636   -638.14456    133825.37   -41310.828    2670.2356   -43981.063    16.283492    0.9332572 
   16500    211.51839   -592.13449    133916.16   -41310.276    2631.6909   -43941.967     16.26507   0.93262448 
   16600    212.41696   -537.38271    134011.09   -41298.099    2642.8708    -43940.97    16.273748   0.93196387 
   16700    215.05894   -774.08548    134158.39   -41325.013     2675.742   -44000.755    16.378074   0.93094058 
   16800    215.89642   -700.43073     133985.9   -41325.899     2686.162    -44012.06    16.316397   0.93213904 
   16900    212.79197   -559.26122    133992.16   -41291.722    2647.5366   -43939.259    16.359804    0.9320955 
   17000    211.65238   -590.24381    134089.46   -41311.909     2633.358   -43945.267    16.460428   0.93141912 
   17100    213.22441   -681.28484    134066.09    -41239.08     2652.917   -43891.997    16.562051   0.93158151 
   17200    214.09591   -657.81375    133987.86   -41270.263    2663.7602   -43934.023    16.564733    0.9321254 
   17300     210.5615   -576.49056    133981.88   -41333.801    2619.7854   -43953.586    16.660604   0.93216703 
   17400    211.06493   -737.40693    133947.72   -41370.092    2626.0489   -43996.141    16.534535   0.93240479 
   17500    214.06821   -749.69893    133976.28   -41368.509    2663.4155   -44031.924    16.588873   0.93220598 
   17600    215.22117   -654.27801     133949.8   -41353.798    2677.7606   -44031.558    16.711789   0.93239029 
   17700    209.10796   -576.06204    133992.07   -41376.356    2601.7006   -43978.057    16.751154   0.93209611 
   17800    210.11686   -706.55829    133985.14   -41384.223    2614.2532   -43998.476    16.856086   0.93214435 
   17900    213.55208   -658.42705    134166.68   -41356.753    2656.9939   -44013.747    16.860584   0.93088308 
   18000    215.86948   -677.11148    134285.31   -41307.217    2685.8267   -43993.044    16.907812   0.93006071 
   18100    209.51444   -599.31376    134213.68   -41402.642    2606.7579     -44009.4    16.959864   0.93055707 
   18200    209.69598   -698.41154    134039.92   -41412.587    2609.0167   -44021.604    17.052292   0.93176339 
   18300    213.31598   -766.83943    134020.79   -41329.911    2654.0563   -43983.967    17.142516   0.93189637 
   18400    210.80676   -757.58215    134032.62   -41384.991    2622.8368   -44007.828    17.099572   0.93181414 
   18500    211.75455    -584.8227    134093.51   -41356.836    2634.6292   -43991.465    17.119582   0.93139101 
   18600    208.69444   -636.29973    134150.48   -41402.937    2596.5556   -43999.493    17.261608   0.93099546 
   18700    208.31277   -787.85244    134167.36   -41375.044    2591.8069   -43966.851    17.336814   0.93087835 
   18800    212.34909   -596.85196    134200.57   -41355.267    2642.0264   -43997.294    17.338579   0.93064799 
   18900    215.27561   -614.14969    134270.78   -41388.401    2678.4379   -44066.839    17.389002   0.93016138 
   19000    211.93257   -762.01546     134137.7   -41376.879    2636.8441   -44013.724    17.304445   0.93108416 
   19100     210.0222   -649.34508     134133.5    -41432.14    2613.0755   -44045.215    17.444459   0.93111333 
   19200    214.73446   -599.45654    134249.11   -41412.155     2671.705    -44083.86    17.422075    0.9303115 
   19300    213.73245   -696.57292    134275.16   -41366.278     2659.238   -44025.516     17.41414   0.93013102 
   19400    209.52901   -636.71284     134272.6   -41379.001    2606.9392   -43985.941    17.433973   0.93014874 
   19500    212.02763   -646.36731    134278.59   -41368.039    2638.0268   -44006.065     17.49354   0.93010725 
   19600    214.18615   -574.70573    134525.11   -41403.755    2664.8829   -44068.638      17.5677   0.92840279 
   19700     212.3397   -679.79543     134446.5   -41382.497    2641.9096   -44024.407    17.699122   0.92894566 
   19800    209.39413   -719.94539    134308.46   -41422.768     2605.261   -44028.029    17.724203   0.92990039 
   19900    207.93563   -607.42893    134180.67   -41430.557    2587.1145   -44017.671    17.797802   0.93078603 
   20000     207.1698   -566.40911     134253.6   -41480.634    2577.5862    -44058.22    17.841765   0.93028037 
   20100    215.10877   -808.61069    134336.23    -41443.28     2676.362   -44119.642    17.756176    0.9297082 
   20200    208.87678   -431.96941    134382.78   -41492.976    2598.8243   -44091.801    17.824206   0.92938613 
   20300    206.43299     -634.432     134575.3   -41522.489    2568.4188   -44090.907    17.854834   0.92805658 
   20400    209.56898   -680.78752    134531.22   -41527.166    2607.4365   -44134.603    17.819279   0.92836067 
   20500    212.95713   -607.94835    134546.45   -41507.628    2649.5915   -44157.219    17.952418   0.92825557 
   20600    211.26392   -669.79676    134495.52   -41543.866    2628.5248   -44172.391    17.896123   0.92860704 
   20700    212.70786    -691.6554    134560.01   -41479.974    2646.4902   -44126.464    17.790372   0.92816203 
   20800    207.91887   -677.74573     134593.3   -41484.314     2586.906    -44071.22    17.982246   0.92793247 
   20900     207.4553   -594.91282    134561.39   -41524.859    2581.1384   -44105.998    17.925113   0.92815252 
   21000    211.38476   -664.01719    134705.81   -41604.878    2630.0283   -44234.906     17.93538   0.92715743 
   21100    207.99745   -686.68989    134633.95   -41623.079    2587.8837   -44210.962    17.965092   0.92765228 
   21200    204.01706   -722.61491    134640.91   -41598.144    2538.3601   -44136.504    18.006605    0.9276043 
   21300    209.01255   -545.33542    134639.77   -41613.055    2600.5135   -44213.568    17.975519    0.9276122 
   21400    209.04318   -702.22528     134643.3   -41592.971    2600.8946   -44193.866     18.04822   0.92758786 
   21500    211.57124   -534.87311     134696.7   -41592.492    2632.3484   -44224.841    17.991488   0.92722011 
   21600     211.8392   -811.74345    134814.82   -41539.441    2635.6824   -44175.123    17.959848   0.92640774 
   21700    211.87672   -669.56202    134892.87   -41525.946    2636.1491   -44162.095    18.085539   0.92587172 
   21800    212.81913   -575.48729    134979.64   -41512.161    2647.8746   -44160.035    18.153175   0.92527652 
   21900    211.64983   -592.11999    135148.43   -41539.351    2633.3263   -44172.677    18.205256   0.92412092 
   22000    209.57105    -716.9926    135084.92    -41584.03    2607.4623   -44191.492    18.325029   0.92455537 
   22100    211.09784   -590.58819    134982.68    -41542.13    2626.4585   -44168.588    18.264277   0.92525568 
   22200    208.57737   -726.32858    134850.05   -41580.565     2595.099   -44175.664    18.249695   0.92616568 
   22300    214.01206   -629.16399    134843.06   -41564.574    2662.7169   -44227.291    18.286354   0.92621368 
   22400    211.18865   -588.28797    134676.92   -41544.028    2627.5883   -44171.616    18.287556   0.92735632 
   22500    212.66452   -596.13868     134796.5   -41547.828    2645.9509   -44193.779    18.300632   0.92653365 
   22600    211.78914   -710.18661    134703.27   -41525.376    2635.0596   -44160.435    18.412771   0.92717488 
   22700    212.82625   -689.54854    134641.12   -41536.627    2647.9632    -44184.59    18.434074    0.9276029 
   22800    214.66134   -787.02003    134632.79   -41511.162    2670.7952   -44181.957    18.427646   0.92766031 
   22900    213.36702   -673.05643    134459.62   -41562.174    2654.6914   -44216.865    18.371753   0.92885503 
   23000    208.35983   -633.35614    134302.57    -41538.61    2592.3924   -44131.002    18.295839   0.92994118 
   23100     205.4924   -698.17545    134237.47   -41632.049    2556.7161   -44188.765    18.408367   0.93039217 
   23200    212.75213   -663.10691    134174.23   -41573.558    2647.0409   -44220.599      18.3517   0.93083072 
   23300    208.53841    -610.4588    134387.32   -41606.925    2594.6143    -44201.54    18.384742   0.92935471 
   23400    213.32061   -607.82234    134342.22   -41546.381     2654.114   -44200.495    18.484686   0.92966675 
   23500     206.5922   -637.51834    134435.64    -41586.62    2570.3997   -44157.019    18.560632   0.92902066 
   23600    205.74695   -620.78395    134418.63    -41571.11    2559.8833   -44130.993    18.659663   0.92913822 
   23700    207.97449   -705.43314    134366.18   -41605.018     2587.598   -44192.616    18.631054   0.92950097 
   23800    204.91963   -564.80558    134266.42   -41641.852    2549.5898   -44191.442    18.547515   0.93019159 
   23900    207.77071   -549.11553    134384.45   -41662.599    2585.0626   -44247.662    18.410698   0.92937455 
   24000    210.59623   -652.74853     134456.9   -41598.228    2620.2174   -44218.445    18.615176   0.92887379 
   24100    212.65556   -721.18213    134390.34   -41605.213    2645.8394   -44251.053    18.656152   0.92933381 
   24200    209.21609   -579.28633    134484.46   -41661.237    2603.0459   -44264.283    18.715797   0.92868346 
   24300    208.09909   -679.39223    134452.45   -41642.912    2589.1484    -44232.06    18.585033   0.92890456 
   24400    205.85527   -631.51966    134392.23   -41671.102     2561.231   -44232.333    18.705362   0.92932078 
   24500    208.30224   -640.86177     134311.1   -41618.494    2591.6759    -44210.17     18.76511    0.9298821 
   24600    211.26632   -641.13621    134402.92   -41608.516    2628.5547   -44237.071    18.833524   0.92924687 
   24700    207.01638   -664.07057    134566.14   -41623.275    2575.6773   -44198.952    18.867956   0.92811976 
   24800    206.98343   -653.02862    134578.31   -41622.234    2575.2673   -44197.502    18.855883   0.92803578 
   24900    210.84636   -623.84312    134516.73   -41575.919    2623.3296   -44199.249    18.857232   0.92846065 
   25000    211.95412   -653.17641    134509.45   -41566.832    2637.1123   -44203.944     18.80486    0.9285109 
   25100    211.78053    -656.4869    134473.92   -41577.418    2634.9525   -44212.371    18.710607   0.92875624 
   25200    209.82909   -732.56358    134507.01   -41607.974    2610.6728   -44218.647    18.864686   0.92852776 
   25300    208.06049   -643.60314    134449.51   -41607.979     2588.668   -44196.647    18.914288   0.92892482 
   25400    207.66448   -648.71382     134570.7   -41589.065    2583.7409   -44172.806     19.03064   0.92808826 
   25500    213.75692   -692.76075    134576.41   -41545.351    2659.5424   -44204.893    19.172498   0.92804894 
   25600    205.97457   -631.76649    134464.43    -41622.23    2562.7152   -44184.945    19.095009    0.9288218 
   25700    210.31902   -668.36034    134503.76   -41644.788    2616.7684   -44261.557     19.04819   0.92855021 
   25800    210.24603   -583.24626    134442.61   -41621.642    2615.8603   -44237.503    19.159268   0.92897253 
   25900    211.39257   -574.96657    134550.92   -41572.994    2630.1254   -44203.119    19.227176   0.92822475 
   26000    210.39944   -580.19768    134414.48   -41513.514     2617.769   -44131.283    19.227647   0.92916691 
   26100    212.12847   -704.31112    134392.75   -41601.225    2639.2814   -44240.507    19.192245   0.92931717 
   26200    212.04151   -518.27541    134365.68   -41588.685    2638.1996   -44226.884     19.28266   0.92950441 
   26300    214.73808   -615.21243    134443.99   -41560.019    2671.7499   -44231.769    19.202198   0.92896302 
   26400    213.72838   -538.68106    134349.37    -41543.94    2659.1874   -44203.127    19.107382   0.92961728 
   26500    207.73591   -645.47471    134336.98    -41601.26    2584.6296    -44185.89    19.159883   0.92970296 
   26600    208.69517   -666.24079    134267.22   -41647.277    2596.5647   -44243.842    19.176587   0.93018601 
   26700    208.69562   -654.39096    134403.09   -41671.868    2596.5702   -44268.438      19.2729   0.92924569 
   26800    214.83119   -524.73403    134383.71   -41597.613    2672.9085   -44270.521    19.319633   0.92937968 
   26900     209.7079   -670.71752    134452.78   -41596.642    2609.1649   -44205.807    19.359157   0.92890228 
   27000    205.35443   -673.23276    134425.21   -41637.472    2554.9996   -44192.472    19.399985   0.92909278 
   27100      208.808   -486.56887    134490.99   -41633.374    2597.9685   -44231.343    19.353091   0.92863837 
   27200    208.85245   -734.06161    134651.61   -41659.245    2598.5216   -44257.767    19.478121   0.92753062 
   27300    208.24041   -611.82124     134625.6   -41687.035    2590.9066   -44277.941    19.502947   0.92770982 
   27400    210.42951   -497.95194    134599.72   -41634.001    2618.1431   -44252.144     19.46987   0.92788818 
   27500    210.44749   -660.78954    134658.97   -41565.964    2618.3669   -44184.331    19.553084   0.92747993 
   27600    207.17528   -671.87339    134572.15   -41587.637    2577.6544   -44165.291    19.582411   0.92807828 
   27700    208.32093   -720.42246       134588   -41591.183    2591.9084   -44183.092    19.507414   0.92796897 
   27800    209.34727   -619.15061    134573.36   -41528.508    2604.6781   -44133.186    19.583652   0.92806994 
   27900    213.28504    -723.9611    134705.23   -41552.602    2653.6714   -44206.273    19.614841   0.92716138 
   28000    210.71835    -519.1613    134765.29   -41590.423    2621.7369    -44212.16    19.648567   0.92674822 
   28100    211.28295   -542.64955    134632.02   -41588.812    2628.7616   -44217.574    19.532563   0.92766559 
   28200    209.99322   -595.10684    134654.66   -41635.485    2612.7148     -44248.2     19.57117   0.92750958 
   28300    206.77363   -712.18009     134691.5   -41628.781    2572.6571   -44201.438    19.635255    0.9272559 
   28400    206.63976   -632.16802    134590.33   -41664.328    2570.9915   -44235.319    19.669909   0.92795291 
   28500    209.10522   -632.58665    134660.44   -41683.561    2601.6664   -44285.227    19.610111   0.92746979 
   28600    209.52931   -718.12856    134691.92   -41648.563     2606.943   -44255.506     19.59095   0.92725301 
   28700    208.50894   -643.99824    134650.95   -41644.756    2594.2476   -44239.004    19.537914   0.92753514 
   28800    207.98711   -648.03474    134791.58   -41608.578    2587.7551   -44196.333    19.654754   0.92656745 
   28900    209.93951   -582.59847    134712.63   -41572.129    2612.0467   -44184.176    19.717395   0.92711046 
   29000    206.51233   -663.29379    134563.14   -41654.631     2569.406   -44224.037     19.62484   0.92814045 
   29100    209.64125   -633.39073    134641.51   -41601.212    2608.3357   -44209.548    19.897114   0.92760018 
   29200    212.80028   -570.83565    134574.76   -41566.446    2647.6401   -44214.086    19.873754   0.92806026 
   29300    210.99965   -619.05715    134571.27   -41623.431    2625.2367   -44248.668    19.797563   0.92808436 
   29400    206.41286    -473.6373    134603.32   -41665.337    2568.1684   -44233.505    19.792685   0.92786339 
   29500    210.80171   -615.85229    134686.47   -41686.366     2622.774    -44309.14    19.884449   0.92729056 
   29600    210.43907   -559.76503    134636.02   -41615.024    2618.2621   -44233.286    19.912308   0.92763799 
   29700     210.7148   -703.57458    134566.64   -41663.191    2621.6927   -44284.884    19.840132    0.9281163 
   29800    209.47883    -619.5197    134687.26    -41637.84    2606.3149   -44244.155    19.989329   0.92728515 
   29900    209.61731   -657.64757    134628.09   -41670.588    2608.0378   -44278.626    19.935962   0.92769264 
   30000    210.45375   -575.78438    134648.71   -41636.301    2618.4448   -44254.746    20.100539   0.92755058 
   30100    210.56573   -753.17438    134702.06   -41637.542     2619.838    -44257.38     20.03087   0.92718326 
   30200     207.7317   -597.85113    134596.31   -41649.133    2584.5773    -44233.71    20.029378    0.9279117 
   30300    214.41456   -549.80685    134688.77   -41615.818    2667.7247   -44283.543    20.029106    0.9272747 
   30400    210.68103   -596.44902    134646.26   -41603.902    2621.2725   -44225.174    20.053444   0.92756746 
   30500    207.01374   -796.65596    134611.15   -41618.088    2575.6445   -44193.733    19.934834   0.92780944 
   30600     213.5399   -818.38406    134613.37   -41617.228    2656.8424    -44274.07    20.068573    0.9277941 
   30700    206.89523   -696.24139    134545.17    -41628.25      2574.17    -44202.42    20.219041   0.92826442 
   30800     214.9612   -741.58515    134446.92   -41581.641     2674.526   -44256.167    20.214264   0.92894275 
   30900    210.32739   -687.16953    134420.51   -41703.364    2616.8726   -44320.236    20.377481   0.92912528 
   31000    205.87864   -515.33154    134377.33   -41726.279    2561.5217   -44287.801    20.135679   0.92942384 
   31100    210.22801   -665.21516    134561.25   -41720.659    2615.6361   -44336.295    20.226049    0.9281535 
   31200    208.23645   -638.19769    134576.17   -41731.832    2590.8573    -44322.69    20.138914   0.92805058 
   31300    205.72828   -703.28068    134699.74   -41687.319    2559.6509    -44246.97    20.165193   0.92719919 
   31400    209.36259   -683.24855    134591.08   -41652.465    2604.8687   -44257.333    20.299215   0.92794773 
   31500    207.69307   -624.56438    134579.63    -41708.14    2584.0967   -44292.237     20.41722    0.9280267 
   31600    209.46852   -544.23942    134669.57   -41639.634    2606.1867   -44245.821    20.374059   0.92740693 
   31700     208.2937   -725.73899    134556.98   -41682.381    2591.5696   -44273.951    20.308358   0.92818294 
   31800    212.29222   -745.18639    134548.31   -41624.041    2641.3188    -44265.36    20.307428   0.92824273 
   31900     212.6124   -664.46818    134450.98   -41627.945    2645.3024   -44273.248    20.174933   0.92891467 
   32000    213.15488    -628.5531    134514.34    -41622.72     2652.052   -44274.772    20.253684   0.92847716 
   32100    212.12254   -606.13333     134549.3   -41639.951    2639.2077   -44279.159    20.383088   0.92823592 
   32200    211.74709   -710.57103    134622.57    -41639.68    2634.5364   -44274.217    20.527544   0.92773071 
   32300    210.32483   -596.63058    134700.92   -41620.528    2616.8408   -44237.369    20.555099   0.92719105 
   32400    210.82449   -604.77902    134765.93   -41679.318    2623.0575   -44302.376      20.3998   0.92674381 
   32500    207.89124   -784.50653     134642.8   -41690.962    2586.5623   -44277.524    20.370505   0.92759132 
   32600    213.51343    -712.2206    134792.56   -41636.784     2656.513   -44293.297    20.483085   0.92656071 
   32700    206.70551   -643.03533    134784.12   -41707.233    2571.8096   -44279.043    20.567445   0.92661875 
   32800    205.40922    -631.3892    134756.35   -41742.285    2555.6812   -44297.966    20.487564   0.92680968 
   32900     204.6225    -571.5643     134675.5   -41739.293    2545.8929   -44285.186    20.500015   0.92736611 
   33000    208.71769   -670.36978    134680.47   -41780.839    2596.8449   -44377.684      20.4664   0.92733188 
   33100    212.09494   -586.16094    134632.59   -41707.297    2638.8643   -44346.161    20.582483   0.92766167 
   33200    209.54193   -552.55706    134705.72   -41738.936    2607.0999   -44346.036    20.620476   0.92715801 
   33300    206.14271   -724.36487    134775.63   -41667.811    2564.8072   -44232.618    20.683362   0.92667712 
   33400    209.41847   -763.66042    134634.51   -41750.784    2605.5639   -44356.348    20.602032   0.92764845 
   33500    209.63102   -535.28721    134767.31   -41714.512    2608.2084    -44322.72    20.601912   0.92673433 
   33600    207.73545   -729.03682    134885.61   -41692.151    2584.6239   -44276.775    20.667848   0.92592155 
   33700    212.40647   -632.61907    134862.28   -41691.644    2642.7403   -44334.384    20.622794   0.92608174 
   33800    209.44872   -676.66883    134794.72   -41689.354    2605.9403   -44295.294    20.725167   0.92654586 
   33900     209.9989   -701.59292    134748.82   -41694.147    2612.7855   -44306.933    20.756063   0.92686148 
   34000    210.42411   -452.00389    134648.54   -41670.583     2618.076   -44288.659    20.694738   0.92755176 
   34100    209.74088   -642.57119    134708.34   -41693.047    2609.5753   -44302.623    20.775944   0.92714002 
   34200    206.36152   -683.47361    134827.25   -41695.633    2567.5296   -44263.162    20.640182   0.92632235 
   34300      206.986   -647.07991    134824.16   -41755.207    2575.2993   -44330.506    20.644477   0.92634353 
   34400    209.57722    -709.8626    134687.08   -41694.835    2607.5391   -44302.374    20.588177   0.92728634 
   34500    210.59238   -569.26754    134621.83   -41717.768    2620.1695   -44337.937     20.65434   0.92773582 
   34600    209.46043   -705.56414    134706.96   -41692.145    2606.0859   -44298.231    20.847688   0.92714953 
   34700    203.86119   -763.94101    134843.56    -41763.16    2536.4208   -44299.581    20.804868   0.92621027 
   34800    209.44045   -851.64247    134752.57    -41751.25    2605.8374   -44357.087    20.759596    0.9268357 
   34900    206.95579   -685.88526    134683.55   -41751.553    2574.9235   -44326.477    20.630363   0.92731068 
   35000    209.55186   -651.62135    134694.22   -41823.423    2607.2235   -44430.646    20.702731   0.92723719 
   35100    204.94147   -645.61528    134738.66   -41762.242    2549.8615   -44312.103    20.683191   0.92693138 
   35200    208.54262     -487.137     134699.2   -41754.609    2594.6666   -44349.275    20.712038   0.92720291 
   35300    210.38045   -692.78828    134825.68   -41733.692    2617.5328   -44351.225     20.84414    0.9263331 
   35400    206.16119   -589.88862    134955.43   -41747.172    2565.0372    -44312.21    20.910155   0.92544254 
   35500    209.29932   -630.29571     134910.1   -41641.201    2604.0814   -44245.283     20.86146   0.92575345 
   35600    206.12684   -627.12489    134808.12   -41673.316    2564.6097   -44237.926    20.865589    0.9264538 
   35700    210.10325   -713.02566    134787.71   -41631.371    2614.0839   -44245.455    20.764984   0.92659409 
   35800    210.41766   -542.38699    134990.07   -41677.214    2617.9957    -44295.21    20.690962   0.92520504 
   35900    211.79734   -725.13366    135009.62   -41630.316    2635.1616   -44265.477    20.811362   0.92507108 
   36000    212.31378   -662.20469    135208.78   -41603.965    2641.5871   -44245.552    20.915463   0.92370846 
   36100     214.1491   -638.13599    135017.93   -41631.933    2664.4219   -44296.355    20.916286    0.9250141 
   36200    214.73614   -633.33453    135106.91    -41670.75    2671.7258   -44342.476    20.879853   0.92440489 
   36300     205.5154   -735.80209    135209.95   -41725.101    2557.0024   -44282.103    20.805997   0.92370045 
   36400    212.80204   -709.02848    135198.83   -41683.828    2647.6619    -44331.49    20.833976   0.92377642 
   36500    212.05531   -703.75907    135220.13   -41673.514    2638.3712   -44311.885    20.944329   0.92363089 
   36600    207.00925   -732.96434    135125.64   -41801.992    2575.5886    -44377.58    21.009595   0.92427675 
   36700    204.27877   -731.28724    135179.75   -41751.625    2541.6163   -44293.241    20.973952   0.92390681 
   36800    207.67641   -753.32894    135240.27   -41748.908    2583.8893   -44332.797    21.080045   0.92349336 
   36900    208.15243   -647.47104    135197.65   -41771.219     2589.812   -44361.031    21.102342   0.92378447 
   37000    208.88704   -618.17832    135288.83   -41704.013    2598.9519   -44302.965    21.176463   0.92316189 
   37100    212.78257   -668.08554    135280.77   -41694.542    2647.4197   -44341.962    21.170132   0.92321689 
   37200    209.89299   -696.99566    135160.92   -41747.745    2611.4679   -44359.213    21.187424    0.9240355 
   37300    209.79055   -575.37047    135149.39   -41766.355    2610.1932   -44376.548    21.079498   0.92411438 
   37400    212.60465   -551.71699    135169.54   -41799.302     2645.206   -44444.508    21.193673   0.92397656 
   37500    206.86604   -668.13127    135225.09   -41802.852    2573.8069   -44376.659      21.1591   0.92359702 
   37600    210.82129   -672.68843    135201.77    -41749.69    2623.0176   -44372.708    21.227934   0.92375637 
   37700    209.80719   -598.47338    135240.59   -41761.536    2610.4003   -44371.937    21.139236   0.92349119 
   37800    204.78922   -638.49491    135179.37   -41855.845    2547.9672   -44403.813    21.234881    0.9239094 
   37900    205.98077   -595.87229     135180.5   -41808.258    2562.7924    -44371.05      21.2541   0.92390169 
   38000     210.1198   -578.55339    135133.21   -41784.612    2614.2898   -44398.902    21.212428     0.924225 
   38100    208.98995   -562.84859    135245.77   -41739.685    2600.2323   -44339.917    21.344883    0.9234558 
   38200    207.15399   -690.01718    135263.31   -41754.854    2577.3894   -44332.244    21.393894   0.92333607 
   38300    214.19687   -673.38574    135301.31    -41699.34    2665.0163   -44364.356    21.330825   0.92307674 
   38400    206.59588   -674.91337    135278.68   -41762.354    2570.4455     -44332.8     21.33527   0.92323118 
   38500    208.27624   -674.86865    135250.16   -41772.287    2591.3523    -44363.64    21.379437   0.92342584 
   38600    211.64509   -724.28732    135184.44    -41731.86    2633.2673   -44365.128    21.365696   0.92387479 
   38700    209.70756    -597.3736    135157.68   -41735.555    2609.1608   -44344.716    21.408277   0.92405766 
   38800    207.98407   -631.07881    135250.98   -41760.854    2587.7172   -44348.572    21.514446   0.92342025 
   38900    211.64782   -581.79446    135351.44   -41713.272    2633.3013   -44346.573    21.416087   0.92273484 
   39000    212.92152   -645.45171     135282.2   -41767.621    2649.1485   -44416.769    21.407107   0.92320713 
   39100     212.7163    -604.4347    135326.55   -41743.806    2646.5952   -44390.402     21.41925   0.92290458 
   39200    207.05282   -708.26303    135452.97   -41774.963    2576.1307   -44351.094    21.389194   0.92204319 
   39300    210.39902   -641.82878    135300.63   -41763.987    2617.7638   -44381.751      21.3191   0.92308138 
   39400    212.35945   -731.67197    135480.86   -41739.752    2642.1553   -44381.907    21.356433   0.92185338 
   39500    213.53506   -606.98276    135441.81   -41728.611    2656.7821   -44385.393    21.531065   0.92211919 
   39600    210.33481    -588.4298    135454.49    -41774.24     2616.965   -44391.205    21.697422   0.92203288 
   39700    212.19892   -683.19184     135555.4   -41712.002     2640.158    -44352.16    21.541079   0.92134651 
   39800    209.88893   -583.37823     135490.1   -41764.922    2611.4174   -44376.339    21.496173   0.92179051 
   39900    210.64109   -668.37725    135451.74   -41808.939    2620.7757   -44429.714    21.484871   0.92205161 
   40000    208.97826   -623.36191    135540.36   -41836.022    2600.0869   -44436.109    21.688704   0.92144873 
   40100    207.54241   -677.26863    135563.19   -41748.532    2582.2221   -44330.754    21.580393   0.92129355 
   40200    210.72165   -785.01116     135512.5   -41775.217    2621.7779   -44396.994    21.586493   0.92163817 
   40300    211.17722   -472.27534    135439.72    -41753.67    2627.4461   -44381.116    21.679961    0.9221334 
   40400     213.6403    -666.6245    135737.89   -41665.238    2658.0914    -44323.33    21.732314    0.9201078 
   40500     211.5325   -705.83674     135592.3   -41688.722    2631.8665   -44320.589    21.652679   0.92109573 
   40600    210.59365   -705.23201    135531.98   -41736.405    2620.1854   -44356.591    21.693179   0.92150571 
   40700    209.71303   -712.16173    135615.57   -41777.287    2609.2288   -44386.516    21.734268   0.92093772 
   40800    211.34396   -662.17597     135555.6   -41821.656    2629.5206   -44451.177     21.75265   0.92134515 
   40900    207.38703   -608.75837    135518.66   -41837.699     2580.289   -44417.988     21.67419   0.92159625 
   41000    209.53925   -596.16461    135502.56   -41755.483    2607.0667    -44362.55    21.745049   0.92170579 
   41100    210.17484   -728.01298    135404.97   -41743.987    2614.9746   -44358.961    21.703036   0.92237006 
   41200    211.94539   -569.08164    135431.19   -41759.029    2637.0036   -44396.033    21.731782   0.92219146 
   41300    206.84501   -678.24814    135418.78   -41901.721    2573.5452   -44475.266    21.813262   0.92227598 
   41400    206.83756   -617.60672    135447.68   -41841.769    2573.4525   -44415.221    21.759812   0.92207925 
   41500    207.13531   -680.25862    135594.39   -41851.724     2577.157   -44428.881    21.780608   0.92108152 
   41600    210.75113   -761.21795    135592.74   -41818.468    2622.1447   -44440.613    21.852598   0.92109277 
   41700    211.25885   -642.60607    135594.56   -41801.356    2628.4617   -44429.817    21.778767   0.92108036 
   41800    210.22063   -682.55332    135573.48   -41818.904    2615.5443   -44434.448    21.778112   0.92122362 
   41900    212.33982   -646.39639    135509.44   -41799.252    2641.9111   -44441.163    21.849841     0.921659 
   42000    208.65977   -717.74687    135512.66   -41787.668    2596.1242   -44383.792    21.923046   0.92163706 
   42100    210.08383   -713.63754    135567.56   -41786.839    2613.8422   -44400.682    21.789962   0.92126387 
   42200    211.35557   -677.64827    135334.92    -41749.32    2629.6651   -44378.985    21.875408   0.92284748 
   42300    213.55505   -639.65088    135192.63   -41724.905    2657.0308   -44381.936      21.7724   0.92381881 
   42400    211.24082   -620.72816    135263.37   -41761.165    2628.2375   -44389.403     21.68879   0.92333566 
   42500    212.37462   -701.51702    135392.77   -41755.232    2642.3441   -44397.576    21.773042    0.9224532 
   42600    211.25922   -606.46234    135379.94    -41762.18    2628.4664   -44390.646    21.610953   0.92254059 
   42700    210.74048   -597.04741    135410.42   -41770.536    2622.0123   -44392.548    21.649185   0.92233292 
   42800    212.78052   -666.68928    135427.47   -41720.354    2647.3942   -44367.748    21.871221   0.92221679 
   42900    208.54537   -695.73569    135316.56   -41788.378    2594.7009   -44383.079    21.863872    0.9229727 
   43000    207.49742   -653.28795    135199.24   -41815.917    2581.6623    -44397.58    21.906353   0.92377362 
   43100    210.40838   -567.05142    135172.74   -41796.798    2617.8803   -44414.678    21.858189   0.92395469 
   43200    212.86669   -651.84029    135214.09   -41760.185    2648.4663   -44408.652    21.793067   0.92367217 
   43300    206.41074   -653.58309     135108.7   -41762.478     2568.142    -44330.62    21.809539   0.92439269 
   43400    212.09098   -565.40048    135244.56   -41721.096     2638.815   -44359.911    21.816246   0.92346405 
   43500    211.20692    -599.7122    135438.91   -41711.107    2627.8156   -44338.922    21.901206   0.92213893 
   43600    213.41484   -576.59814    135326.75   -41635.594    2655.2864   -44290.881     22.00723   0.92290321 
   43700    214.03905    -615.9258     135303.3   -41681.233    2663.0527   -44344.286    21.907407   0.92306313 
   43800    212.60273    -714.7619    135204.23   -41692.211    2645.1822   -44337.393    22.076317   0.92373954 
   43900    214.38844   -629.53472    135310.68   -41732.566    2667.3998   -44399.966    21.968704   0.92301283 
   44000    207.59116   -508.19872    135341.62   -41764.987    2582.8287   -44347.815    21.903678   0.92280181 
   44100    215.20448    -559.2577    135329.91   -41785.038    2677.5529    -44462.59    21.861121   0.92288168 
   44200    207.09427    -706.2425    135318.13   -41820.581    2576.6464   -44397.228    21.894188   0.92296202 
   44300    209.94665   -709.74327    135537.93   -41829.526    2612.1355   -44441.661    22.084831   0.92146525 
   44400    208.52817    -613.6864    135386.84   -41804.059    2594.4869   -44398.546     22.10035    0.9224936 
   44500    209.17134   -783.58049     135329.5   -41836.691    2602.4892   -44439.181    22.062813   0.92288446 
   44600    205.97841   -676.07662       135371   -41899.895     2562.763   -44462.658    22.108027   0.92260155 
   44700    207.56947    -722.0522    135364.75    -41881.97    2582.5589   -44464.529    22.098986   0.92264413 
   44800    207.23194   -629.60615    135339.55   -41853.883    2578.3593   -44432.243    21.980437   0.92281594 
   44900    211.34607   -603.25901    135431.98   -41809.669    2629.5469   -44439.216    22.036952   0.92218609 
   45000    210.40491   -675.33717    135435.63   -41804.736    2617.8371   -44422.574    22.116644   0.92216124 
   45100    212.58438   -703.84889     135401.1   -41750.729    2644.9538   -44395.683    22.158269   0.92239646 
   45200    207.74804   -562.88819    135308.44   -41814.837    2584.7806   -44399.618    22.233146   0.92302807 
   45300    209.01307   -615.88682    135328.48   -41827.113    2600.5199   -44427.633    22.352323   0.92289141 
   45400    210.85938   -683.41822    135300.99   -41793.888    2623.4916    -44417.38    22.283521   0.92307894 
   45500    212.45007   -471.82508     135395.2   -41799.707    2643.2828    -44442.99    22.186364    0.9224366 
   45600    212.79158   -592.26387    135313.36    -41790.39    2647.5318   -44437.922    22.061888   0.92299455 
   45700    212.60001   -550.64878    135354.92   -41800.418    2645.1483   -44445.567    22.071196   0.92271114 
   45800    218.10404   -638.19948    135356.62   -41755.243    2713.6288   -44468.872    22.109158   0.92269955 
   45900    215.45087   -750.79215    135467.13   -41703.372    2680.6184   -44383.991    22.265658   0.92194681 
   46000    211.48448    -497.5446    135454.66   -41688.505    2631.2689   -44319.773    22.508063   0.92203169 
   46100     219.0868   -680.62551    135434.61   -41653.597    2725.8563   -44379.453    22.241696   0.92216821 
   46200    216.49734   -622.80634     135391.1   -41657.617    2693.6385   -44351.256    22.280217   0.92246454 
   46300     214.5987   -682.40919    135377.86   -41686.769    2670.0158   -44356.785    22.260662   0.92255474 
   46400    213.46053   -528.15972    135492.74   -41720.329    2655.8548   -44376.184     22.20522   0.92177257 
   46500     210.5991   -726.39099    135391.62   -41738.328    2620.2532   -44358.581    22.352599   0.92246099 
   46600    214.99961   -654.49478    135526.59   -41725.547    2675.0038    -44400.55    22.560497   0.92154237 
   46700    206.85561   -550.34373    135465.85   -41799.398    2573.6771   -44373.075    22.475141   0.92195556 
   46800    212.20128   -682.96565    135596.31   -41849.305    2640.1874   -44489.492    22.279819   0.92106853 
   46900    212.93752   -602.26582    135560.13   -41784.381    2649.3476   -44433.728    22.187036   0.92131433 
   47000    210.84389   -698.78011     135511.8   -41778.026    2623.2989   -44401.324    22.258037   0.92164292 
   47100    210.32646   -578.12007    135469.54   -41759.953    2616.8611   -44376.814    22.246967   0.92193042 
   47200    211.03681   -701.60854    135505.07   -41827.262    2625.6991   -44452.961    22.353897   0.92168868 
   47300     208.9416   -681.29831    135460.93    -41852.45    2599.6308   -44452.081    22.474827   0.92198902 
   47400    212.03047   -696.27297    135418.59   -41808.045    2638.0622   -44446.107     22.49086    0.9222773 
   47500    209.44512   -685.52571    135270.06   -41742.483    2605.8955   -44348.379    22.463118   0.92328999 
   47600    214.65211   -639.46436    135289.68   -41701.613    2670.6803   -44372.293    22.279553   0.92315607 
   47700    211.22507   -714.50399     135354.6   -41746.279    2628.0414    -44374.32    22.294451   0.92271333 
   47800    214.80847    -809.0969    135423.71   -41757.206    2672.6257   -44429.831     22.31084   0.92224245 
   47900    207.05869   -628.19223    135282.56   -41844.748    2576.2038   -44420.952    22.468961   0.92320464 
   48000    207.51916   -587.29288    135372.15   -41860.059    2581.9329   -44441.991    22.711903   0.92259366 
   48100    208.86763   -540.40219     135364.2   -41825.988    2598.7105   -44424.698    22.560057   0.92264788 
   48200    207.68638   -713.80455    135262.14   -41853.383    2584.0135   -44437.396    22.322372   0.92334402 
   48300     208.5706   -642.47334    135377.83   -41828.787    2595.0148   -44423.802    22.256406   0.92255501 
   48400    215.46113   -701.71056    135318.13   -41752.622    2680.7461   -44433.368    22.381871   0.92296201 
   48500    211.22559   -729.41105    135322.96    -41810.17    2628.0479   -44438.218    22.405001   0.92292903 
   48600    211.70382   -656.75596    135403.06   -41811.201     2633.998   -44445.199    22.562683   0.92238304 
   48700    215.33298   -589.80399    135527.42   -41782.655    2679.1517   -44461.807    22.724254   0.92153672 
   48800     209.4818   -669.89706    135419.18   -41814.963    2606.3518   -44421.314    22.622337   0.92227328 
   48900    212.32224   -601.07301     135436.2   -41813.261    2641.6923   -44454.953    22.573359   0.92215738 
   49000    211.57619   -512.20658    135635.57   -41850.439    2632.4101    -44482.85    22.664238   0.92080188 
   49100    210.25748   -616.68247    135616.68   -41845.495    2616.0028   -44461.498    22.747082   0.92093014 
   49200    206.78158   -584.16637    135498.22   -41867.628     2572.756   -44440.384    22.743203   0.92173528 
   49300    212.89014   -629.27935    135619.66   -41817.896    2648.7581   -44466.654    22.621696   0.92090994 
   49400    212.91511   -598.80709    135672.32   -41793.665    2649.0687   -44442.734     22.79106   0.92055246 
   49500    213.46315   -746.24494    135585.39   -41814.502    2655.8874   -44470.389    22.786744   0.92114271 
   49600    211.60786   -580.08922    135575.82   -41824.849     2632.804   -44457.653    22.749291    0.9212077 
   49700     209.1821   -607.47623    135720.54   -41839.246     2602.623   -44441.869    22.724449   0.92022543 
   49800    209.46769   -696.18181    135658.94   -41892.566    2606.1763   -44498.742    22.737371   0.92064331 
   49900    211.71146   -632.28462    135662.95   -41786.638     2634.093   -44420.731    22.755398   0.92061608 
   50000    213.07715   -656.07966     135636.2   -41830.553    2651.0848   -44481.638    22.817285   0.92079765 
   50100     207.8802   -573.83386    135666.81   -41840.328    2586.4249   -44426.753    22.940145   0.92058984 
   50200     209.2574    -682.4209    135744.62   -41880.764    2603.5599   -44484.324    22.826749   0.92006216 
   50300    209.17624   -615.19159    135599.63   -41858.675    2602.5501   -44461.225    22.773711   0.92104599 
   50400    208.62334   -562.06399    135370.64   -41883.241     2595.671   -44478.912    22.576129   0.92260397 
   50500    208.25229   -658.26629    135573.13   -41914.082    2591.0544   -44505.137    22.710404   0.92122602 
   50600      206.675   -595.37974    135657.69   -41920.373    2571.4299   -44491.803    22.794753   0.92065177 
   50700    208.14775   -664.76976     135688.1   -41934.724    2589.7537   -44524.478    22.663192   0.92044545 
   50800    207.01065   -603.21221    135659.65   -41928.977    2575.6061   -44504.584    22.890783   0.92063844 
   50900    207.88752    -635.2095    135717.68   -41836.768     2586.516   -44423.283    23.071101   0.92024482 
   51000     209.8591   -707.60581    135681.91   -41862.577    2611.0462   -44473.624    22.973893   0.92048739 
   51100    211.25969    -648.0101    135650.36   -41891.685    2628.4722   -44520.157    22.832794   0.92070149 
   51200    205.99469   -769.61259    135571.54   -41866.218    2562.9656   -44429.184    22.779342   0.92123679 
   51300    206.67933   -658.90549     135353.9   -41934.018    2571.4838   -44505.502    22.821507   0.92271807 
   51400    203.51195   -673.15666    135495.16   -41923.076    2532.0755   -44455.151    22.835338   0.92175608 
   51500    207.18755   -624.34267    135576.81   -41915.243     2577.807    -44493.05    22.811587   0.92120098 
   51600    208.91645   -827.04886    135468.56   -41863.202    2599.3178   -44462.519    22.929626    0.9219371 
   51700    212.93911   -555.88963    135573.24    -41847.38    2649.3673   -44496.747    23.025052   0.92122524 
   51800    209.44502   -679.53699    135453.67   -41880.929    2605.8942   -44486.824    22.853496   0.92203845 
   51900    207.00047   -618.57059    135441.05   -41911.359    2575.4794   -44486.839    22.888032   0.92212435 
   52000    207.63953   -607.63975    135484.78   -41939.861    2583.4304   -44523.292    22.830292   0.92182672 
   52100    208.26043   -651.92172    135536.55   -41885.477    2591.1556   -44476.632    22.932911   0.92147464 
   52200    207.55889   -582.56544    135624.81   -41896.417    2582.4272   -44478.844    23.064144   0.92087493 
   52300    207.74462   -645.61348    135538.44   -41873.886     2584.738   -44458.624    23.102746   0.92146178 
   52400    208.76539   -646.26813    135630.88   -41821.422    2597.4383    -44418.86    23.172606   0.92083375 
   52500    212.44277   -538.85761    135510.63    -41821.13     2643.192   -44464.322     23.04409   0.92165087 
   52600    210.09144   -626.71694    135534.06   -41850.611    2613.9369   -44464.547    23.090046   0.92149158 
   52700    210.02093   -735.45945    135755.83    -41865.84    2613.0597   -44478.899    23.140795   0.91998619 
   52800    209.39488   -647.64335    135708.41   -41817.219    2605.2704    -44422.49    23.055651   0.92030767 
   52900    211.12695   -575.99414    135628.28   -41815.964    2626.8206   -44442.784     23.02553   0.92085139 
   53000    213.11725   -641.02444     135737.3   -41788.638    2651.5838   -44440.221    23.112136   0.92011178 
   53100    211.37214   -735.14561    135463.64   -41830.153    2629.8713   -44460.024    23.194059   0.92197059 
   53200    209.72574   -652.60632    135325.13   -41826.232    2609.3869   -44435.619     23.05909   0.92291424 
   53300    209.60842   -605.95067    135477.09   -41817.362    2607.9272   -44425.289    23.111899   0.92187902 
   53400    207.96661   -647.02653    135386.36   -41885.884       2587.5   -44473.384    23.102846   0.92249682 
   53500    206.88979   -637.59152    135337.17   -41891.248    2574.1023   -44465.351    23.073436   0.92283213 
   53600    207.68632   -577.24339    135410.12   -41892.097    2584.0126    -44476.11    23.098397   0.92233497 
   53700     204.1724    -761.4551    135414.56   -41933.823    2540.2928   -44474.116    23.097848   0.92230475 
   53800    210.00893   -569.99733    135367.92   -41828.035    2612.9103   -44440.946    23.259906   0.92262253 
   53900    206.97412   -547.32594    135518.12   -41871.033    2575.1516   -44446.185    23.334414   0.92159992 
   54000    211.09119   -587.33228    135643.29   -41851.662    2626.3757   -44478.038    23.453556   0.92074947 
   54100    211.01755   -592.67844    135619.75   -41863.058    2625.4595   -44488.518    23.276659   0.92090931 
   54200    210.08105   -606.89065     135655.7    -41853.61    2613.8076   -44467.418    23.070514   0.92066525 
   54300    212.15006   -605.71113    135754.53   -41830.346    2639.5501   -44469.896    23.113359   0.91999501 
   54400    207.89242   -638.79094    135710.79   -41858.917     2586.577   -44445.494    23.280769   0.92029152 
   54500    207.00208   -698.61471    135753.75   -41848.183    2575.4994   -44423.682    23.329094   0.92000032 
   54600    213.45053   -579.66915    135815.88   -41754.888    2655.7304   -44410.619     23.29946   0.91957942 
   54700    208.58396   -821.28961    135482.29   -41782.337    2595.1811   -44377.518    23.269826   0.92184366 
   54800    211.12031   -665.78722    135541.82   -41851.637     2626.738   -44478.375    23.200352   0.92143878 
   54900    208.91942   -581.79633    135619.43   -41896.528    2599.3548   -44495.883    23.268683   0.92091147 
   55000     208.3727   -850.91938    135603.57   -41957.408    2592.5526   -44549.961    23.199243    0.9210192 
   55100    209.41534   -552.62022    135502.51   -41931.077    2605.5249   -44536.602    23.263949   0.92170614 
   55200    208.80282   -664.08819    135580.93    -41937.84     2597.904   -44535.744    23.361611   0.92117302 
   55300    209.72473   -629.80991    135664.57   -41889.255    2609.3744    -44498.63    23.385614   0.92060508 
   55400    212.09688   -613.60014    135655.46   -41874.304    2638.8884   -44513.192    23.343081   0.92066688 
   55500    211.92024   -655.63856    135611.79   -41822.628    2636.6907   -44459.319    23.350218   0.92096337 
   55600    207.66599   -667.23754    135507.67   -41858.151    2583.7597    -44441.91    23.485797   0.92167104 
   55700    213.02365   -547.60783    135630.85   -41850.612    2650.4193   -44501.031    23.484433   0.92083398 
   55800    209.27795   -720.58892    135539.95   -41849.068    2603.8155   -44452.884    23.345404   0.92145153 
   55900    213.29541   -602.95925    135642.43    -41808.48    2653.8004    -44462.28    23.317321   0.92075533 
   56000    212.05765   -547.72772     135450.1   -41796.249    2638.4003   -44434.649    23.347297   0.92206278 
   56100    214.87422    -566.0209    135565.29   -41775.665    2673.4438   -44449.109    23.418453   0.92127926 
   56200    212.56399   -785.03084    135441.19   -41790.641    2644.7002   -44435.341    23.408972   0.92212342 
   56300    213.06759    -553.2742    135411.05   -41824.858    2650.9659   -44475.823    23.346915   0.92232863 
   56400    210.76292   -535.96523    135515.13   -41825.034    2622.2914   -44447.325    23.185007   0.92162029 
   56500    207.06482   -573.75873    135526.24   -41912.354      2576.28   -44488.634    23.349426   0.92154469 
   56600    210.10241   -719.41552    135555.48   -41929.608    2614.0734   -44543.682    23.345615   0.92134591 
   56700    206.52006   -662.22244    135599.89   -41958.581    2569.5021   -44528.083     23.32668   0.92104422 
   56800    213.04035   -608.04283    135607.25   -41890.157     2650.627   -44540.784    23.255839   0.92099421 
   56900    207.71522   -575.31527    135745.43   -41871.216    2584.3722   -44455.588    23.369655   0.92005667 
   57000    211.07578   -641.78837    135745.79   -41815.978     2626.184   -44442.162    23.477463   0.92005423 
   57100    212.65591   -633.54363    135950.69   -41875.212    2645.8438   -44521.056    23.462599   0.91866756 
   57200    212.36656   -653.69574    135905.74   -41927.124    2642.2438   -44569.367    23.362628   0.91897144 
   57300    202.99277   -628.71166    135928.07   -41980.027     2525.616   -44505.643    23.331929   0.91882048 
   57400    204.62965   -767.72686    135794.77   -41980.284    2545.9819   -44526.266    23.401745   0.91972242 
   57500    204.77348   -694.65293    135665.82   -42017.637    2547.7714   -44565.409    23.433796   0.92059661 
   57600    210.15177   -637.97285    135729.61   -41969.781    2614.6876   -44584.469    23.325124   0.92016396 
   57700    206.23095   -658.24216    135765.99   -42005.959    2565.9051   -44571.864    23.395509   0.91991734 
   57800    203.28537   -660.82019    135773.53   -42032.432    2529.2564   -44561.689    23.480402   0.91986625 
   57900    207.17934   -505.06598    135651.64   -42010.181    2577.7049   -44587.886    23.310456    0.9206928 
   58000    207.32743   -573.16859    135668.27   -42011.621    2579.5474   -44591.168    23.384272   0.92057997 
   58100    207.89307   -600.19325    135670.62   -41946.254     2586.585   -44532.839    23.313702   0.92056402 
   58200    211.23171   -659.92889    135758.42   -41901.118    2628.1241   -44529.242    23.482958   0.91996869 
   58300    211.63491   -725.85084    135741.58   -41843.182    2633.1406   -44476.322    23.353624   0.92008282 
   58400    211.89833   -665.57097    135578.84   -41849.652    2636.4181    -44486.07    23.452605    0.9211872 
   58500    207.35216   -751.88339    135457.14   -41867.571     2579.855   -44447.426    23.290861   0.92201481 
   58600    214.09341   -674.84385     135338.8   -41835.321    2663.7291    -44499.05    23.256049   0.92282105 
   58700    216.92493   -654.56691    135465.06   -41835.601    2698.9585   -44534.559    23.339375   0.92196094 
   58800     211.6611    -603.6147     135545.6   -41883.064    2633.4665   -44516.531    23.220408   0.92141309 
   58900    207.99335   -677.98323    135570.42   -41925.151    2587.8326   -44512.983    23.360988   0.92124442 
   59000    209.25413   -676.99844    135552.83   -41904.774    2603.5192   -44508.293    23.460366   0.92136397 
   59100    206.53365   -645.05107    135544.91   -41901.419    2569.6713    -44471.09    23.422868   0.92141781 
   59200    207.01842   -621.63853    135626.71   -41921.712    2575.7027   -44497.415    23.391465   0.92086206 
   59300    208.68112   -568.88132    135633.33   -41920.839    2596.3899   -44517.229    23.399457   0.92081712 
   59400    206.26965   -605.04569    135714.54   -41964.029    2566.3866   -44530.415    23.557969   0.92026611 
   59500    210.59983   -536.18581    135750.11   -41924.241    2620.2623   -44544.503    23.473351   0.92002495 
   59600    207.55535   -725.57896    135820.28   -41925.108    2582.3832   -44507.491    23.507914   0.91954965 
   59700    210.26063   -761.29951    135892.69   -41950.245     2616.042   -44566.287    23.579196   0.91905967 
   59800    207.18253   -690.64124     135849.8    -41954.17    2577.7445   -44531.915    23.536692   0.91934983 
   59900    208.18816   -711.97477    135811.26   -41935.375    2590.2565   -44525.632    23.591074   0.91961073 
   60000    209.26872   -601.45921     135938.1   -41974.829    2603.7007   -44578.529    23.589982   0.91875266 
   60100    211.93674   -722.34576    135909.06   -41935.597     2636.896   -44572.493    23.580615     0.918949 
   60200    210.63363   -641.68441    135820.31   -41917.901    2620.6829   -44538.584    23.471205   0.91954945 
   60300    214.68767   -633.06404    135806.82    -41875.09    2671.1228   -44546.213    23.534227   0.91964079 
   60400    209.49416   -591.43587    135955.07   -41828.135    2606.5057   -44434.641     23.49547   0.91863798 
   60500    210.24398   -773.35238     135912.8   -41862.112    2615.8348   -44477.947    23.600682   0.91892369 
   60600    212.97122   -647.48484    135768.96   -41917.188    2649.7669   -44566.955    23.499913   0.91989727 
   60700    207.51287    -634.7606    135769.87   -41934.037    2581.8546   -44515.891    23.549865   0.91989104 
   60800    212.78159   -601.92909    135806.08    -41897.36    2647.4075   -44544.768    23.539266   0.91964581 
   60900    209.21616   -635.44982     135714.6    -41883.72    2603.0468   -44486.767    23.560851   0.92026571 
   61000    213.28482   -702.94192    135749.68   -41926.358    2653.6686   -44580.027    23.643664   0.92002787 
   61100    207.22693   -646.63453    135770.03   -41955.477     2578.297   -44533.774      23.6411   0.91988999 
   61200    207.17928   -509.63663    135848.64   -41953.019    2577.7042   -44530.723    23.648862   0.91935766 
   61300    209.87842   -720.57383    135849.28   -41941.599    2611.2865   -44552.885    23.646352   0.91935335 
   61400    206.85547   -665.59739    135862.64   -41973.033    2573.6753   -44546.708    23.684297   0.91926296 
   61500    207.81251   -619.07227    135817.98   -41969.997    2585.5827    -44555.58    23.557555   0.91956525 
   61600    210.78735   -622.45806    135824.37   -41931.857    2622.5954   -44554.452    23.683556   0.91952196 
   61700    208.26146   -527.09527    135821.83   -42004.061    2591.1685    -44595.23    23.785402   0.91953918 
   61800     202.8977   -688.29343       135870   -42063.805    2524.4331   -44588.238    23.738756   0.91921314 
   61900    205.47407   -776.23516    135783.88    -41999.92    2556.4881   -44556.408    23.817662   0.91979615 
   62000    211.37206   -582.72954    135853.75   -41953.612    2629.8702   -44583.482    23.696323   0.91932311 
   62100    208.04409    -650.6873    135918.14   -41968.198     2588.464   -44556.662    23.690781    0.9188876 
   62200     211.2386   -638.76607    135896.08   -41914.992    2628.2097   -44543.202     23.73228   0.91903678 
   62300     206.6544   -631.06384    135994.68   -41945.074    2571.1736   -44516.247    23.625543   0.91837043 
   62400    211.16276   -620.23046    135950.02   -41895.395    2627.2661   -44522.661    23.817975   0.91867209 
   62500    210.97687   -757.19414    136044.43   -41905.539    2624.9533   -44530.493    23.863908   0.91803455 
   62600     212.8361    -753.5126    135891.36   -41915.806    2648.0857   -44563.892    23.885667   0.91906868 
   62700    206.60913   -663.17679    135805.06   -41942.353    2570.6104   -44512.964     23.69276   0.91965269 
   62800     206.9767   -648.36805    135860.61   -41931.665    2575.1836   -44506.849    23.749075   0.91927667 
   62900    210.79754   -578.01305    135935.06   -41887.643    2622.7222   -44510.365    23.893254   0.91877321 
   63000     212.1185   -606.44531    135913.32   -41848.961    2639.1574   -44488.118    23.775245   0.91892016 
   63100    213.62986   -672.68852    135879.23   -41832.327    2657.9616   -44490.289    23.875453    0.9191507 
   63200    211.03075   -660.08727    135915.57   -41874.525    2625.6238   -44500.149    23.839793   0.91890496 
   63300     209.2633   -639.94237    135839.56   -41908.534    2603.6332   -44512.167    23.863458   0.91941913 
   63400     210.4089   -563.75411    135793.18   -41834.547    2617.8867   -44452.433    23.821781   0.91973314 
   63500    207.73163   -714.55714    135781.27   -41923.175    2584.5764   -44507.751    23.793311   0.91981384 
   63600    205.46041   -727.38942    135713.76   -41920.267    2556.3181   -44476.586    23.736463   0.92027137 
   63700    207.54906   -662.98949    135696.97   -41924.771    2582.3049   -44507.076    23.781164   0.92038529 
   63800    206.40022   -644.83422    135640.21   -42012.167    2568.0112   -44580.178    23.778724   0.92077039 
   63900    207.54296   -602.69111    135708.86   -41999.519     2582.229   -44581.748    23.720129   0.92030463 
   64000     206.3177     -708.313    135655.73    -41986.29    2566.9844   -44553.274    23.855187   0.92066509 
   64100    209.28961   -643.72611    135598.35   -41906.682    2603.9606   -44510.643    23.766603   0.92105465 
   64200    211.52973   -740.65246    135590.52   -41899.741     2631.832   -44531.573     23.76112   0.92110782 
   64300    210.42297   -695.46381    135665.12   -41810.481    2618.0617   -44428.543    23.805756   0.92060133 
   64400    214.06056   -631.32723    135648.26   -41833.174    2663.3203   -44496.495    23.813708   0.92071574 
   64500    214.33467   -704.15648    135700.93   -41818.571    2666.7308   -44485.302    23.814157   0.92035838 
   64600    210.94658   -718.18397    135741.26   -41873.008    2624.5765   -44497.584    23.871513   0.92008493 
   64700    209.64775   -639.13585    135728.87   -41891.914    2608.4166   -44500.331    23.886283   0.92016895 
   64800    211.82922   -704.11962    135665.77   -41913.197    2635.5583   -44548.756    23.751938    0.9205969 
   64900    207.77065   -739.87285    135757.84   -41894.652    2585.0619   -44479.713    23.856923   0.91997259 
   65000    212.38633   -800.67318    135782.29   -41862.641    2642.4898   -44505.131     23.82852   0.91980691 
   65100    211.01754   -675.98251    135796.25   -41883.125    2625.4594   -44508.585    23.907383   0.91971235 
   65200    208.90861   -687.10461    135869.23   -41866.872    2599.2202   -44466.093    23.850591   0.91921836 
   65300    208.87561   -650.08256    135802.07   -41870.996    2598.8097   -44469.805      23.8385   0.91967299 
   65400    214.85646    -583.5978    135940.18   -41808.842    2673.2228   -44482.065    23.849509   0.91873862 
   65500    209.25934    -819.7654    135926.19   -41877.179     2603.584   -44480.763     23.85466   0.91883313 
   65600    208.36866   -575.88105    135761.49   -41914.868    2592.5023    -44507.37    23.957638   0.91994784 
   65700    209.09222   -621.41208    135820.69   -41962.282    2601.5048   -44563.787    23.861957   0.91954691 
   65800    207.94568   -674.72614    135943.59   -41962.117    2587.2397   -44549.357    23.935081   0.91871554 
   65900       211.93   -618.70842    135857.95   -41925.766    2636.8122   -44562.578    23.985968   0.91929471 
   66000    209.34802   -692.55514    135922.59   -41835.822    2604.6873    -44440.51    23.854515   0.91885749 
   66100    212.13583   -572.90259    135982.02   -41788.731     2639.373   -44428.104    23.976789   0.91845592 
   66200    213.34833   -729.42755     136068.6   -41768.081    2654.4588   -44422.539    23.965824   0.91787153 
   66300    212.68122    -612.1361    135927.02   -41809.513    2646.1587   -44455.671    24.014404   0.91882752 
   66400    212.21642   -665.55191    135846.54   -41857.917    2640.3757   -44498.293    24.045787   0.91937187 
   66500    209.46545    -720.7121    135782.03   -41874.912    2606.1484    -44481.06    23.970082   0.91980872 
   66600    211.58287   -574.82854    135679.42   -41884.951    2632.4932   -44517.444    24.074806   0.92050432 
   66700    208.53371   -541.53496    135824.03   -41912.392    2594.5558   -44506.947    23.950531   0.91952429 
   66800    210.24247   -625.21542    135770.71   -41856.428     2615.816   -44472.244    23.894449   0.91988541 
[...]
   84600    205.39651   -688.03082    136022.22    -41964.36    2555.5231   -44519.883    25.853407   0.91818445 
   84700    204.88296   -721.09222    136111.74       -41978    2549.1335   -44527.133    25.893483   0.91758057 
   84800    211.29298   -673.46885    136055.08   -41943.014    2628.8863   -44571.901    25.866148   0.91796271 
   84900    210.37382   -756.67935    135988.09   -41935.951    2617.4503   -44553.401    25.926615    0.9184149 
   85000    213.17372   -640.36424    136066.95   -41895.618    2652.2864   -44547.904    25.973333   0.91788267 
   85100    206.38252   -592.01499    136076.23   -41891.394    2567.7909   -44459.185    26.083176   0.91782004 
   85200    211.68593   -691.85508    136106.24   -41903.722    2633.7755   -44537.497    26.025305   0.91761771 
   85300    204.28759   -686.48902    136133.44   -41948.661     2541.726   -44490.387    25.941269   0.91743433 
   85400    207.72043   -614.44124    135973.41   -41945.418    2584.4371   -44529.855    25.957133   0.91851407 
   85500    211.83585   -667.67523    136117.18   -41908.507    2635.6408   -44544.148     25.99613   0.91754393 
   85600     209.4359   -658.04142    136113.76   -41882.061    2605.7808   -44487.842     26.16461   0.91756697 
   85700    210.27404   -546.15299    136020.45   -41922.493    2616.2088   -44538.702    26.062213   0.91819641 
   85800    206.89556   -696.58577    136003.07   -41927.469    2574.1741   -44501.643    26.005032   0.91831375 
   85900    208.04074   -558.08921    136050.95   -41834.309    2588.4223   -44422.731    26.020458   0.91799061 
   86000    210.88242   -635.62345    136103.92   -41880.208    2623.7782   -44503.986    25.954714    0.9176333 
   86100    212.32021   -521.89811    136160.62   -41881.395     2641.667   -44523.062    25.873696    0.9172512 
   86200    216.00938    -582.7336    136145.65   -41854.164    2687.5673   -44541.731    26.107023   0.91735206 
   86300     208.9219   -589.42536    135988.64   -41899.406    2599.3857   -44498.791    26.038653   0.91841121 
   86400    208.40573   -762.66792    135952.48   -41923.629    2592.9635   -44516.592     26.09873   0.91865549 
   86500    210.92765   -654.47306    135882.26    -41913.05     2624.341   -44537.391    26.117161   0.91913018 
   86600    210.74307   -604.58687    135815.02   -41856.039    2622.0444   -44478.083     26.07689   0.91958526 
   86700    211.71529   -636.34475    135826.02   -41850.413    2634.1408   -44484.554    26.088754   0.91951076 
   86800     212.1242   -620.77533    135826.81   -41920.342    2639.2283   -44559.571    25.996526   0.91950542 
   86900    214.57591   -662.61383    135916.53   -41887.414    2669.7322   -44557.146    26.114578   0.91889844 
   87000       209.22   -670.80554    135843.96   -41900.464    2603.0945   -44503.559    26.259668   0.91938937 
   87100     209.3122   -683.95024    135923.71   -41942.026    2604.2417   -44546.268    26.216379   0.91884993 
   87200    210.50759   -619.79278       135878    -41931.01    2619.1146   -44550.125    26.176027   0.91915902 
   87300    213.25599   -722.96331    135986.29   -41937.869      2653.31   -44591.179    26.119038   0.91842711 
   87400    211.72994   -740.93651    135982.79   -41953.243    2634.3229   -44587.566    26.103232   0.91845075 
   87500    210.61743   -706.67073    135854.69   -41968.383    2620.4812   -44588.865    26.082194   0.91931673 
   87600    204.08483   -722.48998    135891.03   -41974.064    2539.2032   -44513.267    26.035251   0.91907092 
   87700    206.27304   -603.15294    135965.88   -41969.452    2566.4288   -44535.881     26.15691   0.91856491 
   87800    208.59209   -675.57568     136085.8   -41942.447    2595.2822   -44537.729    26.187227   0.91775551 
   87900    206.97501   -678.71217    135902.59   -41958.662    2575.1627   -44533.824    26.144196   0.91899274 
   88000    208.73378   -612.43198    135956.72   -41981.515     2597.045    -44578.56    26.308619   0.91862686 
   88100    209.62287   -630.54403    135892.82   -41914.896     2608.107   -44523.003    26.140006   0.91905877 
   88200    209.44609   -662.53974    135965.96   -41891.458    2605.9076   -44497.365    26.036008   0.91856438 
   88300    210.33962   -523.97065    135970.49   -41913.305    2617.0248    -44530.33    26.066541   0.91853382 
   88400    206.62457   -761.66787    136147.96   -42008.167    2570.8025    -44578.97    26.163768    0.9173365 
   88500    207.66619   -613.07546    136090.35   -41907.947    2583.7623   -44491.709    26.388574   0.91772481 
   88600    213.52722   -617.81836     136311.4   -41867.548    2656.6846   -44524.233    26.369927   0.91623658 
   88700    212.59042   -667.58788    136064.24   -41860.505     2645.029   -44505.534    26.163296    0.9179009 
   88800    215.07473   -627.49053    136131.19   -41811.747    2675.9385   -44487.686    26.151606   0.91744947 
   88900    212.55819   -674.95882    136231.28   -41859.475     2644.628   -44504.103    26.164927   0.91677541 
   89000    215.01327    -675.6663     136157.6   -41841.021    2675.1738   -44516.195    26.145532   0.91727152 
   89100    205.85231   -728.18638    135993.38    -41936.83    2561.1941   -44498.024    26.272493   0.91837921 
   89200    207.81569   -586.64246    136082.64   -41964.411    2585.6223   -44550.033    26.237915   0.91777679 
   89300    207.69755    -669.0256    136079.91    -41980.24    2584.1524   -44564.392    25.978214   0.91779523 
   89400    211.89925   -651.75287    136149.51   -42005.746    2636.4295   -44642.176     26.12666   0.91732607 
   89500    210.12257   -687.52598    136067.02    -42040.85    2614.3243   -44655.174    26.119949   0.91788215 
   89600    203.60205   -698.29132    136097.74   -42082.074    2533.1966   -44615.271    26.279948   0.91767498 
   89700    202.80433   -546.01116    136058.47   -42048.392    2523.2715   -44571.663    26.238149   0.91793984 
   89800    209.07284   -621.05949    136171.01   -42005.746    2601.2636    -44607.01    26.206965   0.91718121 
   89900    204.45597   -614.23379    136111.86   -42048.712     2543.821   -44592.533    26.172451   0.91757975 
   90000    209.90873   -600.20468    136089.21   -41961.565    2611.6637   -44573.228    26.087938    0.9177325 
   90100    212.13168   -595.26153    136020.62   -41973.513    2639.3214   -44612.834    26.188309   0.91819526 
   90200    209.00738   -690.26517    135964.34   -42001.692    2600.4491   -44602.141    26.207168   0.91857532 
   90300    209.82031   -587.93743    136105.45   -41998.674    2610.5636   -44609.238    26.212635   0.91762298 
   90400    203.81356   -704.59604    136057.94   -41985.308    2535.8281   -44521.137    26.135378   0.91794342 
   90500    207.59082   -795.04914    136107.02   -41948.782    2582.8244   -44531.606    26.268776    0.9176124 
   90600    212.51048   -689.81258    136038.65   -41863.563    2644.0344   -44507.597    26.369157    0.9180736 
   90700    211.93729   -677.59777    136034.07    -41875.42    2636.9028   -44512.322    26.333428   0.91810449 
   90800    212.27985     -683.826    136054.97   -41905.954    2641.1649   -44547.119    26.269071   0.91796348 
   90900    206.26213   -702.60585    136059.77   -41995.639     2566.293   -44561.932    26.462851   0.91793105 
   91000    205.48464   -560.44684    136012.46    -42012.39    2556.6196    -44569.01    26.504874   0.91825034 
   91100    208.69434   -649.37219    136085.66   -42011.855    2596.5543   -44608.409    26.446214   0.91775641 
   91200    209.35189   -680.94986    135925.61    -41969.97    2604.7355   -44574.705     26.27591   0.91883708 
   91300    212.65957   -672.87083    135992.37    -41875.44    2645.8894   -44521.329    26.450577   0.91838605 
   91400    211.45446   -587.61098    136093.21   -41863.874    2630.8955    -44494.77    26.563937   0.91770553 
   91500    212.30126   -712.70033    136056.54   -41876.364    2641.4314   -44517.796    26.484099   0.91795288 
   91600    212.64102   -667.26387    135977.36   -41911.869    2645.6585   -44557.527    26.467699   0.91848743 
   91700    210.07715   -698.51712    136178.81   -41976.849    2613.7591   -44590.609     26.45027   0.91712867 
   91800    210.65621   -678.19203    136056.78   -41947.477    2620.9638    -44568.44      26.4424   0.91795127 
   91900    207.55942   -645.27744     136166.5   -41953.883    2582.4337   -44536.317     26.34422   0.91721161 
   92000     208.2297   -647.51757    136069.53   -41961.034    2590.7733   -44551.807    26.384366   0.91786524 
   92100    207.72821   -678.39418     136043.9   -42008.153    2584.5338   -44592.687    26.481852   0.91803819 
   92200    211.33814   -636.37026    136088.73   -41939.817    2629.4482   -44569.265    26.575259   0.91773577 
   92300    212.48809   -581.49814    136250.14    -41863.42    2643.7559   -44507.176    26.529812   0.91664853 
   92400    210.40313   -669.87613    136174.74   -41881.744    2617.8149   -44499.559    26.502607   0.91715609 
   92500    208.80349    -759.5821    136185.98   -41931.893    2597.9124   -44529.805    26.574984   0.91708039 
   92600    210.45593   -518.33034    136298.11   -41905.414    2618.4719   -44523.886    26.538776    0.9163259 
   92700     211.4641   -614.14983    136267.39   -41901.319    2631.0155   -44532.335     26.65963   0.91653247 
   92800    210.26413   -700.90242    136290.75   -41948.062    2616.0855   -44564.147    26.669558    0.9163754 
   92900     212.7382   -698.75855    136370.38   -41926.205    2646.8676   -44573.073    26.528514   0.91584029 
   93000    209.99796   -700.86595    136304.06   -41953.114    2612.7739   -44565.888    26.618666   0.91628592 
   93100    207.96771   -807.77343    136179.11   -41899.158    2587.5137   -44486.671    26.527409   0.91712666 
   93200    213.23119   -648.49568    136117.15    -41905.35    2653.0014   -44558.351     26.46975   0.91754409 
   93300    213.39535   -593.58591    136237.84    -41936.39    2655.0438   -44591.434    26.468221   0.91673128 
   93400    210.64723   -635.68749     136302.4   -41968.423    2620.8521   -44589.275    26.589268   0.91629709 
   93500    206.14776   -732.46091    136185.43    -42006.79    2564.8701   -44571.661    26.559743   0.91708407 
   93600    203.79272   -602.06113    136147.87   -42076.936    2535.5688   -44612.505    26.540225   0.91733712 
   93700    206.14616   -718.79358    136160.32   -42042.087    2564.8502   -44606.937    26.540629   0.91725319 
   93800    207.79599   -555.85942    136164.47   -42007.796    2585.3772   -44593.173    26.607784   0.91722527 
   93900    206.95277   -728.57959    136179.99   -41991.004    2574.8859    -44565.89    26.490007   0.91712071 
   94000    206.93916   -634.29302    136059.46   -41998.268    2574.7166   -44572.984    26.618137   0.91793316 
   94100    211.60097   -637.52096    136067.85     -42003.2    2632.7183   -44635.918    26.581243   0.91787657 
   94200    206.85474   -701.24992    136104.35   -41995.696    2573.6663   -44569.363    26.623461   0.91763042 
   94300    206.07343   -733.46455    136025.14   -41947.438    2563.9453   -44511.384    26.559806   0.91816474 
   94400    210.09818    -760.3392    136019.67   -41937.235    2614.0208   -44551.256    26.610058   0.91820169 
   94500    212.57443   -702.45188     135908.3   -41877.481    2644.8301   -44522.311    26.685552   0.91895409 
   94600    210.39166   -666.84738    135974.02   -41917.999    2617.6722   -44535.672    26.705753   0.91850993 
   94700    210.52907   -573.35069    136085.82   -41958.081    2619.3818   -44577.463    26.596934   0.91775537 
   94800    212.07104   -642.70878    136059.45   -41950.172    2638.5669   -44588.739     26.55897   0.91793326 
   94900    210.93233   -516.95654    136065.08   -41912.637    2624.3992   -44537.036    26.800023   0.91789524 
   95000    211.73388   -610.31787    136059.58   -41907.302     2634.372   -44541.673    26.680086   0.91793238 
   95100      211.789   -577.27253    135895.81   -41910.228    2635.0578   -44545.285    26.661279    0.9190386 
   95200    208.37107   -733.55541    135970.09   -41929.081    2592.5323   -44521.613    26.661065   0.91853647 
   95300    217.25947   -635.56395    136022.69   -41834.927    2703.1208   -44538.048    26.636816    0.9181813 
   95400    212.86033   -673.63194    136002.56   -41897.067    2648.3871   -44545.454    26.658128   0.91831723 
   95500    212.51985   -570.97353    136079.08   -41899.195    2644.1509   -44543.346    26.603197   0.91780083 
   95600    210.72468    -575.6681    135964.49   -41883.655    2621.8156   -44505.471    26.744301   0.91857436 
   95700    208.58253   -788.62833    135937.52   -41939.303    2595.1632   -44534.466     26.68628   0.91875657 
   95800    212.10552   -711.53545    136030.79   -41985.593    2638.9959   -44624.589    26.750516   0.91812662 
   95900    210.08486   -711.56002     135972.1   -41937.972     2613.855   -44551.827    26.560599    0.9185229 
   96000    210.31301   -652.26681    135975.63   -42007.563    2616.6937   -44624.256    26.468965   0.91849907 
   96100    209.35906   -744.09562    136103.33   -41956.017    2604.8247   -44560.842     26.60238   0.91763732 
   96200    209.07076   -690.37798    136049.17   -41993.436    2601.2378   -44594.674    26.679338   0.91800259 
   96300    210.69524   -627.69222     136038.3   -41941.136    2621.4493   -44562.585    26.677467   0.91807592 
   96400    210.45798    -672.0702    136133.04   -41921.685    2618.4974   -44540.182    26.734031   0.91743699 
   96500    209.00625   -626.22503    136008.29   -41970.719    2600.4351   -44571.154    26.763091    0.9182785 
   96600    212.35395   -701.66939     136086.8   -41969.862    2642.0868   -44611.949    26.565615   0.91774879 
   96700    208.58399   -632.91322    136029.59   -42045.974    2595.1814   -44641.156     26.61511   0.91813473 
   96800    203.23044    -629.5587    136139.38   -42089.682     2528.573   -44618.255    26.641283   0.91739433 
   96900    206.18651   -710.97357    136050.57   -42032.239    2565.3522   -44597.591     26.63363   0.91799315 
   97000    204.92654   -636.80551    136072.73   -42033.364    2549.6758    -44583.04    26.746475   0.91784367 
   97100     207.1609   -715.60901    136141.08   -42018.671    2577.4755   -44596.147    26.861434   0.91738283 
   97200    204.91616   -508.06758    136303.11   -42026.364    2549.5466   -44575.911    26.735301    0.9162923 
   97300     206.9781   -665.90985    136212.38   -42020.047    2575.2011   -44595.248     26.77927   0.91690265 
   97400    208.07044   -542.25884    136182.39   -42028.314    2588.7918   -44617.105    26.722406    0.9171046 
   97500    210.10324   -762.92864     136139.8   -41939.658    2614.0837   -44553.741    26.857482   0.91739145 
   97600     209.1745   -721.43063    136128.66   -42006.942    2602.5285    -44609.47    26.777489   0.91746657 
   97700     209.2342   -808.01777    136106.74    -41941.88    2603.2712   -44545.152    26.720181   0.91761427 
   97800    210.18052   -669.77772    136117.35   -41922.808    2615.0452   -44537.853    26.878233   0.91754279 
   97900    208.50988   -715.20339    136079.95   -41891.458    2594.2593   -44485.718    26.942171   0.91779496 
   98000    212.46212   -671.82563    136125.28    -41912.93    2643.4327   -44556.363     26.91487   0.91748935 
   98100    211.73081    -641.1156    136195.29   -41980.971    2634.3338   -44615.305    26.908633   0.91701773 
   98200    209.85661   -676.33622    136136.47    -41961.59    2611.0152   -44572.605    26.903969   0.91741388 
   98300    211.25254   -680.91675    136069.72   -41988.406    2628.3832   -44616.789    26.840165   0.91786394 
   98400    212.16866   -651.27712    136062.41   -42006.995    2639.7815   -44646.776    27.022646   0.91791328 
   98500     207.7345   -632.82249    136005.11   -42009.406    2584.6121   -44594.018    26.898094   0.91830001 
   98600    205.42468   -654.34705    136145.83   -42033.177    2555.8735    -44589.05    26.770985   0.91735083 
   98700    205.09505   -656.59306    136177.71   -42085.277    2551.7724   -44637.049     26.95151   0.91713607 
   98800    207.71836   -566.72808     136107.4   -42057.479    2584.4113    -44641.89    26.921224   0.91760982 
   98900    206.45657   -562.05846    136146.75   -42063.375    2568.7122   -44632.087    27.009124   0.91734464 
   99000    204.69588   -648.26947    136113.06   -42103.587     2546.806   -44650.393    27.004545   0.91757172 
   99100    208.22907   -652.70787    136033.82    -42025.06    2590.7655   -44615.826    27.048401   0.91810621 
   99200    207.11442   -671.97282    136176.15   -42012.076    2576.8972   -44588.973    27.070484   0.91714662 
   99300    211.96111   -757.66241    136103.13   -41965.979    2637.1991   -44603.178    27.017405   0.91763861 
   99400    214.22033   -648.87894    136221.98   -41941.803    2665.3082   -44607.111    27.032355   0.91683802 
   99500    217.30176   -692.07968    136193.76   -41832.334     2703.647   -44535.981    27.121307   0.91702801 
   99600    215.25882   -791.57012    136217.81   -41857.562    2678.2289   -44535.791    27.073468   0.91686607 
   99700    215.46468   -553.96604    136225.08   -41883.512    2680.7902   -44564.302    27.035772   0.91681716 
   99800    206.06158   -683.78587    136153.79   -41913.454    2563.7978   -44477.252    26.976607   0.91729718 
   99900    212.33504   -595.57277    136159.64   -41973.076    2641.8515   -44614.928     27.05381   0.91725782 
  100000    211.93517   -816.05397    136237.73   -41983.991    2636.8764   -44620.868    27.067587   0.91673201 
  100100    213.02343   -596.38829    136215.35    -41917.33    2650.4165   -44567.747    27.064211   0.91688268 
  100200     211.0275   -526.94294    136198.14   -41926.907    2625.5833    -44552.49    27.146203   0.91699851 
  100300    214.45042   -688.54322    136289.49   -41910.795    2668.1709   -44578.965    27.074714   0.91638391 
  100400    210.45106   -627.03865    136262.89   -41948.875    2618.4113   -44567.286    26.923211   0.91656279 
  100500     214.3746   -518.45071    136348.92   -41872.027    2667.2276   -44539.255    27.108709   0.91598448 
  100600    211.13992    -570.3165    136187.16   -41965.258     2626.982    -44592.24    27.091252   0.91707246 
  100630    213.18443   -561.95434    136235.72   -41952.755    2652.4196   -44605.175    27.136911   0.91674558 
Loop time of 69.4571 on 6 procs for 100000 steps with 4175 atoms

Performance: 621.967 ns/day, 0.039 hours/ns, 1439.738 timesteps/s
98.2% CPU use with 6 MPI tasks x no OpenMP threads

MPI task timing breakdown:
Section |  min time  |  avg time  |  max time  |%varavg| %total
---------------------------------------------------------------
Pair    | 54.012     | 55.873     | 57.338     |  16.0 | 80.44
Neigh   | 4.6745     | 4.7405     | 4.8132     |   2.2 |  6.83
Comm    | 4.9161     | 6.3294     | 8.2521     |  47.4 |  9.11
Output  | 0.15929    | 0.16002    | 0.16317    |   0.4 |  0.23
Modify  | 1.7268     | 1.76       | 1.7821     |   1.3 |  2.53
Other   |            | 0.5941     |            |       |  0.86

Nlocal:        695.833 ave         701 max         688 min
Histogram: 1 0 0 1 0 0 2 0 1 1
Nghost:        1437.83 ave        1457 max        1417 min
Histogram: 1 0 1 1 0 0 1 0 0 2
Neighs:        0.00000 ave           0 max           0 min
Histogram: 6 0 0 0 0 0 0 0 0 0
FullNghs:      18658.3 ave       18790 max       18465 min
Histogram: 1 0 0 0 2 0 0 0 2 1

Total # of neighbors = 111950
Ave neighs/atom = 26.814371
Neighbor list builds = 5159
Dangerous builds = 0

undump              1
unfix               2
unfix               3
unfix               4


################################################
#######         Run Simulation         #########
################################################

reset_timestep      0
log                 log.run_${NAME}
log                 log.run_liquid_density_MLmW
