
# Create simulation box of size 50 x 50 x 50 Angstrom
#
lattice	            sc 1
Lattice spacing in x,y,z = 1.0000000 1.0000000 1.0000000
region 	            all block 0 50 0 50 0 50 units box
create_box          1 all
Created orthogonal box = (0.0000000 0.0000000 0.0000000) to (50.000000 50.000000 50.000000)
  1 by 1 by 1 MPI processor grid

# fill box with 4175 randomly distributed atoms
#
create_atoms        1 random 4175 63782 all
Created 4175 atoms
  create_atoms CPU = 0.000 seconds
mass                1 18.015

# Define potential
#
pair_style          sw
pair_coeff          * * ML_mW.sw mW
Reading sw potential file ML_mW.sw with DATE: 2019-02-27

# Run minimization
#
minimize            1.0e-8 1.0e-8 10000 1000
WARNING: Using 'neigh_modify every 1 delay 0 check yes' setting during minimization (../min.cpp:187)
Neighbor list info ...
  update every 1 steps, delay 0 steps, check yes
  max neighbors/atom: 2000, page size: 100000
  master list distance cutoff = 6.0032907
  ghost atom cutoff = 6.0032907
  binsize = 3.0016454, bins = 17 17 17
  1 neighbor lists, perpetual/occasional/extra = 1 0 0
  (1) pair sw, perpetual
      attributes: full, newton on
      pair build: full/bin/atomonly
      stencil: full/bin/3d
      bin: standard
Per MPI rank memory allocation (min/avg/max) = 4.759 | 4.759 | 4.759 Mbytes
Step Temp E_pair E_mol TotEng Press 
       0            0    7792709.3            0    7792709.3    5898794.3 
     631            0   -45138.185            0   -45138.185   -130.57836 
Loop time of 7.36335 on 1 procs for 631 steps with 4175 atoms

100.0% CPU use with 1 MPI tasks x no OpenMP threads

Minimization stats:
  Stopping criterion = max force evaluations
  Energy initial, next-to-last, final = 
      7792709.32924456  -45137.9104522973  -45138.1854596308
  Force two-norm initial, final = 2.0191930e+08 4.4741522
  Force max component initial, final = 1.0948746e+08 1.0165594
  Final line search alpha, max atom move = 0.045182713 0.045930911
  Iterations, force evaluations = 631 1000

MPI task timing breakdown:
Section |  min time  |  avg time  |  max time  |%varavg| %total
---------------------------------------------------------------
Pair    | 7.1012     | 7.1012     | 7.1012     |   0.0 | 96.44
Neigh   | 0.16522    | 0.16522    | 0.16522    |   0.0 |  2.24
Comm    | 0.019382   | 0.019382   | 0.019382   |   0.0 |  0.26
Output  | 0          | 0          | 0          |   0.0 |  0.00
Modify  | 0          | 0          | 0          |   0.0 |  0.00
Other   |            | 0.07758    |            |       |  1.05

Nlocal:        4175.00 ave        4175 max        4175 min
Histogram: 1 0 0 0 0 0 0 0 0 0
Nghost:        3825.00 ave        3825 max        3825 min
Histogram: 1 0 0 0 0 0 0 0 0 0
Neighs:        0.00000 ave           0 max           0 min
Histogram: 1 0 0 0 0 0 0 0 0 0
FullNghs:     119936.0 ave      119936 max      119936 min
Histogram: 1 0 0 0 0 0 0 0 0 0

Total # of neighbors = 119936
Ave neighs/atom = 28.727186
Neighbor list builds = 26
Dangerous builds = 0

# Add velocity/set timestep
#
velocity            all create ${TEMP} 120598 rot yes dist gaussian
velocity            all create 205 120598 rot yes dist gaussian
timestep            5.0

# Define output
#
compute	            1 all msd
thermo	            100
thermo_style        custom step temp press vol etotal ke pe c_1[4] density

# Neighbor lists
#
neigh_modify        delay 0 every 1 check yes

# Set fixes
#
fix                 1 all momentum 10 linear 1 1 1 rescale
fix                 2 all nve
fix                 3 all temp/csvr ${TEMP} ${TEMP} 500.0 928347
fix                 3 all temp/csvr 205 ${TEMP} 500.0 928347
fix                 3 all temp/csvr 205 205 500.0 928347
fix                 4 all press/berendsen iso ${PRES} ${PRES} 1000.0 modulus 20000
fix                 4 all press/berendsen iso -850 ${PRES} 1000.0 modulus 20000
fix                 4 all press/berendsen iso -850 -850 1000.0 modulus 20000

# Run 0.5 ns equilibration
#
dump                1 all custom 1000 eq.${NAME}.dump id type x y z vx vy vz
dump                1 all custom 1000 eq.liquid_density_MLmW.dump id type x y z vx vy vz
run                 100000
Per MPI rank memory allocation (min/avg/max) = 4.009 | 4.009 | 4.009 Mbytes
Step Temp Press Volume TotEng KinEng PotEng c_1[4] Density 
     631          205    802.16775       125000   -42587.596    2550.5897   -45138.185            0   0.99914793 
     700    132.44442   -699.61754    126249.81   -41801.186    1647.8603   -43449.047   0.23029655    0.9892569 
     800    161.38984   -787.82499    126326.63   -41088.221    2007.9965   -43096.218   0.55956046   0.98865529 
     900    178.62826   -889.82235    126661.88   -40656.919    2222.4751   -42879.394   0.87497951    0.9860385 
    1000    188.51913   -773.45827    126823.99   -40401.184    2345.5364    -42746.72    1.1958725   0.98477816 
    1100    197.34928   -705.04355    127359.19   -40228.809    2455.4002   -42684.209    1.4927468   0.98063977 
    1200     200.4352   -707.10656    127580.47   -40287.811    2493.7949   -42781.605     1.808031   0.97893897 
    1300    203.00491   -759.22637    127892.83   -40287.936    2525.7671   -42813.704    2.1955002   0.97654804 
    1400    198.65874   -719.59448    128078.42     -40298.4    2471.6924   -42770.093    2.4741382   0.97513296 
    1500    205.80024   -921.00524    128395.44   -40277.907    2560.5462   -42838.454    2.8004773   0.97272526 
    1600     207.4419   -884.77795    128855.47   -40220.799    2580.9717   -42801.771    3.1267791   0.96925254 
    1700    206.41463   -728.09608    128697.65   -40274.935    2568.1904   -42843.125    3.4127184    0.9704411 
    1800    206.76354   -693.09029    128793.08   -40365.581    2572.5315   -42938.113    3.7359448   0.96972205 
    1900    202.16629   -719.87597    128858.04   -40386.523    2515.3329   -42901.856    3.9759585   0.96923321 
    2000    208.04687    -709.7178    129123.62   -40359.286    2588.4986   -42947.784    4.2134576   0.96723967 
    2100     208.4655   -911.31838    129269.04   -40341.283    2593.7072   -42934.991    4.5011874   0.96615159 
    2200    209.50429   -805.45179    129192.33   -40400.207    2606.6317   -43006.839    4.6249276   0.96672525 
    2300    207.55478   -837.79319    129352.76   -40416.678    2582.3761   -42999.054    4.8005099    0.9655263 
    2400    208.47228   -874.32524    129352.29   -40458.477    2593.7915   -43052.268    5.1109913   0.96552982 
    2500    211.37193   -690.11337    129433.58   -40447.925    2629.8687   -43077.794    5.2754497   0.96492344 
    2600    209.62071   -858.10179    129307.71   -40437.608    2608.0802   -43045.688    5.6006141   0.96586271 
    2700    212.49105   -677.35615    129678.41   -40471.197    2643.7927   -43114.989    5.8514129   0.96310168 
    2800    212.10322   -838.96773    129792.65   -40494.792    2638.9672    -43133.76    6.0754479   0.96225399 
    2900    207.73174   -920.10131    129860.02   -40588.696    2584.5778   -43173.273    6.2897845   0.96175478 
    3000    207.90087   -722.62878    130164.44   -40632.561    2586.6821   -43219.243    6.4113633   0.95950547 
    3100    211.51553   -801.98032    130336.28   -40631.931    2631.6553   -43263.586    6.5164724   0.95824039 
    3200    209.07237   -628.04886    130503.02   -40705.801    2601.2578   -43307.059    6.6562032   0.95701613 
    3300    209.89481    -745.9132    130665.74   -40726.694    2611.4905   -43338.184    6.7553429   0.95582432 
    3400    205.78681   -811.34261    130726.13   -40770.868    2560.3792   -43331.247    6.8455742   0.95538276 
    3500    207.31847   -768.14663    130780.12   -40796.022    2579.4359   -43375.458    7.0361222   0.95498835 
    3600    204.30253    -795.7947    130940.52   -40847.167    2541.9119   -43389.079    7.0596164    0.9538185 
    3700    204.91219   -692.34336    130937.96    -40919.95    2549.4973   -43469.448    7.2085946   0.95383715 
    3800    203.91152     -858.078    131155.75   -40879.978     2537.047   -43417.025    7.2629243   0.95225327 
    3900    201.53681   -791.14128    131326.45   -40923.175    2507.5011   -43430.676    7.4039851   0.95101548 
    4000    205.48262    -860.1126    131526.58   -40935.601    2556.5944   -43492.196    7.7790374   0.94956846 
    4100     203.5426   -1000.0013    131321.73   -40927.713    2532.4569    -43460.17    7.9354271   0.95104966 
    4200    208.08857   -706.81728     131282.3   -40955.904    2589.0174   -43544.922    8.0935689   0.95133534 
    4300    208.57459   -747.86662    131301.92   -40958.189    2595.0645   -43553.253     8.235701   0.95119321 
    4400    203.61992   -827.09803    131594.77   -40971.967    2533.4189   -43505.386    8.2798036    0.9490764 
    4500    202.49954   -979.11827    131724.74   -40987.925    2519.4792   -43507.404    8.3817423   0.94813996 
    4600    202.04978   -725.19652    131656.36   -41060.151    2513.8833   -43574.034    8.3663328   0.94863239 
    4700    206.78388   -1008.4788    131867.44   -40976.873    2572.7846   -43549.657    8.4486497   0.94711396 
    4800    203.99101   -934.82417       131934   -41031.617    2538.0359   -43569.653    8.4956271   0.94663612 
    4900    208.82667   -917.58871    131752.49   -40922.738    2598.2008   -43520.939    8.7257493   0.94794028 
    5000    206.65565   -699.97302    131807.64   -40886.979    2571.1891   -43458.168    8.9033025   0.94754364 
    5100    205.62315   -736.16867    132146.71   -40948.465    2558.3429   -43506.808    9.0942853   0.94511236 
    5200    206.26293    -932.1531    132149.26   -41015.474     2566.303   -43581.777    9.1146267   0.94509414 
    5300    206.48671   -1107.8953    132116.32   -40995.463    2569.0873    -43564.55    9.0290213   0.94532977 
    5400    205.52169   -814.77274    132068.29   -41051.583    2557.0805   -43608.664    9.0385673   0.94567355 
    5500    203.72836    -878.3129    132378.67   -41054.603    2534.7681   -43589.371    9.1148144   0.94345632 
    5600     207.3011    -854.3794     132495.1   -41082.943    2579.2199   -43662.163    9.0926473   0.94262724 
    5700     211.3731   -964.94795    132394.08   -41088.461    2629.8832   -43718.345    9.2919435   0.94334653 
    5800    204.28639   -861.48396    132388.08   -41122.389     2541.711     -43664.1    9.4212891   0.94338924 
    5900    206.39898   -1043.1113    132471.18   -41169.032    2567.9957   -43737.028     9.408242   0.94279744 
    6000    204.15496   -759.96835    132619.63   -41174.439    2540.0758   -43714.515    9.5904708   0.94174215 
    6100    201.73395   -797.16209    132717.73   -41134.619    2509.9539   -43644.573    9.6977117   0.94104602 
    6200    203.67768   -805.63248    132838.96   -41179.862    2534.1375   -43713.999    9.7833147   0.94018722 
    6300    205.11048   -859.19864    132862.21   -41148.954    2551.9644   -43700.918    9.7562411   0.94002269 
    6400    206.52019   -770.77732    132720.29   -41135.514    2569.5038   -43705.018    9.8502728   0.94102787 
    6500    208.36641   -913.17305    132938.35   -41096.027    2592.4743   -43688.501    10.025342   0.93948426 
    6600    206.28635   -843.81396    132920.51    -41180.69    2566.5944   -43747.284     10.15573   0.93961042 
    6700    202.01154   -945.14682    132966.86   -41249.259    2513.4077   -43762.667    10.203326   0.93928288 
    6800    205.49422   -791.09017    132862.84   -41193.424    2556.7388   -43750.162    10.221156   0.94001826 
    6900    208.94859    -849.2959     132937.6   -41153.807    2599.7177   -43753.524    10.190847   0.93948957 
    7000    205.52647   -864.82348    133098.53   -41142.298      2557.14   -43699.439    10.275316   0.93835363 
    7100    205.85513   -868.51741    133189.72   -41165.026    2561.2292   -43726.255    10.456768   0.93771121 
    7200    203.23351   -1048.1547    133096.44   -41230.401    2528.6112   -43759.013    10.447699    0.9383684 
    7300    200.83988   -915.44956    133037.27   -41276.562    2498.8299   -43775.392    10.459209   0.93878573 
    7400     204.1057   -828.47337     133134.5   -41303.863     2539.463   -43843.326    10.596679   0.93810011 
    7500    205.18067   -937.27421    133214.78   -41284.089    2552.8376   -43836.927    10.514087   0.93753482 
    7600    206.86046   -740.31163    133489.39   -41354.756    2573.7374   -43928.493    10.734676   0.93560611 
    7700    202.18359   -937.01402    133475.65   -41274.595    2515.5482   -43790.143    10.811365   0.93570247 
    7800    206.45274   -850.88152    133447.12   -41260.363    2568.6646   -43829.027    10.813449   0.93590249 
    7900    201.88683   -804.41711    133488.76   -41327.389    2511.8559   -43839.245    10.758461   0.93561056 
    8000    203.40385   -794.88246    133499.91   -41304.808    2530.7306   -43835.538    10.856307   0.93553237 
    8100    202.42769   -826.83585    133319.87   -41382.195    2518.5853    -43900.78     10.90306   0.93679577 
    8200    200.85275   -863.95771    133505.16   -41387.726    2498.9901   -43886.716    10.990714   0.93549558 
    8300    201.37603   -915.31875    133555.05    -41381.75    2505.5007   -43887.251    11.034846   0.93514616 
    8400    207.10573   -855.80226    133498.17   -41340.928    2576.7891   -43917.717    11.115612   0.93554461 
    8500    205.90164   -852.22702    133496.16    -41286.57    2561.8079   -43848.378    11.183782   0.93555866 
    8600    201.11114   -913.42014    133441.74   -41322.099     2502.205   -43824.304    11.110552   0.93594019 
    8700    205.67524   -771.26078    133444.11   -41301.731     2558.991   -43860.722    11.285923   0.93592361 
    8800    205.58968   -770.37836    133522.69   -41344.997    2557.9265   -43902.923    11.259611    0.9353728 
    8900    199.22394   -1055.9848    133551.35   -41420.528    2478.7246   -43899.253    11.194603   0.93517206 
    9000    205.94269   -805.85379    133505.35   -41392.074    2562.3185   -43954.393    11.305352   0.93549428 
    9100    199.72256   -681.48874     133500.1   -41448.416    2484.9284   -43933.344    11.298463   0.93553107 
    9200    206.43431   -926.88222    133537.92   -41370.142    2568.4353   -43938.577    11.286218   0.93526612 
    9300    203.68787   -763.96885    133581.19   -41412.907    2534.2643   -43947.171    11.397762   0.93496319 
    9400    204.83095    -807.1579     133700.6    -41381.16    2548.4864   -43929.647    11.665161   0.93412816 
    9500    205.22957   -906.52309    133745.67   -41384.536     2553.446   -43937.982    11.596844   0.93381332 
    9600    205.06297   -863.31247    133553.36   -41359.682    2551.3732   -43911.056    11.504828     0.935158 
    9700    207.16911   -748.39223    133787.56   -41300.554    2577.5776   -43878.132    11.632046   0.93352093 
    9800    204.26161   -880.78196    133627.51   -41385.113    2541.4028   -43926.516    11.701716    0.9346391 
    9900    199.40262   -1001.6449    133476.36    -41451.56    2480.9476   -43932.508    11.608711   0.93569747 
   10000    203.44507   -856.63659    133515.73   -41453.066    2531.2435   -43984.309    11.655239   0.93542153 
   10100    202.47385   -863.09223    133523.76   -41421.636    2519.1596   -43940.795    11.807707   0.93536532 
   10200    201.46575   -828.97337    133612.37    -41468.41     2506.617   -43975.027    11.876549     0.934745 
   10300    198.47752   -852.99237    133591.99   -41464.201    2469.4377   -43933.639    11.934432   0.93488761 
   10400    204.47587   -787.65184    133610.17   -41397.948    2544.0686   -43942.017     11.90178   0.93476038 
   10500     204.4405   -826.12957    133443.26   -41367.145    2543.6285   -43910.774    12.036144   0.93592955 
   10600    204.70773   -904.71124    133576.03   -41310.661    2546.9534   -43857.615    12.106746   0.93499926 
   10700     209.6631   -1000.7741    133665.11   -41291.896    2608.6076   -43900.504    12.099072   0.93437614 
   10800    207.75197   -728.84511    133693.67   -41288.308    2584.8294   -43873.138    12.035689   0.93417656 
   10900    204.97065   -870.03169    133618.18   -41322.047    2550.2245   -43872.271    12.286802    0.9347043 
   11000    210.10132   -889.54013    133552.13   -41320.248    2614.0599   -43934.308    12.259334   0.93516663 
   11100    203.61308   -782.95927    133418.96   -41356.889    2533.3338   -43890.223    12.220909   0.93610003 
   11200    207.01163   -874.38813    133619.13   -41361.486    2575.6183   -43937.104    12.231386   0.93469765 
   11300    201.97045   -869.75224    133613.49   -41374.036    2512.8964   -43886.933    12.189238   0.93473714 
   11400    208.72333   -829.55052     133686.1   -41385.375     2596.915    -43982.29    12.290839   0.93422947 
   11500    205.29477   -823.65655    133872.13   -41409.618    2554.2572   -43963.875    12.475148   0.93293126 
   11600    203.11207   -816.18425    133839.91   -41415.234    2527.1003   -43942.334    12.502906   0.93315582 
   11700    207.20893   -802.33126    133865.11   -41329.748    2578.0731   -43907.822    12.462623   0.93298017 
   11800    203.91414      -858.32    133880.65   -41411.084    2537.0796   -43948.164    12.550322   0.93287186 
   11900     207.7669   -971.78357    133870.25   -41440.292    2585.0153   -44025.307    12.449497   0.93294435 
   12000    204.30341   -757.59147    133872.98   -41449.903    2541.9228   -43991.826    12.494921   0.93292533 
   12100     204.3304   -937.97328    134018.74   -41424.205    2542.2587   -43966.464     12.55534   0.93191068 
   12200    204.03118   -887.47524    133957.73   -41427.187    2538.5358   -43965.723    12.592663   0.93233505 
   12300    206.57668   -877.29617    133965.01   -41457.371    2570.2066   -44027.578    12.727024   0.93228442 
   12400    207.65145   -918.05138    133814.68   -41441.421    2583.5788       -44025    12.746201   0.93333176 
   12500    201.92982   -822.88756    133849.88   -41530.476    2512.3909   -44042.867    12.680116   0.93308634 
   12600    202.52544   -788.32008    133924.79   -41450.536    2519.8015   -43970.337    12.703334   0.93256438 
   12700    206.58659   -836.09875       133743   -41445.031    2570.3299   -44015.361    12.893062     0.933832 
   12800    208.35224   -932.44237    133821.14   -41421.975     2592.298   -44014.273    12.956284   0.93328674 
   12900    204.31176   -791.77572     133861.4   -41460.421    2542.0268   -44002.447    13.087513   0.93300602 
   13000     206.6014   -828.29075    133947.95   -41414.476    2570.5142    -43984.99    13.074927   0.93240318 
   13100    206.71673   -812.90424     133896.5   -41439.084    2571.9492   -44011.033    13.054077   0.93276142 
   13200    210.07864   -919.57497    134003.75   -41369.415    2613.7777   -43983.193     13.16081   0.93201487 
   13300    208.07016    -887.9095    134076.61   -41408.655    2588.7884   -43997.444      13.1392   0.93150842 
   13400    204.64722   -992.26909    133967.86   -41485.874    2546.2004   -44032.074    13.239399    0.9322646 
   13500    203.79548    -884.3818    133933.34    -41524.47    2535.6033   -44060.074    13.280561   0.93250484 
   13600    201.35508   -912.41235    133804.73   -41557.729      2505.24   -44062.969    13.302833   0.93340115 
   13700    200.80963   -911.82927    133844.68   -41557.218    2498.4536   -44055.672     13.33608   0.93312258 
   13800    203.30549   -749.04731    133742.42    -41484.84    2529.5068   -44014.347    13.372064   0.93383601 
   13900    204.91082   -725.77974    133918.98   -41519.351    2549.4801   -44068.831    13.482537   0.93260487 
   14000    205.50525   -960.58468    133821.69   -41515.545    2556.8761   -44072.421    13.463411   0.93328285 
   14100    206.92334   -917.80249    133926.98   -41520.414    2574.5197   -44094.933    13.522965   0.93254913 
   14200    205.67656   -907.34121    133853.69   -41562.435    2559.0075   -44121.442    13.571312   0.93305977 
   14300    202.90347   -644.43762    134023.32   -41605.365    2524.5049    -44129.87    13.630454   0.93187881 
   14400    203.97338   -918.85759       134136   -41575.572    2537.8166   -44113.389    13.662981   0.93109597 
   14500    204.12288   -905.38481    134099.07   -41536.624    2539.6767   -44076.301    13.612632   0.93135242 
   14600    204.02523    -836.8396    134142.31   -41551.397    2538.4617   -44089.858    13.758931   0.93105216 
   14700    204.21824   -601.85851    134163.29   -41588.921    2540.8631   -44129.784    13.748405   0.93090661 
   14800    207.29663   -782.36141    134234.38   -41659.095    2579.1642   -44238.259    13.860042    0.9304136 
   14900    204.40455   -740.34359     134149.4   -41736.847    2543.1812   -44280.028    13.910873   0.93100295 
   15000    201.42834    -774.0592    134211.06   -41745.926    2506.1515   -44252.078    13.867669   0.93057528 
   15100    197.15609   -814.16516    134405.56    -41770.35    2452.9966   -44223.347    13.922171   0.92922861 
   15200    202.81679   -850.88252    134476.74   -41700.601    2523.4265   -44224.028    13.897781   0.92873678 
   15300    203.38704   -839.93092    134385.96   -41731.616    2530.5214   -44262.138    14.015574   0.92936411 
   15400    201.75612   -769.00615    134488.14   -41718.584    2510.2298   -44228.814    14.141687   0.92865801 
   15500     203.2224    -827.1106    134368.22   -41707.829     2528.473   -44236.302    14.066308   0.92948687 
   15600    206.94562   -834.19147    134439.14   -41647.793    2574.7969    -44222.59    14.131907   0.92899652 
   15700    200.47126   -817.73099    134286.57    -41735.31    2494.2436   -44229.554    14.114541   0.93005197 
   15800    202.20873   -731.77647    134461.15   -41739.828    2515.8611   -44255.689     14.22001   0.92884444 
   15900    203.40172   -879.93713    134384.52   -41756.388     2530.704   -44287.092    14.236355   0.92937406 
   16000    200.50048   -801.44659    134511.08   -41695.464    2494.6072   -44190.071    14.296103   0.92849964 
   16100    209.87218   -734.25844     134511.9   -41647.891     2611.209     -44259.1    14.340499   0.92849402 
   16200    202.05832   -839.40357    134404.98   -41709.086    2513.9897   -44223.075    14.326928   0.92923262 
   16300    203.19817   -795.44987    134394.07   -41712.494    2528.1716   -44240.665    14.379191   0.92930802 
   16400      206.402   -774.90741    134444.97    -41634.34    2568.0333   -44202.373     14.34849   0.92895625 
   16500    204.74995   -733.45595    134609.56   -41628.007    2547.4786   -44175.486    14.471851   0.92782039 
   16600     207.0316    -836.2738    134633.99   -41609.735    2575.8667   -44185.601    14.393242     0.927652 
   16700    208.23602   -870.47232    134802.58   -41639.989    2590.8519   -44230.841    14.451018   0.92649182 
   16800    207.36773   -854.23524    134832.68   -41643.072    2580.0488   -44223.121    14.508668   0.92628503 
   16900    204.99675   -766.98122    134762.52   -41608.059    2550.5493   -44158.609    14.480568   0.92676727 
   17000    208.79375   -841.39495    134689.32   -41634.914    2597.7912   -44232.705    14.522936   0.92727096 
   17100    209.99328   -916.35506    134694.51   -41570.386    2612.7157   -44183.102    14.533539    0.9272352 
   17200    206.06017   -787.50162     134689.7   -41578.118    2563.7803   -44141.899     14.54729    0.9272683 
   17300     204.0367   -921.21671    134659.04   -41655.236    2538.6045   -44193.841    14.429743   0.92747947 
   17400      203.532   -810.76753    134700.68   -41668.905     2532.325    -44201.23    14.492749   0.92719276 
   17500    207.33863    -831.1141    134735.67   -41660.689    2579.6867   -44240.375    14.539471   0.92695196 
   17600    202.59689   -823.07658    134653.02   -41662.001    2520.6905   -44182.692    14.530713   0.92752088 
   17700    204.57978    -863.1602    134744.84    -41681.51    2545.3614   -44226.871    14.612187   0.92688883 
   17800     202.1826   -856.00518    134774.07   -41668.702    2515.5359   -44184.238    14.607502   0.92668783 
   17900    206.84582   -875.96535     134822.6   -41642.212    2573.5552   -44215.767    14.674373    0.9263543 
   18000    204.76716   -883.06817    134756.48   -41606.533    2547.6928   -44154.226    14.771769   0.92680882 
   18100    204.91432   -960.35866    134637.83    -41709.49    2549.5238   -44259.014    14.740083   0.92762556 
   18200    204.73161   -776.19581    134619.28   -41699.907    2547.2504   -44247.157    14.738996    0.9277534 
   18300    208.63772   -767.04209    134662.57   -41624.948    2595.8499   -44220.798    14.769602   0.92745511 
   18400    206.68919   -891.91143    134851.28   -41677.806    2571.6065   -44249.412    14.663757   0.92615724 
   18500    204.74473   -871.94315    134890.95   -41651.259    2547.4137   -44198.672    14.792723   0.92588487 
   18600    203.16433   -855.70942    134856.52   -41692.909    2527.7506   -44220.659    14.992093   0.92612126 
   18700    205.58805   -844.95409    134984.78   -41662.113    2557.9062   -44220.019    14.961982   0.92524129 
   18800    208.43364   -922.56562    134961.08   -41626.013    2593.3107   -44219.324    15.040886   0.92540375 
   18900    206.14196   -936.18783    134922.29   -41655.774    2564.7978   -44220.572    15.075349   0.92566981 
   19000    209.38144   -866.31983    134895.07   -41639.097    2605.1032     -44244.2    15.030762   0.92585657 
   19100    205.92853   -913.94164    135029.16   -41696.509    2562.1424   -44258.652    14.851873   0.92493717 
   19200    203.73628   -877.53707    135011.49   -41697.569    2534.8666   -44232.435    15.016121   0.92505821 
   19300    209.05065   -810.77847    134971.75   -41638.323    2600.9876   -44239.311    15.030892   0.92533062 
   19400    208.81433   -827.41179    135079.19   -41654.812    2598.0472   -44252.859    15.087809    0.9245946 
   19500    205.24922   -894.62483    134921.24    -41645.08    2553.6905   -44198.771    15.200761   0.92567702 
   19600    205.72355   -966.36614    134892.56   -41689.921     2559.592   -44249.513    15.132355    0.9258738 
   19700    209.06092   -654.72658    134952.38   -41663.252    2601.1154   -44264.367      15.0904   0.92546345 
   19800    204.26501   -845.75907    134928.78   -41694.884     2541.445   -44236.329    15.107326   0.92562532 
   19900     207.2648   -847.64383    135143.85   -41696.545    2578.7682   -44275.313    15.099493   0.92415224 
   20000    203.75233   -801.04953    135194.79   -41737.437    2535.0664   -44272.503    15.108237   0.92380404 
   20100    204.53904   -841.56885    135151.25    -41713.26    2544.8545   -44258.115    15.159358   0.92410167 
   20200    206.67143   -850.65427    135128.64   -41747.949    2571.3855   -44319.334    15.181428   0.92425626 
   20300    200.26833   -910.65456    135078.01    -41776.45    2491.7188   -44268.169    15.183958   0.92460266 
   20400    204.29673   -757.50866     135009.4   -41756.653    2541.8397   -44298.493    15.170248   0.92507253 
   20500     206.7698    -777.1227    135054.38   -41729.448    2572.6094   -44302.058    15.258999   0.92476448 
   20600    205.94609   -768.60401    135097.89   -41746.321    2562.3609   -44308.682    15.274845   0.92446664 
   20700    206.07414   -835.50081    134984.19   -41694.683     2563.954   -44258.637    15.300435   0.92524536 
   20800    203.46856   -768.80691    134978.41   -41687.439    2531.5357   -44218.975    15.406885   0.92528497 
   20900    207.82914   -754.25473    135121.89   -41709.624    2585.7896   -44295.413    15.456256    0.9243024 
   21000    202.96361   -756.84047    135055.58   -41798.079    2525.2532   -44323.332    15.486161   0.92475621 
   21100     202.1874   -740.68422    135102.97   -41816.744    2515.5957    -44332.34    15.382977   0.92443186 
   21200    202.42071   -843.30504    135124.07   -41780.637    2518.4985   -44299.136     15.45712   0.92428749 
   21300    201.44285   -813.34934    135216.56    -41792.33     2506.332   -44298.662    15.549771   0.92365528 
   21400    202.64357   -1000.2797    135133.42   -41756.558    2521.2713   -44277.829    15.504052   0.92422355 
   21500    205.59704   -774.31436    135089.74    -41740.26     2558.018   -44298.278    15.610631   0.92452237 
   21600    205.53585   -831.67229    135122.16   -41692.676    2557.2567   -44249.932    15.513526   0.92430058 
   21700    204.89105   -733.95688    135182.61   -41666.419    2549.2342   -44215.653    15.516657   0.92388729 
   21800    205.94771   -711.46725    135269.86   -41657.231    2562.3811   -44219.612    15.426444   0.92329136 
   21900     208.0125   -790.94496    135270.82   -41677.818     2588.071   -44265.889     15.41774   0.92328482 
   22000    208.46367   -956.56228    135273.36   -41712.522    2593.6844   -44306.206    15.546072   0.92326747 
   22100     204.6413   -877.96975    135373.29   -41670.094    2546.1268   -44216.221    15.659498   0.92258593 
   22200    205.28535   -736.12188    135335.17   -41703.612      2554.14   -44257.752    15.638728   0.92284576 
   22300     206.6189   -957.53235     135433.1    -41677.11    2570.7319   -44247.842    15.612813   0.92217849 
   22400    207.31906   -677.67449    135464.93   -41644.942    2579.4433   -44224.386    15.634331   0.92196179 
   22500    206.90431   -978.24804    135739.63   -41646.834    2574.2829   -44221.117    15.769261   0.92009597 
   22600    209.87248   -933.15968    135734.03   -41625.701    2611.2126   -44236.914    15.711516   0.92013394 
   22700    207.79946    -859.4714    135597.92     -41637.1    2585.4203    -44222.52    15.794503   0.92105755 
   22800    209.43134   -839.23544     135697.8   -41635.239     2605.724   -44240.963    15.892984   0.92037966 
   22900    206.72987   -716.48813    135704.03   -41686.202    2572.1127   -44258.315     15.89834   0.92033736 
   23000    207.02707   -1007.2623    135615.26    -41671.75    2575.8103    -44247.56    15.785363   0.92093984 
   23100    201.44745   -817.76201    135647.44    -41774.24    2506.3893   -44280.629    15.815068   0.92072136 
   23200    204.77044    -914.8708    135404.58   -41718.341    2547.7336   -44266.075    15.857559   0.92237273 
   23300    204.29334   -778.04838    135407.83   -41755.043    2541.7975   -44296.841    15.825076   0.92235057 
   23400    208.24088   -884.21928    135391.81   -41697.876    2590.9125   -44288.789    15.845769    0.9224597 
   23500    204.85529   -887.41811    135300.27   -41723.178    2548.7893   -44271.968    15.893692   0.92308383 
   23600    206.96139   -798.73892    135383.43   -41715.328    2574.9931   -44290.321    15.972977   0.92251681 
   23700     205.7447   -880.08454    135536.12   -41741.545    2559.8552     -44301.4    15.911831   0.92147752 
   23800    202.43503   -821.83025    135447.11   -41805.778    2518.6766   -44324.455    15.888328   0.92208307 
   23900    205.66635   -921.71209    135404.02   -41804.652    2558.8804   -44363.532    15.926012   0.92237657 
   24000    205.85211   -849.87059     135388.2   -41746.457    2561.1916   -44307.648    16.007049   0.92248433 
   24100    207.72055   -875.55004    135435.33   -41753.623    2584.4385   -44338.062     16.02342   0.92216327 
   24200    204.02114   -903.23943    135441.77   -41810.727    2538.4109   -44349.138    16.040103   0.92211946 
   24300    201.94973   -749.58971    135419.58   -41780.982    2512.6385   -44293.621    15.866152   0.92227058 
   24400    201.75621   -793.97912    135509.04    -41830.66    2510.2308   -44340.891    16.049701   0.92166171 
   24500    203.81039   -873.70097    135642.77   -41786.523    2535.7888   -44322.312    16.033363   0.92075305 
   24600    202.36118   -843.11561    135564.96   -41777.757    2517.7578   -44295.515    16.043251   0.92128154 
   24700    204.98068   -868.18898    135718.03   -41773.257    2550.3493   -44323.606    16.057709   0.92024244 
   24800    205.30478   -687.74022    135698.72   -41780.134    2554.3818   -44334.515    16.212097   0.92037337 
   24900    206.66135   -699.63579    135661.86   -41742.011    2571.2601   -44313.271    16.143096   0.92062346 
   25000    205.02982   -995.42664    135625.36   -41727.313    2550.9607   -44278.274    16.290129   0.92087121 
   25100    204.37645   -840.20984    135587.91   -41731.875    2542.8316   -44274.707    16.056137   0.92112557 
   25200    205.76113    -956.9936    135562.97   -41762.802    2560.0597   -44322.861    16.087463   0.92129507 
   25300    205.31456   -859.21828    135540.18   -41778.504    2554.5035   -44333.007    16.156077   0.92144994 
   25400    205.09003   -752.35215    135629.77   -41777.802    2551.7099   -44329.512    16.151047   0.92084128 
   25500    204.83946   -826.00016    135463.95   -41744.573    2548.5923   -44293.166    16.217509   0.92196846 
   25600    205.39619   -689.70647    135622.91   -41798.904    2555.5191   -44354.423    16.206205   0.92088785 
   25700    204.74998   -735.31248    135558.43    -41823.41     2547.479   -44370.889    16.091184   0.92132587 
   25800    206.92266   -679.58791     135693.1    -41799.12    2574.5112   -44373.631     16.17104    0.9204115 
   25900     205.5231   -953.01544     135726.8    -41767.81     2557.098   -44324.908    16.284367   0.92018295 
   26000    204.86259   -952.91054    135851.27   -41690.865    2548.8801   -44239.745    16.268574   0.91933992 
   26100    204.25386   -906.10467    135911.45   -41765.882    2541.3063   -44307.188    16.278305   0.91893284 
   26200    204.62912   -844.30788    135776.26   -41759.978    2545.9753   -44305.954    16.273608   0.91984779 
   26300    206.70865   -794.32607    135778.11   -41730.654    2571.8486   -44302.503     16.21969   0.91983527 
   26400    207.32757   -905.29756    135747.79   -41735.587    2579.5491   -44315.136    16.307154   0.92004067 
   26500    206.43774   -799.15177    135968.39   -41788.131     2568.478   -44356.609    16.270703     0.918548 
   26600    204.70682   -819.10875    135882.05   -41824.877    2546.9421   -44371.819     16.25674   0.91913165 
   26700    204.14085   -838.61628    135833.64   -41840.286    2539.9003   -44380.186    16.247563   0.91945923 
   26800    205.64976   -826.53435    135821.19   -41778.295     2558.674   -44336.969    16.262573   0.91954352 
   26900     202.5351   -961.70852    135645.39   -41778.305    2519.9217   -44298.226    16.337624   0.92073526 
   27000    202.42696   -851.86853    135902.06   -41821.373    2518.5763    -44339.95    16.546206   0.91899632 
   27100     205.6383   -788.79381     136079.3   -41827.197    2558.5314   -44385.729    16.429045   0.91779931 
   27200    202.09472    -776.7439    136148.88   -41842.459    2514.4426   -44356.902    16.480064   0.91733031 
   27300    199.85387   -960.41905    136090.18   -41868.762    2486.5622   -44355.324    16.470427   0.91772596 
   27400    201.91616   -909.99144     136045.3    -41821.91    2512.2209   -44334.131    16.347505   0.91802871 
   27500     205.5784   -718.23538    136121.91   -41758.516    2557.7861   -44316.302    16.453587   0.91751201 
   27600     207.6855   -920.93579    135984.99   -41784.251    2584.0025   -44368.254    16.491545   0.91843587 
   27700    203.86188   -698.81066     135997.9   -41781.764    2536.4294   -44318.194    16.463289   0.91834865 
   27800    210.49019   -1002.5742    135965.33   -41715.004    2618.8982   -44333.902    16.429043   0.91856864 
   27900    206.94654   -856.13732    135995.29   -41744.479    2574.8084   -44319.287    16.520499   0.91836627 
   28000    202.91867   -797.17598    135887.56   -41795.816     2524.694    -44320.51    16.521031   0.91909434 
   28100    205.37348   -876.73047    136071.21   -41748.846    2555.2366   -44304.083    16.540421   0.91785391 
   28200    203.78455   -853.65969    136167.62   -41800.285    2535.4673   -44335.752    16.539254   0.91720407 
   28300    203.84554   -826.43136    135933.59     -41790.1     2536.226   -44326.326    16.574993   0.91878315 
   28400    199.77058   -956.29526    135873.43     -41846.3    2485.5259   -44331.826     16.63141   0.91918994 
   28500    199.53101   -853.25101    135854.66   -41858.271    2482.5451   -44340.816    16.620426   0.91931698 
   28600    204.58698   -923.12318    135833.96   -41824.969     2545.451    -44370.42    16.560145   0.91945707 
   28700    203.66251   -901.83581    135870.22   -41825.384    2533.9489   -44359.333    16.571572   0.91921164 
   28800    207.42113   -832.95448    135937.98   -41795.956    2580.7131   -44376.669    16.662105    0.9187535 
   28900    203.96775    -981.1684    135637.43   -41765.481    2537.7466   -44303.227    16.626709   0.92078929 
   29000    203.78345   -785.89722    135618.98   -41821.408    2535.4536   -44356.861    16.694073   0.92091452 
   29100    204.07153   -836.94653    135601.02   -41768.835    2539.0378   -44307.873    16.806512   0.92103648 
   29200    207.51707    -904.8178    135672.47   -41728.891    2581.9068   -44310.798    16.722928   0.92055146 
   29300    207.31973   -860.45537    135683.77   -41799.739    2579.4516    -44379.19    16.725138   0.92047478 
   29400    202.45497     -786.231    135760.52   -41836.854    2518.9248   -44355.779     16.74753   0.91995442 
   29500    202.43275   -813.52482     135683.3   -41857.087    2518.6483   -44375.735    16.631878   0.92047801 
   29600     202.2224   -792.69391    135702.98   -41772.756    2516.0311   -44288.787    16.661268   0.92034452 
   29700    203.80934   -718.93742    135686.96   -41818.144    2535.7757    -44353.92    16.676487   0.92045315 
   29800    204.62036   -859.85747    135796.66   -41811.066    2545.8663   -44356.933    16.831952   0.91970958 
   29900    206.11013   -875.46511    135823.86   -41834.005    2564.4019   -44398.406      16.7415   0.91952542 
   30000    202.56905   -880.84143    135784.14    -41828.25    2520.3441   -44348.595    16.635479   0.91979437 
   30100     206.0499   -799.03263    135744.89   -41814.084    2563.6525   -44377.736    16.593569   0.92006038 
   30200    204.43702   -818.77839    135692.11   -41816.221    2543.5852   -44359.807    16.663835   0.92041825 
   30300    204.01457   -819.62337    135777.33   -41770.431    2538.3291    -44308.76    16.871794   0.91984053 
   30400    205.61589   -948.75766    135752.68   -41754.045    2558.2526   -44312.297    16.938064   0.92000754 
   30500    200.81788   -971.67389    135686.36   -41761.538    2498.5562   -44260.094    16.855316   0.92045726 
   30600     208.2674   -839.67438    135623.46   -41755.201    2591.2424   -44346.444    16.812078   0.92088415 
   30700    199.50462   -893.22345    135701.84   -41775.946    2482.2168   -44258.163    17.055048   0.92035222 
   30800    206.94043   -705.87488    135824.87   -41719.326    2574.7323   -44294.059     16.84905   0.91951858 
   30900     203.2339   -907.84477    135854.51   -41830.569    2528.6161   -44359.185    17.108174   0.91931798 
   31000    204.74382   -850.20145    135887.96   -41874.244    2547.4023   -44421.646    16.982839   0.91909169 
   31100    201.82486   -867.83126    135797.88   -41873.826    2511.0849   -44384.911     16.97086   0.91970134 
   31200    202.44973   -928.68967    135778.86   -41880.445    2518.8595   -44399.304     17.14052   0.91983015 
   31300    204.31227   -835.12992    135858.27   -41834.655    2542.0331   -44376.688    17.032828   0.91929251 
   31400     205.3005   -804.59754     135948.6    -41795.07    2554.3285   -44349.398    17.094628   0.91868172 
   31500    201.31591   -796.58981    136000.84   -41832.742    2504.7527   -44337.495      17.0387   0.91832881 
   31600    206.76538   -950.68517    135882.04   -41766.437    2572.5544   -44338.991    16.962587   0.91913171 
   31700    203.63866   -914.93418    135890.99   -41802.752    2533.6521   -44336.404    17.043705    0.9190712 
   31800    203.68721   -812.10922    135968.19   -41743.804    2534.2561    -44278.06    17.136863   0.91854931 
   31900    206.55561   -862.09102    135842.11   -41731.378    2569.9445   -44301.323    17.082995   0.91940191 
   32000    209.50914   -793.03841    135781.03   -41725.101     2606.692   -44331.793    17.054897   0.91981549 
   32100    203.64867   -906.98199    135712.86    -41744.01    2533.7766   -44277.786    17.063127   0.92027753 
   32200    206.96899   -969.37503    135709.78   -41736.728    2575.0877   -44311.815    16.807626   0.92029837 
   32300    207.57614   -891.68776     135681.5   -41710.607    2582.6418   -44293.248    16.948658   0.92049019 
   32400    207.59097   -783.78073    135839.65   -41769.305    2582.8263   -44352.131    17.148303   0.91941851 
   32500    205.34337    -875.7544     135914.6   -41764.379    2554.8619   -44319.241    17.151965   0.91891153 
   32600    207.27636   -952.12015    135768.63    -41718.49     2578.912   -44297.402    17.080411   0.91989947 
   32700    206.68209   -854.47926     135810.5   -41780.976    2571.5182   -44352.494    17.026227    0.9196159 
   32800    202.01047    -838.5771    136004.95   -41802.116    2513.3943    -44315.51    17.135523   0.91830109 
   32900    205.06681   -822.36785    136000.87   -41815.006     2551.421   -44366.427    17.185147   0.91832862 
   33000    202.01977   -880.91937    136015.17   -41869.501      2513.51   -44383.011    17.173701   0.91823209 
   33100    203.38087   -719.77531    136020.17   -41800.272    2530.4447   -44330.716    17.245635   0.91819831 
   33200    203.47618   -872.78383       136000   -41827.382    2531.6305   -44359.012    17.228355   0.91833453 
   33300    207.66848    -764.9603    136232.02   -41768.996    2583.7907   -44352.787    17.183022   0.91677043 
   33400    198.89674    -885.5739    136013.05   -41838.745    2474.6536   -44313.399    17.219379   0.91824642 
   33500    207.65579   -797.78352    135997.57   -41804.041    2583.6328   -44387.674     17.30608   0.91835092 
   33600     205.2246   -897.69297    136099.26   -41776.386    2553.3842    -44329.77    17.244689   0.91766472 
   33700    203.19152   -940.06946    135985.26   -41762.719    2528.0889   -44290.808    17.178651   0.91843407 
   33800    207.39065    -745.9243    135758.94   -41761.058     2580.334   -44341.392    17.135627   0.91996514 
   33900    205.35786   -800.62804    135823.96   -41771.145    2555.0422   -44326.187    17.184381   0.91952471 
   34000    210.17474   -884.66411    135734.93   -41733.752    2614.9733   -44348.725      17.3591   0.92012788 
   34100    201.93091   -921.78154     135762.9   -41775.065    2512.4044   -44287.469    17.400864   0.91993828 
   34200    203.30886   -876.26221    135635.75   -41785.936    2529.5488   -44315.484    17.379693   0.92080066 
   34300    200.60129   -841.47977    135693.21     -41839.9    2495.8614   -44335.761     17.33597   0.92041076 
   34400    207.18362   -853.88152    135794.09    -41778.88    2577.7582   -44356.638    17.429498   0.91972697 
   34500    200.20713   -935.76266    135785.19   -41804.504    2490.9573   -44295.461    17.365209   0.91978731 
   34600    204.34018   -792.82186    135746.39   -41792.198    2542.3803   -44334.578    17.368369    0.9200502 
   34700    200.45702   -856.58707    135903.65   -41871.338    2494.0664   -44365.404    17.475101   0.91898557 
   34800     205.2167   -811.67569    135839.84   -41869.135    2553.2859   -44422.421    17.226844   0.91941727 
   34900    200.95714   -840.43001    135952.61   -41870.283    2500.2889   -44370.572    17.184488   0.91865458 
   35000    198.61846   -898.90266    136064.87   -41947.293    2471.1912   -44418.484    17.395529   0.91789668 
   35100    204.18913   -845.40092    135976.31   -41887.994     2540.501   -44428.495    17.430331   0.91849452 
   35200    200.42459   -980.89584    135997.32   -41884.385    2493.6629   -44378.048    17.470779   0.91835258 
   35300      204.429   -772.61227    135967.37   -41874.672    2543.4854   -44418.158    17.510109   0.91855488 
   35400    202.84816    -914.5421    135815.28   -41894.153    2523.8167    -44417.97     17.43237   0.91958347 
   35500    203.87011   -733.74639     136000.4   -41804.557    2536.5317   -44341.089    17.418662    0.9183318 
   35600    202.96229   -800.95464     135914.7   -41837.628    2525.2367   -44362.864    17.312478   0.91891081 
   35700    204.00243   -796.54154    135979.19   -41809.475    2538.1781   -44347.653    17.319598   0.91847503 
   35800    206.21096   -845.00482    136085.93   -41837.742    2565.6564   -44403.398    17.392542   0.91775462 
   35900    204.12967   -845.96913    136126.53     -41796.8    2539.7612   -44336.561    17.591338   0.91748087 
   36000     206.0737   -829.79845    136198.76    -41752.98    2563.9486   -44316.929    17.495047   0.91699435 
   36100    203.95834   -780.20881     136178.4   -41776.426    2537.6295   -44314.055    17.443534   0.91713141 
   36200    204.77379   -748.91447    136205.17   -41797.703    2547.7753   -44345.479    17.447897   0.91695118 
   36300    204.80958   -930.33045     136319.8   -41854.093    2548.2206   -44402.313    17.630814   0.91618014 
   36400    205.14621   -864.14288    136281.38   -41795.924    2552.4088   -44348.333    17.714499   0.91643838 
   36500    207.24659   -864.19097    136264.42   -41782.989    2578.5416    -44361.53    17.746974   0.91655246 
   36600    201.10571   -889.62078    136218.05   -41906.398    2502.1374   -44408.535    17.627968   0.91686451 
   36700    205.43012   -931.19851    136061.83   -41855.946    2555.9413   -44411.887    17.701946    0.9179172 
   36800    206.01205   -751.64662     135970.7    -41856.46    2563.1815   -44419.642    17.528696   0.91853241 
   36900    202.44169    -948.6519    135995.04   -41858.036    2518.7595   -44376.795    17.624228   0.91836799 
   37000    208.86137   -665.71586    136063.34   -41796.773    2598.6326   -44395.405    17.549935     0.917907 
   37100     206.8677   -833.69426    136021.36   -41784.288    2573.8275   -44358.115    17.584509    0.9181903 
   37200    204.42733   -912.37239     135982.9   -41832.349    2543.4646   -44375.814    17.671935   0.91844999 
   37300    205.39704   -767.47533    136083.65   -41841.809    2555.5297   -44397.339    17.670052   0.91776999 
   37400    202.41231   -895.80821    136090.27   -41871.706    2518.3939     -44390.1    17.715433   0.91772534 
   37500    199.50669   -883.83005     136022.7   -41881.158    2482.2425   -44363.401    17.558906   0.91818122 
   37600    203.67669   -926.48004    135992.57   -41839.192    2534.1253   -44373.317    17.712813   0.91838468 
   37700    201.98158   -917.02307    136000.12   -41850.461    2513.0348   -44363.496    17.775934   0.91833372 
   37800     200.3315   -815.99419    136071.19    -41941.88    2492.5048   -44434.385    17.762704   0.91785405 
   37900    204.53092   -821.43941    135982.12   -41914.247    2544.7535   -44459.001    17.750275   0.91845523 
   38000    199.85603   -796.81343    136054.15   -41887.053     2486.589   -44373.642    17.746871   0.91796896 
   38100    208.45321   -805.16516    135970.78   -41843.507    2593.5543   -44437.061    17.660306   0.91853183 
   38200    206.03331   -850.20396    135939.12   -41859.933    2563.4461   -44423.379    17.706779    0.9187458 
   38300    206.68285   -836.28272    135944.04   -41811.994    2571.5276   -44383.521    17.780864   0.91871251 
   38400    203.86718   -813.89913    135861.88    -41873.19    2536.4953   -44409.686    17.710332   0.91926811 
   38500    203.63251   -786.60385     136017.4   -41893.862    2533.5755   -44427.438    17.777381   0.91821704 
   38600    206.79596     -741.466    136026.53   -41854.643    2572.9348   -44427.578    17.752831   0.91815539 
   38700    203.49562   -845.47089    136180.96    -41858.01    2531.8724   -44389.882    17.933256   0.91711418 
   38800    204.81803   -900.50541    136152.95   -41868.919    2548.3257   -44417.245    17.781386   0.91730285 
   38900    206.17233   -835.31989     136041.4   -41832.882    2565.1758   -44398.058    17.785624   0.91805505 
   39000    204.83276   -834.17892    135832.08   -41857.791     2548.509     -44406.3    17.913905   0.91946979 
   39100     203.7931   -875.42609    135930.18   -41822.979    2535.5736   -44358.553    17.971624   0.91880621 
   39200    208.57948   -693.15678    135789.34   -41859.014    2595.1252   -44454.139    17.850288    0.9197592 
   39300    204.60081   -751.81328    135878.63   -41857.447     2545.623    -44403.07    17.820416   0.91915476 
   39400    205.60287   -890.43365    135976.25   -41841.098    2558.0906   -44399.189    17.752862   0.91849488 
   39500    207.56119    -787.1095     136006.8   -41816.957    2582.4558   -44399.413    17.745191   0.91828857 
   39600    204.26505   -810.84674    136113.47   -41852.917    2541.4456   -44394.363    17.881822   0.91756896 
   39700    207.59286   -784.50235    136210.19   -41812.596    2582.8498   -44395.446    18.074674   0.91691739 
   39800    205.60733   -875.95831     136175.2   -41877.461    2558.1461   -44435.608    18.090772   0.91715302 
   39900     201.4871   -980.38972    136166.79    -41924.75    2506.8826   -44431.633    17.969202   0.91720965 
   40000    203.98709   -831.77608    136232.98   -41946.552    2537.9872   -44484.539    17.942988     0.916764 
   40100     205.4464   -853.40182    136215.19   -41870.655    2556.1438   -44426.799    17.786361   0.91688374 
   40200    204.36476   -887.63557    136288.26   -41876.796    2542.6861   -44419.482    17.811041   0.91639215 
   40300    209.92474   -786.43937    136346.89   -41876.028    2611.8629   -44487.891    17.951601   0.91599806 
   40400    212.25499   -802.88875    136265.05   -41795.052    2640.8556   -44435.907    18.156519   0.91654822 
   40500    206.18374   -912.61781     136302.3   -41802.339    2565.3177   -44367.656    18.074552   0.91629777 
   40600    207.66433   -878.57406    136282.06   -41848.727     2583.739   -44432.466    18.059803   0.91643385 
   40700    206.24948   -890.08503    136257.51   -41896.338    2566.1357   -44462.473    17.975672   0.91659895 
   40800    203.61441    -961.1969    136196.16   -41931.248    2533.3503   -44464.598    18.048495   0.91701186 
   40900     201.8517   -911.97559       136100   -41954.403    2511.4189   -44465.822    18.081837   0.91765977 
   41000    203.55805   -726.83666    136167.87   -41870.269    2532.6491   -44402.918    18.184477   0.91720238 
   41100    205.05543   -1006.8578    136144.23   -41857.763    2551.2793   -44409.042    18.134649    0.9173616 
   41200    207.54243   -891.25018    136260.55   -41861.511    2582.2225   -44443.733    18.209519    0.9165785 
   41300    205.70303   -774.97047    136321.37   -42005.671    2559.3367   -44565.008    18.077286   0.91616955 
   41400    200.92996   -872.33645    136362.76   -41963.363    2499.9507   -44463.314    18.047939    0.9158915 
   41500    199.52054   -958.22095    136400.53   -41961.713    2482.4149   -44444.128    18.029485   0.91563785 
   41600    200.55563   -907.84632    136418.32   -41921.102    2495.2933   -44416.395     18.00364   0.91551845 
   41700    205.45373   -894.74375    136480.79   -41910.736     2556.235   -44466.971    18.174732   0.91509941 
   41800    204.27833   -969.53574    136468.67   -41926.606    2541.6107   -44468.217    18.195467   0.91518068 
   41900    202.82392   -763.57628    136463.34   -41913.998    2523.5152   -44437.513    18.107422   0.91521641 
   42000    206.03776   -911.02772    136614.47   -41904.968    2563.5015    -44468.47    18.093074   0.91420395 
   42100    205.45819   -846.00927    136556.83   -41896.807    2556.2905   -44453.098    18.040828   0.91458984 
   42200    210.24765     -764.793    136481.29   -41850.255    2615.8804   -44466.136    18.090223   0.91509603 
   42300    207.59983   -815.46364    136482.94   -41836.682    2582.9366   -44419.619    18.091675   0.91508502 
   42400    204.40507   -907.10404    136560.84   -41871.214    2543.1877   -44414.402    18.118804     0.914563 
   42500    203.87365   -828.01316    136503.08   -41869.757    2536.5758   -44406.333    18.139661   0.91494996 
   42600    204.46404   -854.98266    136484.89   -41872.098    2543.9214   -44416.019    18.174847   0.91507194 
   42700    205.63247   -820.39702    136498.54    -41862.95    2558.4589   -44421.408    18.164453    0.9149804 
   42800    204.40963   -763.50637    136683.98     -41820.8    2543.2444   -44364.044    18.234867   0.91373908 
   42900    203.81728   -876.97437    136630.59   -41882.257    2535.8745   -44418.131     18.11511   0.91409613 
   43000     204.4473   -878.15882     136574.6   -41901.914    2543.7131   -44445.627     18.13925   0.91447085 
   43100    205.60887   -773.38937    136503.03   -41881.911    2558.1652   -44440.076    18.280379   0.91495033 
   43200    207.30909   -907.01764    136320.34   -41838.938    2579.3192   -44418.257    18.272844   0.91617647 
   43300    206.28223   -698.68624    136330.42   -41842.439    2566.5432   -44408.983    18.274969   0.91610878 
   43400    206.68946    -888.2809    136366.33    -41802.76    2571.6098    -44374.37     18.20255   0.91586752 
   43500    208.12169   -881.88727    136317.07   -41812.011    2589.4295   -44401.441    18.223724   0.91619846 
   43600    209.85372   -768.09009     136281.2   -41733.626    2610.9792   -44344.606    18.293469    0.9164396 
   43700     213.1493   -803.51433    136274.41   -41760.472    2651.9825   -44412.454    18.301135    0.9164853 
   43800    207.27097   -869.73212     136131.9   -41786.082     2578.845   -44364.927    18.093229   0.91744471 
   43900    205.87158   -774.26938    136249.23   -41829.018    2561.4338   -44390.451    18.256816   0.91665463 
   44000    205.21359   -801.47708    136181.22   -41857.228    2553.2472   -44410.475    18.243468   0.91711245 
   44100    206.34002   -908.79298     136275.6   -41877.583    2567.2622   -44444.845    18.282555   0.91647726 
   44200    202.62203   -795.04236    136157.91   -41909.185    2521.0033   -44430.188     18.28396   0.91726947 
   44300    200.22467   -675.77776    136194.53   -41913.861    2491.1756   -44405.036    18.275289    0.9170228 
   44400    206.61397    -847.2201    136358.31   -41875.972    2570.6706   -44446.643      18.3713    0.9159214 
   44500    201.36341   -881.24247    136439.69   -41902.259    2505.3436   -44407.602    18.534986   0.91537504 
   44600    200.62384   -809.99664    136303.23   -41952.631     2496.142   -44448.773    18.454849    0.9162915 
   44700    203.36638   -867.82243    136214.63   -41932.787    2530.2644   -44463.052    18.342413   0.91688748 
   44800    207.65873   -845.68915    136169.25   -41896.411    2583.6694    -44480.08    18.237366   0.91719308 
   44900     209.4701   -933.26614    136296.97   -41857.807    2606.2063   -44464.013    18.332739   0.91633359 
   45000    204.62159    -901.1574    136236.97   -41860.466    2545.8816   -44406.347    18.417328   0.91673714 
   45100    209.79702   -866.01149     136199.4   -41826.881    2610.2738   -44437.155    18.428055   0.91698999 
   45200    203.36015   -985.99938    136270.66   -41886.529    2530.1869   -44416.716    18.359727   0.91651048 
   45300     203.3611   -773.93181    136231.75   -41888.396    2530.1987   -44418.594    18.298888   0.91677228 
   45400    206.89571   -843.77213    136216.03   -41879.633     2574.176   -44453.809    18.286739   0.91687806 
   45500    206.90099   -926.07892    136178.49   -41883.808    2574.2417   -44458.049    18.324539   0.91713082 
   45600    207.81851   -820.07003    136103.88   -41898.845    2585.6574   -44484.502    18.289694   0.91763356 
   45700    203.67699   -833.65848    136226.07    -41894.15    2534.1289   -44428.279    18.442239   0.91681053 
   45800     207.2332   -828.54877    136322.68   -41862.381    2578.3749   -44440.756    18.429514   0.91616074 
   45900    206.08333   -817.39295    136328.55    -41796.93    2564.0684   -44360.999    18.497894   0.91612133 
   46000    205.46602   -827.15628     136549.5   -41780.502    2556.3879    -44336.89    18.492621   0.91463894 
   46100     212.6271   -708.37016    136532.23   -41732.249    2645.4853   -44377.735     18.46409   0.91475466 
   46200    209.63234   -870.43644    136510.71   -41735.639    2608.2248   -44343.864    18.552383   0.91489884 
   46300    208.06414   -985.65426    136312.35   -41758.577    2588.7135   -44347.291    18.550763   0.91623022 
   46400    206.25496   -778.91337    136414.81   -41787.608    2566.2038   -44353.811    18.589943   0.91554205 
   46500    207.92717    -886.0947     136484.2   -41794.007    2587.0093   -44381.016    18.671619   0.91507656 
   46600    211.28166   -913.34348    136326.02   -41794.404    2628.7455    -44423.15    18.630292   0.91613831 
   46700    202.81351   -894.67411    136233.36   -41856.965    2523.3856   -44380.351    18.417189   0.91676146 
   46800    207.37286   -846.29447    136138.69   -41897.211    2580.1126   -44477.324    18.492052   0.91739892 
   46900    207.32801   -799.68486    136169.64   -41832.374    2579.5546   -44411.929    18.584204   0.91719042 
   47000    205.09767    -888.1632    136137.67   -41808.022    2551.8049   -44359.827    18.610493   0.91740583 
   47100    209.30039   -804.91773    136238.69   -41790.544    2604.0948   -44394.639     18.69013   0.91672556 
   47200     206.5993     -664.657    136199.34   -41850.506     2570.488   -44420.994    18.587571   0.91699041 
   47300    205.50314   -751.64027    136327.44   -41869.005    2556.8498   -44425.855    18.657242   0.91612875 
   47400    209.40732   -769.74069    136307.07   -41828.172    2605.4252   -44433.597    18.611208   0.91626567 
   47500    209.37015   -718.50958     136291.8   -41779.084    2604.9628   -44384.047    18.665278   0.91636838 
   47600    209.61921   -959.78365    136387.06   -41751.003    2608.0615   -44359.065    18.744883   0.91572832 
   47700    209.70985   -835.03193    136406.75   -41801.118    2609.1892   -44410.308    18.762604   0.91559615 
   47800    209.30997   -969.07979    136378.15   -41812.592     2604.214   -44416.806    18.935753   0.91578813 
   47900    203.71524   -848.58237    136320.58   -41881.337    2534.6049   -44415.942    18.811626    0.9161749 
   48000     202.4282   -875.48743    136346.22   -41900.196    2518.5917   -44418.788    18.725534   0.91600256 
   48100    206.65925   -896.34548    136345.88   -41871.768     2571.234   -44443.002    18.800718   0.91600485 
   48200    204.42944   -915.45574    136279.72   -41900.581    2543.4908   -44444.072    18.925916   0.91644959 
   48300    204.44762   -753.94306    136337.55   -41884.514    2543.7171   -44428.231    18.938561   0.91606082 
   48400    209.27242   -830.78569     136485.1   -41815.271    2603.7468   -44419.018    19.070927    0.9150705 
   48500    207.93542   -938.13879    136569.32   -41881.268     2587.112    -44468.38    19.139228   0.91450619 
   48600    205.61101   -871.23826    136404.69   -41882.787    2558.1919   -44440.979    19.069998   0.91560998 
   48700    206.04562   -968.13609    136384.58   -41857.978    2563.5992   -44421.577    18.982959   0.91574496 
   48800    206.35832   -837.16527    136372.47   -41892.145    2567.4898   -44459.635    18.854857   0.91582629 
   48900    203.69321   -959.15926    136392.51   -41888.037    2534.3308   -44422.368    18.889493   0.91569169 
   49000    204.84691   -848.76653    136482.94   -41918.827     2548.685   -44467.512     19.16642   0.91508497 
   49100    208.13158   -891.91361    136459.84   -41921.237    2589.5526   -44510.789    19.176844   0.91523988 
   49200    202.90385   -892.50089    136393.49   -41931.298    2524.5096   -44455.808    19.193025   0.91568514 
   49300    202.38214   -906.15494    136509.38   -41892.305    2518.0186   -44410.323    19.155674   0.91490775 
   49400    207.76759   -993.48582     136385.8   -41856.491    2585.0238   -44441.515    19.143624   0.91573676 
   49500    207.63087   -771.22717     136392.9   -41885.272    2583.3228   -44468.594    19.049802   0.91568908 
   49600    203.14806   -851.94165    136324.85   -41868.715    2527.5481   -44396.263     19.00592   0.91614618 
   49700    207.50284   -936.52758    136303.27   -41902.086    2581.7299   -44483.816    19.101622    0.9162912 
   49800    202.15715    -819.9014    136288.89   -41947.054    2515.2193   -44462.274    19.239281   0.91638789 
   49900     209.8009   -917.36184    136281.82   -41841.948    2610.3221    -44452.27    19.226525   0.91643544 
   50000    204.58125   -789.59641    136147.17   -41883.086    2545.3797   -44428.466    19.191707   0.91734181 
   50100    206.76997   -861.78514    136186.44    -41880.13    2572.6116   -44452.742    19.268264   0.91707727 
   50200    206.80314   -766.60712    136157.43   -41915.655    2573.0242   -44488.679    19.244989    0.9172727 
   50300    205.87808   -766.94647    136206.83   -41891.408    2561.5147   -44452.922    19.274602      0.91694 
   50400    205.80377   -728.81958    136332.25   -41924.642    2560.5902   -44485.233    19.246994   0.91609648 
   50500    202.62305   -833.66564    136282.16   -41963.654    2521.0159    -44484.67    19.318496   0.91643317 
   50600    199.61589   -871.14619    136311.69   -41973.076    2483.6012   -44456.677    19.277209   0.91623466 
   50700    199.44995   -746.73863    136396.41    -41974.98    2481.5365   -44456.516    19.162172   0.91566554 
   50800    208.25853   -809.45047    136387.91   -41975.329     2591.132   -44566.461    19.215424   0.91572259 
   50900    203.14706   -827.31295    136328.49   -41901.255    2527.5356   -44428.791    19.242904   0.91612171 
   51000    204.33241    -861.7071    136391.36   -41917.061    2542.2836   -44459.345    19.370397   0.91569946 
   51100    205.21405    -984.9954    136431.76   -41954.165    2553.2529   -44507.418    19.318671   0.91542828 
   51200    203.31003   -854.67347    136377.54   -41917.967    2529.5633    -44447.53    19.235049    0.9157922 
   51300    203.17513   -943.52642    136306.25    -41981.98    2527.8848   -44509.865    19.226076    0.9162712 
   51400     201.7852   -856.22806    136274.88   -41982.653    2510.5915   -44493.245     19.20517   0.91648211 
   51500    199.76259   -796.05825    136269.74   -41995.157    2485.4264   -44480.584     19.25161   0.91651666 
   51600    204.15205   -906.32299    136323.65   -41937.857    2540.0397   -44477.897    19.427693   0.91615425 
   51700    207.40193   -775.94959    136402.72   -41945.576    2580.4743    -44526.05    19.408539   0.91562317 
   51800    204.73038   -814.21358    136381.63   -41989.517    2547.2352   -44536.752    19.480445   0.91576476 
   51900    207.03666   -830.75083    136409.11   -42041.694    2575.9297   -44617.624    19.414737   0.91558026 
   52000    201.43967     -878.275    136312.58   -42059.868    2506.2924   -44566.161     19.38126   0.91622866 
   52100    201.58758   -852.78472    136229.46   -41991.082    2508.1328   -44499.215    19.282803   0.91678767 
   52200     201.1434   -867.90011    136273.82   -42008.769    2502.6063   -44511.376    19.348006   0.91648923 
   52300    203.66435   -846.59157    136341.52   -41994.897    2533.9718   -44528.869    19.276831   0.91603415 
   52400    203.49543   -853.40916    136351.27   -41938.561      2531.87   -44470.431    19.455852   0.91596869 
   52500    204.18836   -891.27918    136290.58   -41922.042    2540.4914   -44462.533    19.452858   0.91637656 
   52600    206.23559   -801.87021    136127.96   -41956.214    2565.9628   -44522.177    19.452554   0.91747127 
   52700    204.98019     -709.299    136042.09    -41978.04    2550.3432   -44528.383    19.476597   0.91805038 
   52800    204.95447   -790.93364    136217.37   -41932.337    2550.0232   -44482.361    19.427325   0.91686908 
   52900    204.08777   -866.62586    136097.37   -41933.494    2539.2398   -44472.734    19.344619   0.91767745 
   53000    202.02632   -810.91266    136069.11   -41910.381    2513.5914   -44423.972    19.406509    0.9178681 
   53100    203.23892   -890.44436    136089.06   -41959.271    2528.6786    -44487.95    19.366339   0.91773349 
   53200    205.78494   -947.84014    136062.47   -41940.652    2560.3559   -44501.008    19.425619   0.91791289 
   53300    208.99385   -844.90713    136106.99    -41930.97    2600.2808   -44531.251    19.530281   0.91761259 
   53400    206.36971   -824.93871    136057.19   -42013.022    2567.6315   -44580.653    19.426095   0.91794846 
   53500    203.36313   -953.10756    136006.51   -42023.605    2530.2239   -44553.829    19.412421   0.91829056 
   53600    203.28533   -861.31544    136020.07   -42021.614    2529.2559   -44550.869    19.323569   0.91819897 
   53700    197.90604   -997.37173    136016.98   -42039.856    2462.3274   -44502.184    19.317857   0.91821986 
   53800    201.96008    -839.7011    136127.09   -41922.634    2512.7674   -44435.401    19.404406   0.91747714 
   53900    204.94992   -789.27652    136214.59   -41969.251    2549.9667   -44519.217    19.530656   0.91688774 
   54000    202.78918   -744.64364    136369.11   -41927.974     2523.083   -44451.057    19.652239   0.91584885 
   54100    206.02787   -844.04248    136327.25   -41937.367    2563.3783   -44500.745    19.578664   0.91613007 
   54200    205.94399   -641.70124    136403.57   -41935.653    2562.3347   -44497.987     19.52259   0.91561746 
   54300    202.05648   -888.87061    136405.47   -41907.376    2513.9668   -44421.342    19.503669   0.91560468 
   54400    206.05591   -881.86681    136365.86   -41952.275    2563.7273   -44516.002    19.523439   0.91587067 
   54500    206.29487   -806.56742    136231.34   -41959.524    2566.7004   -44526.224    19.585288   0.91677506 
   54600    207.94521   -871.15032    136174.25   -41881.757    2587.2337   -44468.991    19.609716   0.91715938 
   54700    209.26168   -815.29587    136280.45   -41903.291    2603.6132   -44506.904    19.661238   0.91644465 
   54800     204.5284   -897.31377    136312.06   -41964.248    2544.7221    -44508.97    19.584024   0.91623217 
   54900    206.93703   -885.43038    136334.56   -42015.944    2574.6901   -44590.634    19.661753   0.91608095 
   55000    201.07399   -776.95427    136289.08   -42069.106    2501.7427   -44570.848    19.557249   0.91638664 
   55100    205.62274   -839.69056     136430.2   -42023.825    2558.3378   -44582.163    19.438437   0.91543874 
   55200    205.10443   -867.79904    136452.12   -42039.967    2551.8891   -44591.856    19.717216   0.91529168 
   55300    202.11058     -840.947    136475.15   -41985.404    2514.6399   -44500.044     19.63378   0.91513721 
   55400    208.66033   -698.68818    136605.63   -41971.717    2596.1312   -44567.848    19.561957   0.91426315 
   55500    208.72511   -854.82775    136657.26   -41926.114    2596.9372   -44523.052    19.643337   0.91391771 
   55600    203.90695   -812.55542    136494.02   -41970.842    2536.9901   -44507.832    19.627212   0.91501072 
   55700    204.61889   -825.29069    136453.82   -41970.544     2545.848   -44516.392    19.701576   0.91528027 
   55800    204.94316   -843.06164    136490.13   -41977.034    2549.8825   -44526.916    19.742212   0.91503677 
   55900    206.54343   -825.47766    136421.69   -41939.497    2569.7929    -44509.29    19.663595   0.91549583 
   56000    205.31673   -814.11956    136477.69   -41930.031    2554.5305   -44484.561    19.751659   0.91512018 
   56100    205.97523   -865.13073    136610.23   -41899.227    2562.7235    -44461.95    19.810997   0.91423233 
   56200    209.78934   -743.74212    136595.96   -41903.205    2610.1782   -44513.383    19.746629   0.91432787 
   56300    209.76149    -875.4816    136528.88   -41943.332    2609.8317   -44553.164    19.745786   0.91477708 
   56400      204.762   -744.18917    136681.06   -41937.771    2547.6286     -44485.4    19.681915   0.91375855 
   56500    205.73581   -781.89123    136551.46   -42020.544    2559.7446   -44580.288    19.804598   0.91462585 
   56600    201.83282    -803.0863    136662.82   -42038.333    2511.1839   -44549.517    19.814403   0.91388053 
   56700     201.6088   -871.67851    136701.54   -42068.254    2508.3967    -44576.65    19.978127   0.91362167 
   56800     204.6481   -775.50299    136780.77   -42003.959    2546.2114   -44550.171    19.886357    0.9130925 
   56900    201.75661   -945.84863     136710.7     -41985.2    2510.2358   -44495.435    19.829018   0.91356044 
   57000    209.85616   -910.79566    136669.06   -41936.045    2611.0096   -44547.055    19.854908   0.91383883 
   57100    206.38353   -846.41522    136589.01   -41993.965    2567.8034   -44561.768    19.970442    0.9143744 
   57200     206.2674   -704.55946    136554.95   -42037.235    2566.3586   -44603.593    19.886337   0.91460244 
   57300    204.09808   -766.21974    136708.26   -42084.847    2539.3681   -44624.215    19.959825   0.91357677 
   57400     200.8105   -781.96806    136826.08   -42081.989    2498.4644   -44580.454    20.006856   0.91279008 
   57500    199.35405   -871.70649    136734.66    -42124.96    2480.3433   -44605.304    20.074616   0.91340041 
   57600    202.18699   -746.93014    136897.59   -42087.405    2515.5905   -44602.995    20.132202   0.91231327 
   57700    198.25935   -937.11545    136928.81   -42121.704    2466.7233   -44588.427    20.175293   0.91210528 
   57800    199.59957   -977.95873    136924.16   -42141.838    2483.3981   -44625.236    20.118076   0.91213629 
   57900    198.85045   -809.22643     136821.4   -42116.558    2474.0776   -44590.636     20.04151   0.91282133 
   58000    199.47297   -895.81825    136841.94   -42103.169    2481.8229   -44584.992    19.971195   0.91268432 
   58100    202.52769   -845.93597    136845.56   -42050.161    2519.8295    -44569.99    20.182478   0.91266016 
   58200    203.48341   -929.79619    136827.75   -42002.263    2531.7205   -44533.983    20.175734   0.91277894 
   58300    203.29556   -918.17561    136782.92   -41943.566    2529.3832    -44472.95    20.195163   0.91307814 
   58400    206.77828   -803.77433    136740.89   -41966.458    2572.7149   -44539.173    20.022261    0.9133588 
   58500    206.73361   -880.23569    136779.53   -41953.183    2572.1591   -44525.342    20.010202   0.91310073 
   58600    214.80489   -914.74112    136727.61   -41930.758    2672.5812   -44603.339    19.999787   0.91344748 
   58700     210.0472   -834.41312    136747.82   -41934.323    2613.3865    -44547.71    20.187682    0.9133125 
   58800     205.7817   -824.33477    136758.46   -41973.989    2560.3155   -44534.304    20.156987   0.91324143 
   58900    205.17306   -733.06024    136718.11   -42013.541     2552.743   -44566.284    20.160065   0.91351096 
   59000    202.12975    -847.6388     136748.5   -42012.131    2514.8784    -44527.01    20.178645   0.91330797 
   59100    202.95633   -830.21837    136671.42    -42010.87    2525.1626   -44536.033     20.16837   0.91382302 
   59200        202.9   -728.46802    136660.37   -42015.117    2524.4617   -44539.579    20.105716   0.91389689 
   59300    206.36259   -805.55729    136711.44   -42007.607     2567.543    -44575.15    20.045051   0.91355553 
   59400    204.30405   -928.42374    136627.39   -42054.728    2541.9308   -44596.658    20.120842    0.9141175 
   59500    205.66829   -978.29671     136703.5   -42017.316    2558.9045   -44576.221    20.212766   0.91360858 
   59600    203.48286   -874.70263    136869.99   -42017.231    2531.7137   -44548.945    20.285549   0.91249725 
   59700    201.64008   -833.24087    136933.73   -42034.258    2508.7859   -44543.044    20.284004   0.91207251 
   59800    206.71929   -936.43716    136820.86    -42042.39     2571.981   -44614.371    20.294686   0.91282495 
   59900    201.99281   -836.18904    136746.04   -42024.441    2513.1746   -44537.615    20.171174   0.91332437 
   60000    205.27025   -870.88076    136861.43   -42061.408    2553.9522    -44615.36    20.305375   0.91255435 
   60100     203.4762   -841.66239    136862.48   -42018.452    2531.6308   -44550.083    20.344457   0.91254731 
   60200    205.44384   -793.59529    136846.63   -41991.761     2556.112   -44547.873    20.341667   0.91265301 
   60300    204.81139    -884.3879    136745.59   -41949.393    2548.2431   -44497.636    20.388489   0.91332739 
   60400    211.46961   -832.82982    136562.59   -41911.918     2631.084   -44543.002    20.360611   0.91455126 
   60500    201.90912   -832.21299    136486.46   -41949.553    2512.1333   -44461.686    20.489019   0.91506143 
   60600    208.60325   -858.30483    136626.86   -41974.016     2595.421   -44569.437    20.405298   0.91412106 
   60700    204.18565   -822.49642    136570.25   -42005.627    2540.4577   -44546.085    20.407657       0.9145 
   60800    207.63458   -916.30481    136586.75   -41965.535    2583.3689   -44548.904    20.193463   0.91438953 
   60900    208.44606   -723.88079    136685.45   -41958.534    2593.4653       -44552    20.368612   0.91372924 
   61000    206.40008   -913.90273       136686   -41988.354    2568.0094   -44556.363    20.324433   0.91372554 
   61100    207.15793   -754.32028    136547.73   -42019.546    2577.4385   -44596.984    20.452216   0.91465082 
   61200     201.8758   -840.47239    136597.21   -42019.665    2511.7187   -44531.384    20.518071   0.91431946 
   61300    204.63058   -940.14527    136584.68   -42002.398    2545.9934   -44548.392    20.563394   0.91440335 
   61400    203.43096   -860.12611    136567.74   -42032.192    2531.0678    -44563.26     20.50015    0.9145168 
   61500    204.69396   -811.57735    136591.01   -42041.885     2546.782   -44588.667    20.368314   0.91436101 
   61600    206.41034   -917.83329    136707.37   -42000.323     2568.137    -44568.46    20.328173   0.91358269 
   61700    204.47606    -809.1807    136621.66   -42083.761    2544.0709   -44627.832    20.386918   0.91415589 
   61800    201.11976   -812.68404    136683.71   -42141.481    2502.3122   -44643.793    20.359837   0.91374088 
   61900    200.63283   -882.76484    136729.21   -42086.236    2496.2539   -44582.489    20.457356    0.9134368 
   62000    201.07735   -811.69937    136721.57   -42046.516    2501.7845   -44548.301    20.556052   0.91348781 
   62100    204.11229     -804.039    136769.38   -42064.184    2539.5449   -44603.729     20.44662   0.91316854 
   62200    201.51186   -844.65261    136855.99   -42024.169    2507.1906    -44531.36    20.523285   0.91259059 
   62300    202.23734   -890.40325     136831.5   -42050.075     2516.217   -44566.292      20.5044   0.91275392 
   62400    205.73177   -845.01056    136722.51   -42000.129    2559.6943   -44559.823    20.522898   0.91348153 
   62500    203.56523   -749.14649    136871.68   -42011.447    2532.7385   -44544.186    20.504087   0.91248597 
   62600    206.29832   -790.26465    136949.13    -42021.28    2566.7433   -44588.023     20.52508   0.91196992 
   62700    204.79316   -879.38581    136959.72   -42047.478    2548.0163   -44595.494    20.525267    0.9118994 
   62800     204.4336   -780.53472     137011.4    -42034.72    2543.5427   -44578.263    20.569378   0.91155548 
   62900    205.59635   -760.18478    137045.57     -41989.8    2558.0095    -44547.81    20.670772   0.91132818 
   63000    207.95376   -999.71875    136995.71   -41968.494    2587.3402   -44555.835    20.624321   0.91165987 
   63100    206.29477   -793.51686    136885.35   -41962.015    2566.6992   -44528.714    20.650493   0.91239488 
   63200     205.2417    -956.7368    136840.59   -42004.055    2553.5969   -44557.652    20.494784   0.91269331 
   63300    204.28348   -916.16373    136689.78   -42038.832    2541.6749   -44580.507    20.570711   0.91370028 
   63400    210.15994   -873.59541    136803.71   -41959.709    2614.7892   -44574.498    20.623137   0.91293936 
   63500    208.41266   -873.38309    136838.63   -42045.665    2593.0497   -44638.714    20.523885   0.91270635 
   63600    206.26426   -793.11714    136964.22   -42046.067    2566.3196   -44612.387    20.606538   0.91186947 
   63700    205.11752   -752.90036     136936.6   -42048.582    2552.0519   -44600.634    20.755153   0.91205337 
   63800     201.5216   -811.25173    136871.08   -42141.143    2507.3118   -44648.455     20.66925   0.91248999 
   63900    200.29263   -847.04483    136919.45    -42127.12    2492.0211   -44619.141    20.660313   0.91216762 
   64000    205.67912   -768.31136    137001.38   -42109.665    2559.0393   -44668.704    20.579045   0.91162214 
   64100    202.53765    -908.0469    137011.48   -42038.108    2519.9534   -44558.062    20.640431   0.91155497 
   64200    204.22904   -725.89234    136926.03   -42029.717    2540.9975   -44570.715    20.770283   0.91212381 
   64300    209.79089   -786.29818    137023.45   -41955.644    2610.1975   -44565.841    20.879836   0.91147533 
   64400     206.3825   -841.94854    137038.45   -41979.009    2567.7906   -44546.799    20.838709   0.91137554 
   64500    207.99422   -847.39506    136973.27   -41970.796    2587.8436   -44558.639    20.802811   0.91180924 
   64600    205.39572   -789.51166    136992.54   -42013.748    2555.5133   -44569.261    20.790267   0.91168099 
   64700    205.60503   -800.61893     136938.3   -42049.263    2558.1175   -44607.381    20.636845   0.91204209 
   64800    204.39612   -856.08574    137052.11   -42058.198    2543.0763   -44601.274    20.785604   0.91128469 
   64900    204.38183    -867.0674    136945.72    -42033.07    2542.8986   -44575.969    20.741026   0.91199268 
   65000      210.163   -814.45124    136921.12   -42006.523    2614.8273    -44621.35    20.810764   0.91215652 
   65100    202.50684   -912.08856       137001   -42029.071      2519.57   -44548.641    20.889182   0.91162469 
   65200    208.54078   -808.35038    137029.08   -42022.564    2594.6437   -44617.207    20.809362   0.91143787 
   65300    208.85273   -865.79459    136933.98   -42016.904     2598.525   -44615.429    20.653232   0.91207083 
   65400    209.57311   -802.01093    136980.72   -41964.699    2607.4879   -44572.187    20.650502   0.91175965 
   65500    207.24574   -870.23262    136946.59    -42045.04    2578.5309   -44623.571    20.708231   0.91198689 
   65600    207.02456   -807.44985    137152.52   -42078.569    2575.7792   -44654.349    21.025573   0.91061758 
   65700    202.40727   -925.73836    137112.91   -42116.193    2518.3312   -44634.525    20.822487   0.91088063 
   65800    201.82356   -845.01959     137038.8   -42118.997    2511.0688   -44630.065    20.798747   0.91137323 
   65900    207.25675   -841.39125    137094.72   -42093.099     2578.668   -44671.767    20.698269   0.91100144 
   66000    205.25736   -854.92434    137058.86   -41997.456    2553.7918   -44551.248    20.756313   0.91123984 
   66100    208.44363   -863.94267    137061.04   -41957.629    2593.4351   -44551.064    20.943123   0.91122531 
   66200      212.321   -844.19305    137060.88   -41927.286    2641.6769   -44568.963    20.832439   0.91122641 
   66300    208.52159   -814.46799    137029.97   -41978.766     2594.405   -44573.171    20.858043   0.91143192 
   66400    207.33862   -919.55183    136988.72   -42019.598    2579.6866   -44599.284    20.769016   0.91170642 
   66500    205.03889    -821.4602    136923.49   -42039.318    2551.0736   -44590.392    20.801558   0.91214071 
   66600    207.09095    -881.8016    136815.21   -42058.247    2576.6051   -44634.852    20.797845   0.91286263 
   66700    202.36714   -822.32328     136911.3   -42072.824     2517.832   -44590.656    20.771466   0.91222194 
   66800    205.89195   -829.22986    136783.41   -42004.546    2561.6873   -44566.234    20.811716   0.91307488 
[...]
   84600    203.28284   -837.41181    136746.71   -42226.579     2529.225   -44755.804    21.667578   0.91331992 
   84700    205.42546   -756.89857    136750.46   -42238.359    2555.8833   -44794.243    21.698172   0.91329488 
   84800    202.43667   -792.16466    136940.34   -42208.323     2518.697    -44727.02    21.740638   0.91202849 
   84900    202.71953   -743.10815    136996.32    -42190.02    2522.2164   -44712.236    21.649744   0.91165579 
   85000    204.55109   -898.83574    136962.99   -42146.364    2545.0044   -44691.368    21.558591   0.91187765 
   85100    204.19621   -808.27902    137016.57   -42145.131    2540.5891    -44685.72    21.507309   0.91152108 
   85200    204.92229   -693.37898    137031.92   -42155.646    2549.6229   -44705.269    21.720584   0.91141896 
   85300    203.17455   -843.43689    137091.06   -42181.265    2527.8776   -44709.142    21.774254   0.91102576 
   85400    203.77425   -983.52015    137052.28   -42175.649    2535.3391   -44710.988    21.759836   0.91128356 
   85500    205.59107   -853.46467    137036.53   -42148.388    2557.9437   -44706.332      21.7343   0.91138832 
   85600    207.33022    -858.8449    137108.32   -42124.653     2579.582   -44704.235    21.791882   0.91091109 
   85700    204.12818   -859.43654    137128.61   -42159.631    2539.7427   -44699.373    21.592738   0.91077631 
   85800    200.76793   -861.48748    137085.44   -42170.079    2497.9348   -44668.013    21.623829   0.91106311 
   85900    205.24738   -980.45505    136984.37   -42080.335    2553.6677   -44634.003    21.682989   0.91173536 
   86000    204.38152    -864.7547    136988.82   -42128.275    2542.8947   -44671.169    21.788299    0.9117057 
   86100     205.7043   -849.00236     136969.3   -42133.769    2559.3525   -44693.121    21.836408   0.91183566 
   86200    205.69535    -896.7011    136945.31   -42095.545    2559.2413   -44654.786    21.782896   0.91199537 
   86300    208.10918   -878.55201    136922.03   -42137.079    2589.2739   -44726.353     21.72421   0.91215046 
   86400    207.45432   -716.30391    136880.89   -42155.422    2581.1261   -44736.548    21.618331   0.91242463 
   86500    207.17612   -853.14468    136874.88   -42140.874    2577.6648   -44718.539    21.597897   0.91246467 
   86600     208.8964   -827.22204    136963.55   -42091.072    2599.0683    -44690.14    21.552847   0.91187393 
   86700    206.52726   -914.73992    136977.69   -42086.409    2569.5918   -44656.001    21.555662   0.91177978 
   86800    205.39299   -871.25881    136957.13   -42142.779    2555.4793   -44698.258    21.775863   0.91191669 
   86900    206.81022   -898.19607    136935.64   -42110.015    2573.1123   -44683.127    21.764018   0.91205976 
   87000    205.39548   -886.88445    136920.32   -42119.488    2555.5103   -44674.998     21.70656   0.91216185 
   87100    202.73508   -874.20386    136858.14    -42146.26    2522.4098    -44668.67    21.592136   0.91257624 
   87200    209.12087   -825.23618    136929.82   -42155.292    2601.8612   -44757.153    21.610291   0.91209856 
   87300    202.70331    -847.0152    136949.67   -42166.091    2522.0145   -44688.105    21.766248   0.91196637 
   87400    206.56278   -789.72939    136883.92   -42184.905    2570.0337   -44754.938    21.820958   0.91240441 
   87500    206.80343   -822.30732       136810   -42193.824    2573.0278   -44766.852    21.773566   0.91289741 
   87600    206.12647   -720.46816     136922.2    -42183.51    2564.6051   -44748.115     21.63884   0.91214928 
   87700    203.83535   -958.27158    136749.75   -42205.632    2536.0993   -44741.731    21.635023   0.91329959 
   87800    203.02719   -823.71367     136669.3   -42181.048    2526.0442   -44707.092    21.637832   0.91383718 
   87900    203.59601   -784.74313    136651.48   -42190.774    2533.1215   -44723.896    21.616726    0.9139564 
   88000    202.55101   -866.29231     136676.9   -42209.466    2520.1197   -44729.586    21.681602   0.91378639 
   88100    207.45509   -718.31862    136806.94   -42148.889    2581.1357   -44730.025    21.619739   0.91291783 
   88200    206.53596   -861.07706    136817.22   -42126.645       2569.7   -44696.345    21.633694   0.91284924 
   88300    202.20362   -949.10784    136745.44   -42168.269    2515.7974   -44684.066    21.708933    0.9133284 
   88400     199.7342    -883.1404    136841.41   -42257.291    2485.0731   -44742.364    21.597832   0.91268784 
   88500    202.92564   -868.83419       136741   -42186.456    2524.7808   -44711.236    21.515195   0.91335805 
   88600    206.24918   -850.32432    136845.82   -42136.994     2566.132   -44703.126    21.575127   0.91265845 
   88700    206.66231   -837.78163    136936.31   -42112.454     2571.272   -44683.726    21.807168   0.91205532 
   88800    206.20501   -899.20258    136765.57   -42063.542    2565.5824   -44629.125    21.812264   0.91319398 
   88900     205.8724    -866.2818     136813.2   -42105.498    2561.4441   -44666.942    21.753442   0.91287606 
   89000    209.03249   -792.18503    136774.46   -42100.482    2600.7615   -44701.244    21.744038   0.91313461 
   89100    203.16977   -865.91039    136771.49   -42184.317    2527.8182   -44712.135    21.682851   0.91315442 
   89200    199.44109    -845.9297    136833.77   -42196.937    2481.4264   -44678.364    21.606972   0.91273879 
   89300    199.79107   -829.60813    136860.81    -42219.91    2485.7808   -44705.691    21.678139   0.91255844 
   89400    199.96563   -845.00318    136886.77   -42237.211    2487.9526   -44725.163    21.653631   0.91238538 
   89500    201.32717   -812.09032    136825.05   -42255.582    2504.8928   -44760.475    21.716928   0.91279697 
   89600    196.16302    -800.2829    136994.09   -42282.961     2440.641   -44723.602    21.825363   0.91167065 
   89700    199.07843   -935.12903    136804.88   -42241.982    2476.9142   -44718.896    21.673819   0.91293156 
   89800    199.53658   -962.32129    136720.83   -42206.137    2482.6144   -44688.752    21.822181   0.91349277 
   89900    199.10189   -768.58936    136896.21   -42258.092     2477.206   -44735.299    21.715948   0.91232246 
   90000    205.30444   -792.97837    136886.02   -42180.185    2554.3776   -44734.563    21.743259   0.91239043 
   90100    202.43031   -916.90333    136862.65   -42196.555    2518.6179   -44715.173    21.751457   0.91254618 
   90200    202.52102   -799.51736    136881.26   -42227.415    2519.7465   -44747.162    21.941216   0.91242212 
   90300    200.13319   -828.25053    136951.12   -42232.385    2490.0374   -44722.422    21.859174   0.91195672 
   90400     200.4681   -795.64092    136963.58   -42224.311    2494.2042   -44718.515    21.769725   0.91187375 
   90500    203.34297   -941.05199    137028.88   -42187.027    2529.9731       -44717    21.638765   0.91143917 
   90600    208.61255   -968.19089    137121.15   -42108.598    2595.5367   -44704.135    21.750169   0.91082589 
   90700    205.11161   -943.90934    136899.76   -42104.731    2551.9783    -44656.71     21.81792   0.91229883 
   90800    210.16307   -848.25456    136975.49   -42142.205    2614.8281   -44757.033    21.962848   0.91179444 
   90900    202.96729   -841.61244    137011.96   -42220.636     2525.299   -44745.935    21.987591   0.91155176 
   91000     203.2149   -882.89112    137006.99   -42234.885    2528.3797   -44763.265    21.918891   0.91158482 
   91100    200.34229   -938.40941    136934.05       -42222     2492.639   -44714.639    21.802999    0.9120704 
   91200    204.44677   -775.91437    136980.81   -42184.212    2543.7065   -44727.919    21.894018   0.91175907 
   91300    207.42847   -824.90909     136835.9   -42103.474    2580.8045   -44684.278    21.830582    0.9127246 
   91400    208.32902    -852.8941    136914.86   -42077.093     2592.009   -44669.102    21.969821   0.91219825 
   91500    208.33519   -877.24447    136904.01   -42095.734    2592.0859    -44687.82    21.993695   0.91227051 
   91600    204.67905   -701.37521     136884.9   -42128.992    2546.5965   -44675.589    21.909303   0.91239786 
   91700    204.65111   -768.92147    136953.08   -42203.282    2546.2489   -44749.531    21.967437   0.91194361 
   91800    203.99588   -848.44032    137028.35   -42177.093    2538.0966    -44715.19     21.99311   0.91144272 
   91900    206.49517   -817.21021    136971.76   -42179.042    2569.1925   -44748.234     21.95408   0.91181927 
   92000    206.70716   -783.13679    137146.91   -42191.566    2571.8301   -44763.396    22.012678    0.9106548 
   92100    200.17628   -771.84953    137042.29   -42236.262    2490.5735   -44726.836    22.085296      0.91135 
   92200    206.35413   -875.85859    137064.39   -42165.518    2567.4377   -44732.956    22.053568   0.91120308 
   92300    206.89725   -833.41176    137216.44   -42102.448    2574.1952   -44676.643    21.991665   0.91019333 
   92400    208.86709   -824.55074    137092.98   -42111.523    2598.7036   -44710.227    22.017663     0.911013 
   92500    210.69764   -821.06206    136987.25   -42149.404    2621.4792   -44770.883    21.931613    0.9117162 
   92600    205.46184   -793.35098    137083.38   -42132.233    2556.3359   -44688.569    22.123751   0.91107684 
   92700    204.38627   -782.49413    137137.27   -42119.854    2542.9538   -44662.808    22.155706   0.91071878 
   92800    203.89043   -750.74797    137182.01   -42158.386    2536.7845   -44695.171    22.009475   0.91042179 
   92900    204.60428   -974.20159    136987.12   -42122.217    2545.6663   -44667.884    22.036311   0.91171706 
   93000    205.70369   -833.53882    137016.78   -42153.984    2559.3449   -44713.329    22.003156   0.91151967 
   93100    207.60393   -890.45849    137063.16   -42098.934    2582.9876   -44681.922     22.01909   0.91121125 
   93200    205.32137   -917.56476    137036.57    -42116.77    2554.5882   -44671.358    22.066756   0.91138807 
   93300    206.48968   -806.72396    137083.37   -42139.204    2569.1242   -44708.328    22.145887   0.91107689 
   93400    203.27195   -859.29253    137018.32   -42168.441    2529.0896   -44697.531    22.000001   0.91150943 
   93500    200.17063   -712.21419    136996.16   -42213.752    2490.5031   -44704.255    21.921358   0.91165688 
   93600    203.02651   -822.40152    137037.02   -42277.996    2526.0357   -44804.032    22.032319   0.91138508 
   93700     203.6423   -835.06866    137203.98   -42243.082    2533.6974   -44776.779    22.076088   0.91027602 
   93800    201.20207   -794.48959    137149.76    -42205.78    2503.3363   -44709.116    22.055214   0.91063588 
   93900    204.35804   -882.00049    137104.32   -42201.163    2542.6026   -44743.765    22.137491   0.91093766 
   94000     206.0463   -882.12238    137103.61   -42208.202    2563.6077   -44771.809     22.07085    0.9109424 
   94100    207.09502   -800.65988    137074.48    -42213.38    2576.6558   -44790.036     22.14504   0.91113598 
   94200    202.57194   -788.73184    137208.45   -42186.674      2520.38   -44707.054    22.171964   0.91024633 
   94300    204.45885    -821.2798    137171.69   -42146.957    2543.8567   -44690.814    22.136165   0.91049026 
   94400    209.57889   -904.83295    137098.07   -42135.455    2607.5598   -44743.015    22.070959   0.91097921 
   94500    203.87337   -990.14278    136996.93   -42075.531    2536.5723   -44612.104    22.186696   0.91165178 
   94600    208.11626   -854.42208       136986    -42119.48    2589.3619   -44708.842     22.09734   0.91172449 
   94700    201.70411   -799.69187    136990.46   -42167.457    2509.5826    -44677.04    22.197523    0.9116948 
   94800    201.93499   -962.86651    137014.37   -42161.963    2512.4551   -44674.419    22.008625   0.91153572 
   94900    203.41161   -858.21083    136999.92    -42136.59    2530.8271   -44667.417    22.041615   0.91163185 
   95000    207.66299   -949.92777    136957.68   -42130.217    2583.7224    -44713.94     22.09781   0.91191299 
   95100    205.56458   -809.57483    136859.19   -42133.196    2557.6142    -44690.81    22.147995   0.91256928 
   95200    207.05698   -810.91167     137011.9   -42134.112    2576.1825   -44710.294    22.126462   0.91155214 
   95300    207.11099   -909.24432    137046.06   -42039.806    2576.8545   -44616.661    22.268911    0.9113249 
   95400    204.78576   -885.50456    137052.97   -42107.154    2547.9241   -44655.078    22.095632     0.911279 
   95500    202.39425   -909.43869    136932.69   -42107.909    2518.1693   -44626.078    22.147445   0.91207947 
   95600    204.52518   -742.45097    136947.21    -42106.49    2544.6821   -44651.172    22.139988   0.91198272 
   95700    204.06981   -976.32307    137073.13   -42161.748    2539.0164   -44700.764    22.131317   0.91114495 
   95800    204.35277   -742.07647    136968.27   -42213.624     2542.537   -44756.161    22.246579   0.91184253 
   95900    205.57668   -900.35507    137026.11   -42151.934    2557.7647   -44709.699    22.191903   0.91145758 
   96000    201.77371   -870.93778    136981.86   -42224.902    2510.4485   -44735.351    22.090359   0.91175203 
   96100    205.09911   -832.70028    136990.56   -42179.755    2551.8228   -44731.578    22.170056   0.91169413 
   96200    204.72902   -872.90292    136971.58   -42212.523    2547.2182   -44759.742     22.04872   0.91182045 
   96300    205.13042   -866.54152    136969.83   -42165.724    2552.2124   -44717.936    22.017112    0.9118321 
   96400    205.34377   -859.96533    137139.65    -42143.06    2554.8669   -44697.927    22.268478   0.91070298 
   96500    206.04801   -869.50865    137099.45   -42186.656     2563.629   -44750.285    22.315805   0.91097003 
   96600    203.72933   -996.08289    137122.36   -42188.254    2534.7802   -44723.034    22.146916   0.91081787 
   96700    200.76351   -957.32274     137010.5   -42265.386    2497.8797   -44763.265    22.037267   0.91156144 
   96800    198.38428   -913.88494    137082.33    -42306.32    2468.2776   -44774.597    22.055289   0.91108379 
   96900    199.40622   -887.48744    137158.23    -42234.88    2480.9925   -44715.872    22.141958    0.9105796 
   97000    204.09185   -854.21473    137130.72   -42260.008    2539.2906   -44799.299    22.182553   0.91076232 
   97100    199.39753   -945.09711    137181.83   -42243.311    2480.8844   -44724.195    22.106081   0.91042299 
   97200    202.25198   -878.65232    137096.58   -42249.295    2516.3992   -44765.694    22.119009    0.9109891 
   97300    200.39958   -836.89901    137037.26   -42245.925    2493.3517   -44739.276    21.989962   0.91138346 
   97400    203.33294   -784.45877    137111.72   -42247.652    2529.8483   -44777.501    22.123931   0.91088851 
   97500    204.23965   -889.86552    137131.48   -42152.695    2541.1296   -44693.824    22.126598   0.91075726 
   97600    202.27527   -951.44737    137014.37   -42222.816    2516.6889   -44739.505    22.078734   0.91153573 
   97700    201.79199    -922.6119    136963.56   -42166.589     2510.676   -44677.265     22.14591   0.91187387 
   97800    205.43193   -842.45813    136996.31   -42149.902    2555.9638   -44705.866    22.239432   0.91165586 
   97900    206.82467   -873.62241    136943.48   -42114.149    2573.2922   -44687.441    22.087887    0.9120076 
   98000    206.74245    -800.0325     136937.8   -42131.283    2572.2691   -44703.552     22.10089    0.9120454 
   98100     203.4244   -815.84647    136911.12   -42205.914    2530.9863     -44736.9    22.116667   0.91222315 
   98200    204.11233   -748.02731    136921.92   -42166.349    2539.5454   -44705.894    22.039848   0.91215121 
   98300    205.39946   -841.02239    136912.49   -42186.182    2555.5597   -44741.742     22.14667   0.91221398 
   98400     201.8009    -843.4159    136801.53   -42183.251    2510.7868   -44694.038      22.1924    0.9129539 
   98500    201.92461    -731.4004    136850.91   -42191.749    2512.3261   -44704.075     22.25548   0.91262451 
   98600    204.82069   -830.85022    136894.26   -42223.185    2548.3588   -44771.544    22.297548   0.91233547 
   98700    202.74048   -936.08011    136884.28     -42263.6     2522.477   -44786.077    22.127319     0.912402 
   98800    198.48712   -841.62401    136867.92    -42230.79    2469.5571   -44700.347    22.075864   0.91251109 
   98900    204.17168    -788.7997    136916.67   -42234.083    2540.2838   -44774.367    22.131146   0.91218616 
   99000    199.76538   -865.03232    136928.75   -42275.035    2485.4612   -44760.496    22.079766   0.91210567 
   99100    202.84734   -878.67652    136962.85   -42211.235    2523.8065   -44735.042    22.279082   0.91187863 
   99200     201.5092   -875.24869    136922.29   -42197.649    2507.1576   -44704.806    22.361326    0.9121487 
   99300    207.97933   -842.85172    136922.25   -42154.929    2587.6583   -44742.587    22.239912   0.91214898 
   99400    205.82602   -931.38864    136910.02   -42130.886     2560.867   -44691.753    22.096443   0.91223044 
   99500    211.01766    -731.5681    136854.96    -42021.76    2625.4608    -44647.22    22.161523   0.91259748 
   99600    209.59255   -774.45659    136880.67   -42059.879    2607.7298   -44667.609    22.246638   0.91242608 
   99700    210.03422    -747.5036     136936.5   -42076.187     2613.225   -44689.412    22.411341   0.91205408 
   99800    206.74997   -937.28639    136847.14   -42090.883    2572.3627   -44663.246    22.361394   0.91264962 
   99900    206.74945   -826.08128    136859.32   -42150.001    2572.3563   -44722.357    22.296919   0.91256842 
  100000    206.64406   -928.73181    136848.27   -42162.152     2571.045   -44733.197    22.310256   0.91264208 
  100100    208.75627   -818.47554     136784.9   -42104.404    2597.3249   -44701.729    22.203215   0.91306493 
  100200    208.98839   -714.61369    136768.17   -42094.981    2600.2129   -44695.193    22.310511    0.9131766 
  100300    210.12883   -817.37311    136805.59   -42089.133    2614.4021   -44703.535    22.331179   0.91292679 
  100400    203.06663   -879.12761    136812.85    -42124.54    2526.5349   -44651.075    22.442572   0.91287834 
  100500    205.91519   -783.25494       136872   -42052.386    2561.9764   -44614.363    22.498111   0.91248384 
  100600    204.81436   -891.06725    136925.11   -42133.243      2548.28   -44681.523    22.482483   0.91212995 
  100631    207.43124   -688.05488    136918.48   -42120.356     2580.839   -44701.195    22.487486    0.9121741 
Loop time of 438.158 on 1 procs for 100000 steps with 4175 atoms

Performance: 98.594 ns/day, 0.243 hours/ns, 228.228 timesteps/s
100.0% CPU use with 1 MPI tasks x no OpenMP threads

MPI task timing breakdown:
Section |  min time  |  avg time  |  max time  |%varavg| %total
---------------------------------------------------------------
Pair    | 394.05     | 394.05     | 394.05     |   0.0 | 89.93
Neigh   | 31.317     | 31.317     | 31.317     |   0.0 |  7.15
Comm    | 2.0224     | 2.0224     | 2.0224     |   0.0 |  0.46
Output  | 0.92455    | 0.92455    | 0.92455    |   0.0 |  0.21
Modify  | 8.3721     | 8.3721     | 8.3721     |   0.0 |  1.91
Other   |            | 1.47       |            |       |  0.34

Nlocal:        4175.00 ave        4175 max        4175 min
Histogram: 1 0 0 0 0 0 0 0 0 0
Nghost:        3680.00 ave        3680 max        3680 min
Histogram: 1 0 0 0 0 0 0 0 0 0
Neighs:        0.00000 ave           0 max           0 min
Histogram: 1 0 0 0 0 0 0 0 0 0
FullNghs:     111376.0 ave      111376 max      111376 min
Histogram: 1 0 0 0 0 0 0 0 0 0

Total # of neighbors = 111376
Ave neighs/atom = 26.676886
Neighbor list builds = 5039
Dangerous builds = 0

undump              1
unfix               2
unfix               3
unfix               4


################################################
#######         Run Simulation         #########
################################################

reset_timestep      0
log                 log.run_${NAME}
log                 log.run_liquid_density_MLmW
