
# Create simulation box of size 50 x 50 x 50 Angstrom
#
lattice	            sc 1
Lattice spacing in x,y,z = 1.0000000 1.0000000 1.0000000
region 	            all block 0 50 0 50 0 50 units box
create_box          1 all
Created orthogonal box = (0.0000000 0.0000000 0.0000000) to (50.000000 50.000000 50.000000)
  1 by 1 by 1 MPI processor grid

# fill box with 4175 randomly distributed atoms
#
create_atoms        1 random 4175 63782 all
Created 4175 atoms
  create_atoms CPU = 0.000 seconds
mass                1 18.015

# Define potential
#
pair_style          sw
pair_coeff          * * ML_mW.sw mW
Reading sw potential file ML_mW.sw with DATE: 2019-02-27

# Run minimization
#
minimize            1.0e-8 1.0e-8 10000 1000
WARNING: Using 'neigh_modify every 1 delay 0 check yes' setting during minimization (../min.cpp:187)
Neighbor list info ...
  update every 1 steps, delay 0 steps, check yes
  max neighbors/atom: 2000, page size: 100000
  master list distance cutoff = 6.0032907
  ghost atom cutoff = 6.0032907
  binsize = 3.0016454, bins = 17 17 17
  1 neighbor lists, perpetual/occasional/extra = 1 0 0
  (1) pair sw, perpetual
      attributes: full, newton on
      pair build: full/bin/atomonly
      stencil: full/bin/3d
      bin: standard
Per MPI rank memory allocation (min/avg/max) = 4.759 | 4.759 | 4.759 Mbytes
Step Temp E_pair E_mol TotEng Press 
       0            0    7792709.3            0    7792709.3    5898794.3 
     631            0   -45138.185            0   -45138.185   -130.57836 
Loop time of 7.36763 on 1 procs for 631 steps with 4175 atoms

100.0% CPU use with 1 MPI tasks x no OpenMP threads

Minimization stats:
  Stopping criterion = max force evaluations
  Energy initial, next-to-last, final = 
      7792709.32924456  -45137.9104522973  -45138.1854596308
  Force two-norm initial, final = 2.0191930e+08 4.4741522
  Force max component initial, final = 1.0948746e+08 1.0165594
  Final line search alpha, max atom move = 0.045182713 0.045930911
  Iterations, force evaluations = 631 1000

MPI task timing breakdown:
Section |  min time  |  avg time  |  max time  |%varavg| %total
---------------------------------------------------------------
Pair    | 7.1044     | 7.1044     | 7.1044     |   0.0 | 96.43
Neigh   | 0.16616    | 0.16616    | 0.16616    |   0.0 |  2.26
Comm    | 0.019205   | 0.019205   | 0.019205   |   0.0 |  0.26
Output  | 0          | 0          | 0          |   0.0 |  0.00
Modify  | 0          | 0          | 0          |   0.0 |  0.00
Other   |            | 0.07788    |            |       |  1.06

Nlocal:        4175.00 ave        4175 max        4175 min
Histogram: 1 0 0 0 0 0 0 0 0 0
Nghost:        3825.00 ave        3825 max        3825 min
Histogram: 1 0 0 0 0 0 0 0 0 0
Neighs:        0.00000 ave           0 max           0 min
Histogram: 1 0 0 0 0 0 0 0 0 0
FullNghs:     119936.0 ave      119936 max      119936 min
Histogram: 1 0 0 0 0 0 0 0 0 0

Total # of neighbors = 119936
Ave neighs/atom = 28.727186
Neighbor list builds = 26
Dangerous builds = 0

# Add velocity/set timestep
#
velocity            all create ${TEMP} 120598 rot yes dist gaussian
velocity            all create 205 120598 rot yes dist gaussian
timestep            5.0

# Define output
#
compute	            1 all msd
thermo	            100
thermo_style        custom step temp press vol etotal ke pe c_1[4] density

# Neighbor lists
#
neigh_modify        delay 0 every 1 check yes

# Set fixes
#
fix                 1 all momentum 10 linear 1 1 1 rescale
fix                 2 all nve
fix                 3 all temp/csvr ${TEMP} ${TEMP} 500.0 928347
fix                 3 all temp/csvr 205 ${TEMP} 500.0 928347
fix                 3 all temp/csvr 205 205 500.0 928347
fix                 4 all press/berendsen iso ${PRES} ${PRES} 1000.0 modulus 20000
fix                 4 all press/berendsen iso -300 ${PRES} 1000.0 modulus 20000
fix                 4 all press/berendsen iso -300 -300 1000.0 modulus 20000

# Run 0.5 ns equilibration
#
dump                1 all custom 1000 eq.${NAME}.dump id type x y z vx vy vz
dump                1 all custom 1000 eq.liquid_density_MLmW.dump id type x y z vx vy vz
run                 100000
Per MPI rank memory allocation (min/avg/max) = 4.009 | 4.009 | 4.009 Mbytes
Step Temp Press Volume TotEng KinEng PotEng c_1[4] Density 
     631          205    802.16775       125000   -42587.596    2550.5897   -45138.185            0   0.99914793 
     700    132.64203   -257.69791     125771.6   -41808.245     1650.319   -43458.564   0.22704025   0.99301825 
     800    164.23068   -289.24295    125615.88   -41104.198    2043.3419    -43147.54   0.56120266   0.99424926 
     900    181.12951   -385.46612    125880.07    -40687.11    2253.5954   -42940.705   0.90478709   0.99216257 
    1000    192.32624   -213.59458     126111.7   -40438.083    2392.9041   -42830.987    1.2333591   0.99034026 
    1100    199.36064   -23.155126    126325.39   -40275.582    2480.4253   -42756.007    1.5718646   0.98866498 
    1200    196.43898   -622.13502    126289.14    -40330.02    2444.0743   -42774.094    1.9803428   0.98894882 
    1300    199.36605   -241.07404    126187.46   -40313.629    2480.4927   -42794.121     2.286458   0.98974565 
    1400    199.29175   -238.16392    126267.26   -40330.556    2479.5682   -42810.125    2.5334997   0.98912012 
    1500     202.9569   -227.46725    126345.06    -40298.87    2525.1696    -42824.04    2.8243162   0.98851105 
    1600    207.78669   -208.63948    126582.42   -40238.292    2585.2615   -42823.554    3.1217558   0.98665749 
    1700    205.02874   -279.93053     126629.1   -40295.849    2550.9473   -42846.796    3.4954129   0.98629374 
    1800    202.96705   -382.03343    126585.02   -40381.514    2525.2959    -42906.81    3.9552753   0.98663721 
    1900    202.95056   -28.423828    126911.59   -40379.557    2525.0908   -42904.648    4.1407379   0.98409836 
    2000    203.47314   -428.49107    126837.31   -40355.543    2531.5927   -42887.136    4.4040561   0.98467473 
    2100    209.59518   -218.72504    127056.91    -40325.94    2607.7625   -42933.703    4.7305204   0.98297281 
    2200     207.0851   -249.84908    127086.95   -40378.817    2576.5323   -42955.349    5.0309695   0.98274048 
    2300    208.94205   -361.66453    127234.01   -40392.176    2599.6364   -42991.812    5.1946216   0.98160463 
    2400    204.78756   -353.34342    127340.03   -40423.078    2547.9466   -42971.025    5.4290949   0.98078735 
    2500    210.24413   -291.66705    127280.43   -40408.536    2615.8367   -43024.373    5.6278944   0.98124659 
    2600    212.11353   -225.58867     127325.7   -40397.929    2639.0956   -43037.025    5.8092344   0.98089773 
    2700    206.79317   -304.25494    127477.54   -40433.432    2572.9002   -43006.333    5.9956134   0.97972939 
    2800    208.95028   -200.58413    127616.76   -40433.778    2599.7387   -43033.516    6.1386545   0.97866057 
    2900    206.32291   -250.33208    127906.02   -40521.194    2567.0492   -43088.243    6.2903373   0.97644733 
    3000    211.20372   -229.32184    128085.13   -40560.571    2627.7758   -43188.347    6.5116507   0.97508187 
    3100    210.25536   -367.09388    128273.36   -40547.456    2615.9764   -43163.433     6.693064   0.97365105 
    3200    206.25904   -440.85547    128156.71   -40605.773    2566.2546   -43172.027    6.8147643   0.97453727 
    3300    204.48504   -437.54376    128120.23   -40620.805    2544.1827   -43164.987    7.0549773   0.97481476 
    3400    210.74531   -389.56831    128194.92   -40666.426    2622.0724   -43288.498    7.2449128   0.97424681 
    3500    205.86616   -265.97104    128175.16   -40704.344    2561.3664   -43265.711    7.3729745   0.97439697 
    3600    204.00799   -255.29271     128327.7   -40768.999    2538.2473   -43307.246    7.5694393   0.97323878 
    3700    203.40667   -264.85327    128426.88   -40826.243    2530.7656   -43357.008    7.6981907   0.97248712 
    3800    203.85569    -261.8104    128509.12   -40795.239    2536.3523   -43331.592    7.8936659   0.97186479 
    3900    205.44606   -281.97092    128595.39   -40843.138    2556.1395   -43399.277    7.9843452    0.9712128 
    4000    204.54861   -54.370728    128743.15   -40851.012    2544.9736   -43395.985    8.1727799   0.97009813 
    4100    204.15851   -274.55837    128820.73   -40837.329      2540.12   -43377.449    8.2611716    0.9695139 
    4200    206.12014   -340.56187    128929.45   -40867.238    2564.5264   -43431.764     8.411423    0.9686964 
    4300    205.59172    -477.9223    128813.71   -40868.839    2557.9518   -43426.791    8.4670503   0.96956676 
    4400    205.51223   -108.54349    129118.38   -40882.783    2556.9629   -43439.745    8.7396432   0.96727892 
    4500    204.58105   -187.68029    129091.77   -40901.893    2545.3773   -43447.271    8.7790491   0.96747838 
    4600     202.3962   -447.51985    129255.35    -40973.59    2518.1935   -43491.784    8.7943226   0.96625393 
    4700     207.0917   -218.62424     129310.1   -40902.921    2576.6144   -43479.535    9.0384814   0.96584482 
    4800    203.77903   -157.26874    129437.89   -40953.946    2535.3986   -43489.344    9.2322086   0.96489126 
    4900    207.05105   -413.93471    129524.01   -40853.731    2576.1087    -43429.84     9.427181    0.9642497 
    5000    209.56242   -208.31852    129509.65   -40821.326    2607.3549   -43428.681     9.581864   0.96435666 
    5100    208.67473    -299.6982    129579.78   -40895.261    2596.3104   -43491.571    9.8417399   0.96383475 
    5200    207.73779   -164.28363    129672.88   -40967.518     2584.653   -43552.171    9.8936168   0.96314272 
    5300    207.02305   -359.03179    129799.07   -40950.109    2575.7603    -43525.87    9.9275212   0.96220635 
    5400    205.70464   -152.68141    130012.89   -41007.284    2559.3568   -43566.641    10.079439   0.96062391 
    5500    206.68523   -218.26476    129963.01   -41017.625    2571.5572   -43589.182    10.075073   0.96099257 
    5600    207.33222   -386.17263    130036.99   -41049.358     2579.607   -43628.965    10.133719   0.96044589 
    5700    205.86695   -362.56926     130116.9   -41049.697    2561.3762   -43611.074    10.258272   0.95985604 
    5800    208.62687   -367.86635    130242.67   -41084.415     2595.715    -43680.13    10.409885   0.95892913 
    5900    208.94267   -277.70162    130108.63   -41139.601     2599.644   -43739.245    10.450906   0.95991701 
    6000    202.70725   -422.95426     130025.1   -41159.267    2522.0636   -43681.331    10.606826   0.96053374 
    6100    206.04749    -327.2605     130123.9   -41114.585    2563.6225   -43678.208    10.677408   0.95980443 
    6200    204.90415   -251.60831    130146.38   -41171.649    2549.3972   -43721.046    10.581669   0.95963861 
    6300    204.09875   -274.39042    130119.33   -41146.535    2539.3765   -43685.912    10.885585   0.95983807 
    6400    207.13335   -209.80494    129991.34   -41143.962    2577.1326   -43721.094    10.944262   0.96078315 
    6500    206.03147   -197.20948    130134.86   -41090.781    2563.4232   -43654.204    11.052148   0.95972353 
    6600    208.06176   -230.85458    130358.76   -41171.399    2588.6839   -43760.083    11.061181   0.95807517 
    6700    203.29275   -439.78128    130287.56    -41241.73    2529.3483   -43771.078    11.083669   0.95859872 
    6800    205.06052   -233.58353    130344.32   -41171.697    2551.3427   -43723.039    11.075453   0.95818134 
    6900     206.4908   -379.59392    130463.37   -41127.617    2569.1381   -43696.755    11.170711   0.95730694 
    7000    205.23763   -240.27161    130519.45   -41125.907    2553.5463   -43679.453    11.209239   0.95689564 
    7100     206.2985   -225.20692    130548.83   -41166.756    2566.7456   -43733.502    11.498508   0.95668025 
    7200    202.48362   -275.19751    130782.71   -41217.938    2519.2812   -43737.219    11.558618   0.95496944 
    7300    204.65619   -306.78642     130878.4   -41269.838     2546.312    -43816.15    11.565995   0.95427121 
    7400    204.55639   -248.11437    131031.62   -41301.954    2545.0703   -43847.024    11.703621   0.95315536 
    7500    202.50042   -352.75783    131288.56   -41281.791    2519.4902   -43801.281    11.840974   0.95128995 
    7600    202.48116   -284.81923    131255.39   -41346.041    2519.2506   -43865.291    11.882294   0.95153037 
    7700    203.62546   -370.01242    131143.12   -41252.746    2533.4878   -43786.234     11.96482   0.95234494 
    7800    207.57709     -210.918    131188.77   -41229.181    2582.6537   -43811.834    11.923662   0.95201358 
    7900    201.73795   -259.33144    131307.99   -41294.137    2510.0037   -43804.141    12.077033   0.95114924 
    8000    205.45051   -321.14184    131330.23   -41268.111    2556.1949   -43824.305    12.165365   0.95098812 
    8100    201.17312   -481.26689    131354.34   -41345.998    2502.9761   -43848.974    12.184064   0.95081357 
    8200    201.67868   -102.94728    131327.28   -41360.117    2509.2662   -43869.383    12.215681   0.95100949 
    8300    198.95009   -400.10464    131491.91    -41346.24    2475.3173   -43821.558    12.360355   0.94981883 
    8400    207.59553   -290.99136    131451.81   -41295.077    2582.8831    -43877.96    12.379807   0.95010858 
    8500    206.18083   -159.58084    131688.79   -41237.522    2565.2815   -43802.804    12.485637   0.94839878 
    8600    205.48208   -240.57032    131809.81   -41278.704    2556.5878   -43835.292    12.638232   0.94752804 
    8700    201.35654   -371.73667    131951.69   -41265.718    2505.2582   -43770.976    12.701262    0.9465092 
    8800    204.30327   -134.00783    132014.97   -41307.337    2541.9211   -43849.258    12.684831   0.94605555 
    8900    200.45757    -441.5435    132055.39   -41393.509    2494.0733   -43887.583    12.809373   0.94576596 
    9000    204.50199   -330.95435    132000.02   -41374.227    2544.3935   -43918.621    12.820879   0.94616269 
    9100    204.29379   -343.59208    131994.72   -41431.494    2541.8031   -43973.298    12.903286   0.94620066 
    9200    201.70299   -385.94737    132069.78   -41347.887    2509.5687   -43857.456    12.927652   0.94566293 
    9300    203.58061   -378.89369    132066.02   -41397.877    2532.9299   -43930.807     13.04711   0.94568979 
    9400    204.32185    -203.5999    132146.65   -41376.612    2542.1523   -43918.764    13.133597   0.94511283 
    9500    204.27503   -278.31498    132025.58   -41387.299    2541.5697   -43928.868     13.24697   0.94597949 
    9600    206.49613   -339.07833    132077.81   -41364.536    2569.2044    -43933.74    13.248705    0.9456054 
    9700    206.63329   -337.20922    132130.68    -41313.11     2570.911   -43884.021    13.337575   0.94522702 
    9800    202.57635   -358.87833    132093.95   -41392.617     2520.435   -43913.052    13.324329   0.94548984 
    9900     200.1065    -241.9271    132188.22   -41465.628    2489.7053   -43955.334    13.258828   0.94481562 
   10000    203.58016   -328.09089    132080.69   -41475.421    2532.9242   -44008.345     13.35969   0.94558481 
   10100    203.22034   -329.11046    132083.91    -41449.29    2528.4474   -43977.737     13.38183   0.94556176 
   10200    204.38285   -451.08492    132122.92   -41491.692    2542.9112   -44034.603    13.348722   0.94528258 
   10300    200.82291   -262.83267    132099.35   -41485.032    2498.6188   -43983.651    13.521045   0.94545119 
   10400    203.12293   -289.46724    132026.16   -41420.828    2527.2354   -43948.064    13.471664    0.9459753 
   10500    204.28872   -285.94401    132097.77   -41395.093      2541.74   -43936.833    13.522668   0.94546252 
   10600    210.34425   -235.12478    132095.46   -41355.234    2617.0823   -43972.316    13.538252   0.94547907 
   10700    205.75475   -427.96813     132193.9   -41347.995    2559.9803   -43907.975    13.602027   0.94477496 
   10800    210.46331   -193.40726    132049.05   -41341.318    2618.5637   -43959.881    13.720447   0.94581135 
   10900    204.77249   -260.63399    132193.26   -41378.683    2547.7591   -43926.443     13.86267   0.94477955 
   11000    206.77219   -316.26883    132176.22   -41367.282    2572.6391   -43939.922    13.823284   0.94490137 
   11100    201.16493   -326.11653    132196.73   -41385.687    2502.8742   -43888.561     14.00254   0.94475474 
   11200    209.90369     -262.154     132204.8   -41389.717     2611.601   -44001.318    14.095646   0.94469708 
   11300    202.17563   -243.24053    132173.99   -41399.027    2515.4491   -43914.476    14.004958    0.9449173 
   11400    207.57948   -241.68273    132257.25   -41393.938    2582.6834   -43976.622    14.124779   0.94432243 
   11500    206.17199    -357.1682    132341.59   -41419.607    2565.1715   -43984.779    14.097902   0.94372068 
   11600     203.2298    -239.3078    132223.85   -41436.151     2528.565   -43964.716    14.106765   0.94456102 
   11700    207.69833   -324.23253     132496.6   -41334.677    2584.1621   -43918.839    14.231983   0.94261654 
   11800    204.18915   -343.71013    132539.03    -41406.46    2540.5012   -43946.961    14.294326   0.94231482 
   11900    205.49149   -212.67635    132370.37   -41417.722    2556.7048   -43974.427    14.377062   0.94351546 
   12000     207.2779   -246.99895    132398.64   -41422.374    2578.9312   -44001.305    14.368963   0.94331403 
   12100     205.4585   -323.00703    132513.67   -41397.265    2556.2944    -43953.56    14.261302   0.94249514 
   12200       203.58   -391.12293    132428.58   -41398.096    2532.9222   -43931.018    14.221952    0.9431007 
   12300    205.07508   -378.25753    132538.76   -41415.463    2551.5239   -43966.987    14.197476   0.94231671 
   12400    204.77668   -367.76058     132491.2   -41402.173    2547.8113   -43949.984    14.293324   0.94265498 
   12500    201.44155    -378.4376    132522.25   -41495.482    2506.3159   -44001.797    14.490583   0.94243412 
   12600    201.71351    -276.0706    132603.28   -41415.202    2509.6996   -43924.901    14.671035   0.94185823 
   12700    203.39848   -281.53664    132573.43   -41402.128    2530.6637   -43932.791    14.719092   0.94207033 
   12800     205.5492   -334.74489    132393.65   -41374.722    2557.4228   -43932.145    14.660232   0.94334958 
   12900    206.40711   -295.90154    132358.44    -41418.39    2568.0969   -43986.486    14.666801   0.94360049 
   13000    209.28593    -259.8514    132505.03   -41348.798    2603.9149   -43952.713    14.652349   0.94255663 
   13100    208.50842   -297.08252    132423.27   -41365.218    2594.2411   -43959.459    14.768775   0.94313853 
   13200    212.67224    -193.5961    132503.71   -41293.958     2646.047   -43940.005    14.840465   0.94256601 
   13300    212.20897   -313.10563     132464.1   -41345.984     2640.283   -43986.267    14.884906   0.94284784 
   13400     203.2752   -284.56568    132345.84    -41416.07    2529.1299     -43945.2    14.943962   0.94369037 
   13500    202.79589   -277.92921    132416.88   -41452.433    2523.1665   -43975.599    14.940727   0.94318409 
   13600     200.7629   -188.61131    132499.91   -41474.769    2497.8722   -43972.641    14.983611   0.94259305 
   13700     208.7078   -316.62359    132489.79   -41473.348    2596.7218    -44070.07    14.958283   0.94266503 
   13800    208.87523    -229.8852    132661.67   -41408.121     2598.805   -44006.926    15.056514   0.94144365 
   13900     208.7938   -374.49835    132605.53   -41452.869    2597.7919   -44050.661    15.190329   0.94184223 
   14000    206.84475   -165.83687    132645.24   -41443.737    2573.5419   -44017.279    15.227009   0.94156032 
   14100    206.73004   -298.77052    132436.35   -41446.007    2572.1148   -44018.122    15.268344   0.94304544 
   14200     203.7901   -331.22491    132468.04   -41478.467    2535.5362   -44014.003    15.304892   0.94281981 
   14300     202.2448   -233.74128    132617.47   -41532.489    2516.3098   -44048.799    15.305011   0.94175743 
   14400    201.75532   -366.71403    132673.64   -41505.595    2510.2198   -44015.814    15.350763   0.94135872 
   14500    205.31745   -205.10838     132789.6   -41460.818    2554.5395   -44015.358    15.479399   0.94053668 
   14600    207.11894   -331.44951    132823.52   -41482.812    2576.9534   -44059.766    15.405033   0.94029653 
   14700    204.24779   -392.40324    132722.58   -41515.417    2541.2308   -44056.648    15.356269   0.94101165 
   14800    205.73888     -297.245     132723.3   -41567.557    2559.7828    -44127.34    15.450588   0.94100653 
   14900    196.92437   -314.36035    132810.07   -41641.588    2450.1135   -44091.702    15.611667   0.94039172 
   15000    204.24458   -381.23232    132831.04    -41640.92    2541.1909   -44182.111    15.697195   0.94024326 
   15100    200.67301    -310.7996    132830.74   -41672.436    2496.7537    -44169.19    15.751763   0.94024541 
   15200    204.50331    -170.6451    132796.04   -41609.333      2544.41   -44153.743    15.759096    0.9404911 
   15300    200.23267   -259.87218    132969.31   -41626.545    2491.2751    -44117.82    15.787311   0.93926551 
   15400    201.84362   -309.58902    132834.22   -41620.674    2511.3183   -44131.993    15.833336   0.94022075 
   15500    202.32293   -285.48733    132836.76    -41596.71    2517.2819   -44113.992     15.86283   0.94020281 
   15600    210.75492    -352.0736    132867.88   -41545.823    2622.1919   -44168.015    15.948574   0.93998254 
   15700    202.36302   -303.66289     132940.1   -41622.199    2517.7807    -44139.98    15.970613   0.93947194 
   15800    202.64195   -462.47663    132831.86   -41628.495    2521.2511   -44149.746    15.816211   0.94023748 
   15900    202.62046   -289.44494    132731.35   -41648.679    2520.9837   -44169.662    16.012034   0.94094942 
   16000    204.07451   -113.88197    132673.15   -41599.366    2539.0749   -44138.441    16.030394    0.9413622 
   16100    206.58607   -225.12681    132692.99   -41552.116    2570.3234    -44122.44    16.105347   0.94122146 
   16200    202.29189   -375.32058       132660   -41610.772    2516.8957   -44127.667    16.152915   0.94145554 
   16300    203.06215   -232.46968    132679.21   -41616.846    2526.4792   -44143.325    16.110648   0.94131924 
   16400    206.44979   -253.14966    132847.37   -41535.669    2568.6279   -44104.297    16.103339   0.94012766 
   16500     206.2654   -344.67427    132761.39   -41522.276    2566.3337    -44088.61    16.119221   0.94073652 
   16600     207.8652    -236.4064    132874.18   -41504.682    2586.2382    -44090.92    16.137694   0.93993803 
   16700    205.96078   -263.32468    132750.63   -41535.731    2562.5437   -44098.274    16.098728   0.94081276 
   16800    207.13293   -407.11212    132872.57   -41536.694    2577.1274   -44113.822    16.305504   0.93994941 
   16900    206.29926   -501.00556    132689.21   -41502.804     2566.755   -44069.559    16.299308    0.9412483 
   17000    207.43301   -214.45944    132799.68   -41539.394     2580.861   -44120.255    16.445992   0.94046533 
   17100    205.75875   -532.68819    132867.96   -41470.959      2560.03   -44030.989    16.332799   0.93998202 
   17200    208.62122   -246.83509    132710.08   -41483.799    2595.6446   -44079.444    16.414088   0.94110027 
   17300    206.72665   -250.25081     132705.2   -41539.343    2572.0725   -44111.416    16.365738   0.94113487 
   17400    205.70563   -314.89186    132667.19   -41550.539    2559.3691   -44109.908    16.345509   0.94140451 
   17500    210.43827   -166.34517    132633.23   -41531.055    2618.2522   -44149.307    16.401585   0.94164556 
   17600     206.8076   -195.52389    132711.45   -41521.948    2573.0797   -44095.027    16.464926   0.94109052 
   17700    204.32096   -319.19428    132730.05   -41541.176    2542.1412   -44083.317    16.570003   0.94095869 
   17800    208.44075      -329.17    132770.25   -41526.953    2593.3992   -44120.353    16.596642   0.94067379 
   17900    206.95338   -229.44247    132873.74   -41513.801    2574.8935   -44088.694    16.554862   0.93994111 
   18000    210.80303   -270.76617    132902.69   -41474.287    2622.7904   -44097.078    16.650531   0.93973634 
   18100    203.09576   -283.58908    132752.56   -41575.849    2526.8974   -44102.746    16.629916   0.94079909 
   18200    205.68133   -195.81446    132855.08    -41578.35    2559.0668   -44137.417    16.621504   0.94007311 
   18300    208.81433    -232.4823    132883.53   -41512.358    2598.0472   -44110.405     16.68051   0.93987186 
   18400    206.17004   -238.97418    132840.64   -41570.006    2565.1472   -44135.153    16.794265   0.94017535 
   18500    203.83341   -225.25135    132734.76   -41544.027    2536.0751   -44080.102    16.546133   0.94092527 
   18600    204.89142    -508.0948    132789.17   -41576.422    2549.2387    -44125.66    16.611122   0.94053976 
   18700    208.77673   -365.25631    132711.68   -41563.426    2597.5794   -44161.006    16.644928   0.94108889 
   18800    205.23831   -243.40278    132811.04   -41535.638    2553.5547   -44089.193    16.686344   0.94038485 
   18900    205.59336   -183.97573    132953.05   -41570.085    2557.9723   -44128.057    16.689584   0.93938042 
   19000     210.9414   -278.48876    132933.15   -41538.069     2624.512   -44162.581    16.748227   0.93952107 
   19100    203.52411   -246.61355    133008.88   -41589.185    2532.2269   -44121.412    16.802227   0.93898611 
   19200     205.3445   -258.82839    132866.12   -41580.718    2554.8759   -44135.594    16.662121   0.93999503 
   19300    209.41014   -315.13053    132841.59    -41531.81    2605.4603   -44137.271    16.728082   0.94016859 
   19400    206.25363   -398.02301    132766.62   -41543.845    2566.1873   -44110.033    16.782514    0.9406995 
   19500    205.41331   -307.64487    132864.68   -41528.114    2555.7321   -44083.846    16.938678    0.9400052 
   19600    206.84661   -449.51215    133023.04   -41573.669    2573.5651   -44147.234    17.112388   0.93888616 
   19700    210.20286   -229.72926     132953.6   -41561.495    2615.3233   -44176.818    17.143775   0.93937653 
   19800    207.53948   -301.39336    133065.68   -41597.534    2582.1857    -44179.72    17.240886   0.93858527 
   19900    205.70528   -309.25415    133032.11   -41599.942    2559.3647   -44159.307    17.219333   0.93882212 
   20000    203.37779    -214.8332    133084.89   -41648.619    2530.4063   -44179.025    17.165549   0.93844979 
   20100    207.15869   -128.34741    133221.65    -41617.39    2577.4479   -44194.838     17.14727   0.93748643 
   20200    203.72689    -320.7306    133274.85   -41657.133    2534.7499   -44191.882    17.350647   0.93711219 
   20300    201.18421   -447.69879    133290.78   -41689.537     2503.114   -44192.651    17.476072   0.93700023 
   20400    202.86907   -386.62846    133312.12   -41687.017    2524.0769   -44211.094    17.482741   0.93685021 
   20500    205.30318   -308.36763    133295.96   -41657.641    2554.3619   -44212.003    17.404863   0.93696378 
   20600      204.103   -340.72594    133324.94    -41690.75    2539.4293   -44230.179    17.445239   0.93676014 
   20700    205.61447   -344.22058    133193.43   -41644.188     2558.235   -44202.423    17.397793   0.93768508 
   20800    205.34712   -213.73402    133346.64   -41636.028    2554.9085   -44190.936    17.580226   0.93660769 
   20900    202.64715   -328.36279    133292.62   -41664.378    2521.3158   -44185.693    17.525272   0.93698728 
   21000    200.44059    -263.3395    133304.86   -41754.211     2493.862   -44248.073    17.453923   0.93690125 
   21100    202.08868   -376.30498    133331.13   -41775.074    2514.3674   -44289.441    17.481482   0.93671665 
   21200     202.7315   -200.14209    133394.74   -41741.315    2522.3653    -44263.68     17.53488   0.93627001 
   21300    202.17848   -309.67319    133388.94    -41762.81    2515.4847   -44278.294    17.609815   0.93631068 
   21400    200.80354   -172.41034    133379.83   -41728.892    2498.3778   -44227.269    17.631921   0.93637464 
   21500    202.49908   -287.15999    133444.06   -41710.239    2519.4735   -44229.713    17.619798   0.93592396 
   21600    203.84404   -300.79896    133377.94   -41662.995    2536.2074   -44199.202    17.584028    0.9363879 
   21700    205.32527   -216.33446    133387.69   -41644.574    2554.6367   -44199.211    17.674659   0.93631947 
   21800    208.15193   -285.86473    133343.67   -41641.463    2589.8057   -44231.269    17.570093   0.93662855 
   21900    206.21821   -291.46781    133334.47   -41669.196    2565.7465   -44234.943    17.640161   0.93669322 
   22000    206.22964   -235.57791    133586.55   -41699.045    2565.8888   -44264.933     17.71389   0.93492567 
   22100    210.95871   -356.80297    133707.41   -41642.598    2624.7274   -44267.326      17.8549   0.93408054 
   22200    201.21226   -211.47343    133769.63   -41682.054    2503.4631   -44185.517    17.810439   0.93364609 
   22300    203.54645    -350.2437    133701.04   -41655.553    2532.5049   -44188.058    17.826972   0.93412509 
   22400    205.40585   -353.61966     133508.1   -41627.084    2555.6393   -44182.724     17.78718   0.93547504 
   22500    201.44439   -419.66214    133466.01   -41624.201    2506.3512   -44130.552    17.979892      0.93577 
   22600    207.01502   -271.13618    133527.44   -41590.916    2575.6604   -44166.576    17.976311   0.93533951 
   22700    204.14037   -422.21001    133373.09   -41601.815    2539.8944    -44141.71    17.827803   0.93642195 
   22800    207.85128   -375.46906    133198.83   -41585.151     2586.065   -44171.216    17.896591   0.93764703 
   22900    205.88911     -295.933    133034.51   -41620.291     2561.652   -44181.943    17.732105   0.93880522 
   23000    208.06308   -236.31407    133169.53   -41602.839    2588.7002   -44191.539    17.927707   0.93785336 
   23100    201.93648   -245.75439    133259.91   -41705.877    2512.4737   -44218.351    18.032307   0.93721727 
   23200    204.06852    -361.4815    133232.15   -41653.636    2539.0004   -44192.636     18.12893   0.93741253 
   23300    203.83172   -346.77655    133217.22   -41696.863    2536.0541   -44232.917    18.207357   0.93751759 
   23400     204.7807   -466.66125    133113.11   -41653.349    2547.8613    -44201.21    18.116983   0.93825084 
   23500    207.46817   -235.00648    133109.97   -41675.859    2581.2984   -44257.158    18.139197   0.93827298 
   23600    205.13099   -343.69358    133001.66   -41656.921    2552.2195    -44209.14    18.096685   0.93903711 
   23700     207.2977   -189.95224    132946.78   -41678.056    2579.1775   -44257.233    18.114464   0.93942471 
   23800     198.3323   -361.57429    132978.51    -41734.13    2467.6309   -44201.761    18.133983   0.93920058 
   23900    203.85967   -208.29882    133067.51   -41735.452    2536.4019   -44271.853    18.158024   0.93857241 
   24000    210.39904   -347.71014    133133.27   -41680.817     2617.764   -44298.581    17.992114   0.93810879 
   24100    203.88643   -327.90894    133266.19   -41692.899    2536.7348   -44229.634    18.090656   0.93717309 
   24200    203.65513   -290.04522    133308.74   -41752.023     2533.857    -44285.88    18.169939   0.93687398 
   24300    203.76737   -286.64454    133192.47   -41727.798    2535.2535   -44263.051     18.23788   0.93769182 
   24400    203.49717   -322.40491    133257.51   -41769.118    2531.8917    -44301.01    18.282143   0.93723418 
   24500    204.51267    -368.8574    133363.37    -41731.14    2544.5265   -44275.667    18.402943   0.93649023 
   24600    203.96596   -287.10256    133305.55   -41728.997    2537.7243   -44266.722    18.318292   0.93689643 
   24700    203.46852   -326.61433    133342.97   -41729.077    2531.5353   -44260.612    18.316541    0.9366335 
   24800    202.78419   -133.22022    133310.38    -41736.45    2523.0208   -44259.471    18.314508   0.93686247 
   24900    201.69655   -347.64953     133389.9   -41692.335    2509.4885   -44201.824    18.434146   0.93630396 
   25000    208.50455   -255.91006    133535.98   -41676.211     2594.193   -44270.404    18.473354   0.93527972 
   25100     203.3188   -253.69328    133338.88   -41668.249    2529.6724   -44197.921    18.521761   0.93666223 
   25200    202.92318   -320.43745       133485   -41697.459    2524.7501   -44222.209    18.481321   0.93563689 
   25300    202.73912   -345.53426    133495.96   -41699.878    2522.4601   -44222.338    18.513475   0.93556007 
   25400    203.88014    -266.8607    133469.93   -41693.177    2536.6566   -44229.834    18.567474   0.93574255 
   25500    205.35549   -311.27329     133312.1    -41656.94    2555.0127   -44211.953    18.579524   0.93685034 
   25600    202.67346   -178.65659    133277.19   -41719.611    2521.6431   -44241.254    18.663023    0.9370958 
   25700    201.54851   -313.04575    133240.65   -41744.537    2507.6467   -44252.183    18.601476   0.93735279 
   25800    205.33794   -257.70518    133277.52   -41710.262    2554.7943   -44265.057    18.736517   0.93709346 
   25900    203.53837   -260.97609    133305.31   -41676.659    2532.4043   -44209.063    18.841685   0.93689813 
   26000    205.53833   -282.25144    133398.31   -41614.957    2557.2876   -44172.244    18.740514   0.93624492 
   26100    200.97882   -49.353185    133551.62   -41685.301    2500.5586    -44185.86    18.837834   0.93517019 
   26200    205.15714   -293.22021    133519.87   -41692.861    2552.5448   -44245.406     18.92899   0.93539256 
   26300    206.58568   -322.31298    133590.83   -41667.885    2570.3186   -44238.203    19.022813   0.93489567 
   26400    202.95356   -447.44283    133718.72   -41660.352    2525.1281    -44185.48     19.06101   0.93400152 
   26500    209.08029   -359.40913    133627.93   -41706.313    2601.3564    -44307.67    18.976806   0.93463616 
   26600    199.46976   -291.15628     133417.1   -41739.057     2481.783    -44220.84    18.998961   0.93611304 
   26700    202.43466   -189.36559    133424.03   -41743.243     2518.672   -44261.915    18.919818   0.93606444 
   26800    205.38117   -265.49402    133568.25    -41679.99    2555.3323   -44235.322    19.016363   0.93505375 
   26900    205.37433   -269.37373    133776.67   -41682.949    2555.2471   -44238.196    19.077201   0.93359695 
   27000    204.73204   -269.08167    133658.02   -41737.384    2547.2558    -44284.64    19.141276   0.93442572 
   27100    205.68599   -251.63619    133774.48   -41751.356    2559.1247   -44310.481    19.228869   0.93361223 
   27200    202.56968   -290.72858    133689.76   -41768.575     2520.352   -44288.927    19.302041   0.93420388 
   27300    203.18642   -113.33637    133691.01   -41780.274    2528.0253   -44308.299    19.079028   0.93419511 
   27400     205.6641   -385.36283    133685.64   -41738.609    2558.8524   -44297.461    19.031555   0.93423266 
   27500    203.58447   -320.83865    133600.93   -41675.962    2532.9779    -44208.94    19.156469   0.93482501 
   27600    204.77761   -159.27726    133640.69    -41700.58    2547.8228   -44248.403    19.247406   0.93454689 
   27700    208.33476   -252.60608    133803.42    -41709.98    2592.0805   -44302.061    19.277411   0.93341031 
   27800    207.41785    -315.3913    133726.37   -41653.001    2580.6724   -44233.674     19.33177   0.93394813 
   27900    205.89589   -308.53357    133854.07    -41689.13    2561.7364   -44250.867    19.347621   0.93305711 
   28000    204.22971   -178.73403     133880.4    -41736.45    2541.0059   -44277.456    19.235369   0.93287359 
   28100    208.78162   -393.43805    133833.88     -41716.6    2597.6403   -44314.241    19.324967   0.93319783 
   28200    203.66709   -286.44274    133826.25   -41766.936    2534.0058   -44300.942    19.291791   0.93325108 
   28300    205.00014   -255.22132    133930.48   -41748.051    2550.5914   -44298.642    19.454217   0.93252476 
   28400    203.57196   -291.19386    133988.56   -41806.593    2532.8222   -44339.415    19.432969   0.93212055 
   28500    204.68255   -511.21786    133973.45   -41824.609    2546.6401   -44371.249    19.382319   0.93222568 
   28600    206.69253    -260.7825    133803.15    -41790.09     2571.648   -44361.738    19.556461   0.93341219 
   28700    202.53143   -334.87953    133783.71   -41797.536    2519.8761   -44317.412    19.441732    0.9335478 
   28800    206.55237   -400.16654    133762.38   -41767.406    2569.9042    -44337.31    19.347393   0.93369666 
   28900    205.05141   -408.98623    133682.89   -41729.927    2551.2293   -44281.156    19.397015   0.93425187 
   29000    202.72797   -171.10887    133903.73   -41785.686    2522.3214   -44308.007    19.322854   0.93271104 
   29100    207.26575   -359.58568     134067.1   -41724.865    2578.7799   -44303.644    19.329555   0.93157452 
   29200    204.74526   -372.55087    133935.89   -41690.408    2547.4203   -44237.828    19.378101   0.93248712 
   29300    206.47932   -253.27546    134085.62   -41752.578    2568.9953   -44321.574    19.528738    0.9314458 
   29400    204.38392   -250.60829    134016.87   -41814.174    2542.9246   -44357.098    19.495642   0.93192366 
   29500    204.34759   -232.98736    133938.12   -41838.012    2542.4725   -44380.485    19.609739   0.93247157 
   29600    205.33935   -285.65632    133865.78   -41760.237    2554.8118   -44315.049    19.674105   0.93297546 
   29700    204.12576   -215.65745     133737.2   -41789.058    2539.7125   -44328.771    19.625498    0.9338725 
   29800    201.39052   -259.74469    133752.36   -41776.681    2505.6809   -44282.362    19.688215   0.93376662 
   29900    204.85495    -351.8203    133824.56   -41804.365     2548.785    -44353.15    19.594829   0.93326285 
   30000    202.86352   -231.97433    133789.68   -41791.183    2524.0078    -44315.19    19.533765   0.93350616 
   30100    204.91427   -304.08774    133843.24   -41776.731    2549.5231   -44326.254    19.380145    0.9331326 
   30200    201.49318   -251.63749    133857.04    -41779.46    2506.9582   -44286.419     19.49451   0.93303644 
   30300    203.48291   -348.15366    133800.92   -41738.445    2531.7142   -44270.159    19.672367   0.93342773 
   30400    206.95658   -152.08982    133773.41   -41721.301    2574.9333   -44296.234    19.744234   0.93361971 
   30500    208.95814   -251.59198    133822.14    -41737.96    2599.8365   -44337.796    19.750565   0.93327976 
   30600    207.56047   -304.76701    133882.49   -41734.212    2582.4469   -44316.659    19.759158   0.93285906 
   30700    204.32041   -391.64331    133873.51    -41765.34    2542.1343   -44307.474    19.819397   0.93292159 
   30800     205.9477   -206.45861    133877.56   -41703.156     2562.381   -44265.537     19.64493    0.9328934 
   30900    201.33327   -258.36608    133870.02   -41803.514    2504.9686   -44308.483    19.712652   0.93294595 
   31000    202.11703   -327.51568    133850.93   -41839.921    2514.7201   -44354.641    19.737181   0.93307898 
   31100    201.77566   -387.08553    133847.87   -41830.522    2510.4728   -44340.995    19.749445   0.93310036 
   31200    203.21863   -258.60301    133903.43   -41835.428    2528.4261   -44363.854    19.825918   0.93271314 
   31300     207.7452   -331.14062    133965.12   -41793.397    2584.7452   -44378.142     19.97524   0.93228362 
   31400    205.22678   -261.30673     133870.8   -41762.101    2553.4114   -44315.512    19.849365   0.93294053 
   31500    204.22232    -257.7788    133913.44   -41798.215    2540.9139   -44339.129    20.014048   0.93264346 
   31600    207.96602   -349.72577    133820.44   -41732.945    2587.4927   -44320.438    19.801714    0.9332916 
   31700    207.30491   -304.23449     133939.3    -41782.68    2579.2672   -44361.947    19.972309   0.93246336 
   31800    207.30717   -176.44343    133992.77   -41735.388    2579.2954   -44314.683    20.025335   0.93209128 
   31900    206.31673   -275.48258    133937.05   -41724.333    2566.9723   -44291.305      20.0862   0.93247904 
   32000    209.46426   -233.47041    133919.49    -41730.65    2606.1337   -44336.783     20.09646   0.93260132 
   32100    210.27733   -320.95815    134011.67    -41746.03    2616.2497   -44362.279    20.104259    0.9319598 
   32200    206.20911     -348.375    133998.67   -41742.998    2565.6333   -44308.632    20.080958   0.93205025 
   32300    202.16076   -286.72543     133931.4   -41716.671    2515.2642   -44231.935    20.179956   0.93251838 
   32400    204.27483   -264.81472    134006.14   -41785.642    2541.5672   -44327.209    20.295915   0.93199831 
   32500    207.22971   -304.29532    133990.73   -41786.913    2578.3315   -44365.245     20.29255   0.93210549 
   32600    208.64693   -225.95502    133961.32   -41750.643    2595.9645   -44346.608    20.268161   0.93231007 
   32700    205.99579   -310.05421    134026.87   -41820.849    2562.9793   -44383.828    20.231254   0.93185412 
   32800    201.89337   -273.71992    134024.46   -41856.574    2511.9374   -44368.512    20.162296   0.93187087 
   32900    206.24523   -239.08453    134029.28   -41849.767    2566.0827   -44415.849    20.253838    0.9318374 
   33000    206.95303   -250.15375    134121.72   -41907.159    2574.8891   -44482.049    20.400313   0.93119515 
   33100    200.76712   -341.28356     134148.3   -41844.669    2497.9247   -44342.593    20.418558   0.93101063 
   33200    201.77318   -365.76885    133982.77   -41877.007     2510.442   -44387.449    20.453153   0.93216083 
   33300    207.00257   -368.31488     134066.2    -41819.02    2575.5055   -44394.525    20.499174   0.93158077 
   33400    201.93582   -344.30278    133980.44   -41889.531    2512.4655   -44401.997    20.362494   0.93217707 
   33500    204.82356   -304.84466    133975.37   -41859.842    2548.3945   -44408.237    20.316756   0.93221233 
   33600     206.1715   -346.65075    133958.79   -41837.036    2565.1654   -44402.201    20.281038    0.9323277 
   33700    206.67986   -355.83308    133779.36   -41831.818    2571.4904   -44403.309      20.4441   0.93357817 
   33800    203.24045   -273.03954    133794.66   -41841.465    2528.6976   -44370.162    20.598781   0.93347144 
   33900    205.52591   -196.25897    133863.82   -41854.069    2557.1331   -44411.203    20.612914   0.93298913 
   34000    204.95774    -203.1905    133990.84   -41818.276    2550.0639    -44368.34    20.565492   0.93210473 
   34100    204.63977   -193.38468    134079.44   -41855.542    2546.1078    -44401.65    20.649552   0.93148874 
   34200    205.43416   -332.79326    134157.98   -41858.119    2555.9915   -44414.111    20.532047    0.9309434 
   34300     203.3184   -309.77057    134025.14   -41911.903    2529.6674   -44441.571    20.571229   0.93186613 
   34400    206.60491   -200.85595    133927.77   -41846.838    2570.5578   -44417.396    20.577463   0.93254365 
   34500    204.90688   -282.32542    134022.14   -41873.537    2549.4312   -44422.968    20.654128   0.93188701 
   34600     208.0472   -142.31577    134089.48    -41862.57    2588.5027   -44451.073      20.6812   0.93141901 
   34700    204.86507   -472.30467    134082.61   -41946.133    2548.9109   -44495.044    20.868549   0.93146672 
   34800    204.20765   -341.94588    133999.73   -41935.934    2540.7314   -44476.665    20.801519   0.93204285 
   34900    200.30427   -293.85137    133934.46   -41928.619    2492.1659   -44420.785    20.766697   0.93249707 
   35000    200.72515   -270.47676    133964.56   -41998.302    2497.4025   -44495.704    20.714728   0.93228757 
   35100    202.17642   -363.02244    133853.77   -41942.716    2515.4591   -44458.175    20.805594   0.93305917 
   35200    203.38301   -267.40691    133895.56   -41946.928    2530.4713   -44477.399    20.728038   0.93276796 
   35300     202.8573   -364.64593    133886.36   -41939.083    2523.9305   -44463.013     20.73445   0.93283206 
   35400    199.06273   -287.61681    134081.44   -41958.838    2476.7189   -44435.557    20.750874   0.93147484 
   35500    206.03237   -213.51484    134027.52   -41875.836    2563.4344    -44439.27    20.957649    0.9318496 
   35600    207.59294   -293.63093    134113.75   -41911.152    2582.8509   -44494.002    21.020814   0.93125046 
   35700    203.84407   -382.53829    133983.35    -41884.16    2536.2078   -44420.368    20.972941    0.9321568 
   35800    205.42912   -284.01123    134044.21   -41916.801    2555.9288    -44472.73     20.90002   0.93173359 
   35900    204.56523   -245.60203    133978.45   -41879.727    2545.1804   -44424.907    20.814375   0.93219088 
   36000    201.85135   -309.75045    133943.86   -41844.234    2511.4146   -44355.648    20.789124   0.93243161 
   36100    204.73402   -273.40418    134106.88   -41856.324    2547.2804   -44403.604    20.780191   0.93129814 
   36200    205.97712   -173.19856    134255.13   -41880.326     2562.747   -44443.073    20.832432   0.93026978 
   36300     203.7375   -243.60158     134173.7   -41942.679    2534.8818   -44477.561    20.872417   0.93083434 
   36400    205.91647   -194.12654    134267.42   -41892.136    2561.9924   -44454.129    21.040026   0.93018464 
   36500    206.39299   -285.63031    134336.28   -41873.095    2567.9212   -44441.017    21.075191   0.92970781 
   36600    201.55965   -360.79726    134223.14   -41985.745    2507.7852   -44493.531    20.993941   0.93049151 
   36700     204.1352   -362.51485    134246.08   -41937.639      2539.83   -44477.469    21.032689   0.93033253 
   36800    204.80014   -339.37798    134299.63   -41950.531    2548.1031   -44498.634    20.972156   0.92996157 
   36900     204.0384    -239.7734     134252.2   -41963.223    2538.6256   -44501.849    20.883497   0.93029011 
   37000    204.34832    -229.8807    134186.26   -41906.165    2542.4816   -44448.647    20.959984   0.93074721 
   37100    209.55311   -319.60371    134346.77   -41898.448     2607.239   -44505.687    21.037685   0.92963526 
   37200    203.96504    -297.1364    134107.25   -41942.526    2537.7128   -44480.239    21.107831   0.93129563 
   37300    203.43746   -303.81511    134168.63   -41952.494    2531.1488   -44483.643    21.154017   0.93086956 
   37400    201.77119   -390.21783    134237.85   -41979.835    2510.4173   -44490.252    21.160099   0.93038956 
   37500    205.62515   -418.43473    134147.22     -41984.5    2558.3678   -44542.868    21.088081    0.9310181 
   37600    207.42621   -305.80527    134189.86   -41944.021    2580.7764   -44524.798    21.087767    0.9307223 
   37700      202.316   -301.27137    134101.36   -41949.865    2517.1956   -44467.061    21.080375   0.93133649 
   37800    201.65391   -340.61761    134130.31   -42032.393     2508.958   -44541.351    21.128076   0.93113549 
   37900    203.66494   -316.40082    134131.05   -41982.314     2533.979   -44516.293    21.145723   0.93113036 
   38000    201.38342   -299.23274    134196.47   -41961.938    2505.5926    -44467.53    21.224765    0.9306764 
   38100    201.44286   -406.08601    134380.33   -41914.599    2506.3322   -44420.931    21.112782   0.92940309 
   38200    200.89845   -393.48924    134307.65   -41930.894    2499.5587   -44430.453    21.238666   0.92990603 
   38300    208.16796   -393.47945    134184.75   -41866.719    2590.0052   -44456.725    21.139322    0.9307577 
   38400    203.26084   -208.98849    134176.94   -41924.241    2528.9513   -44453.192    21.158301   0.93081187 
   38500    201.85842   -206.16019    134331.69   -41940.974    2511.5025   -44452.477    21.199492   0.92973959 
   38600    205.84288   -180.05604     134385.6   -41892.758    2561.0767   -44453.835     21.15953   0.92936666 
   38700    205.89191   -199.35101    134337.43    -41910.98    2561.6868   -44472.666    21.114172   0.92969984 
   38800     202.1632   -251.86825    134369.09   -41929.154    2515.2945   -44444.449    21.232989   0.92948078 
   38900    204.89772   -374.40388    134365.59   -41888.269    2549.3172   -44437.586     21.26852     0.929505 
   39000    206.23205   -249.77362    134315.37   -41923.637    2565.9188   -44489.556    21.340866   0.92985257 
   39100    205.28975   -241.56355    134423.41   -41896.567    2554.1948   -44450.762    21.360928   0.92910522 
   39200    205.83898   -281.59283    134456.24   -41928.776    2561.0282   -44489.805    21.360936   0.92887839 
   39300    202.61551   -223.57836    134397.26   -41924.251    2520.9222   -44445.173    21.248923   0.92928602 
   39400    202.31363   -384.06135    134344.01   -41888.395    2517.1662   -44405.561    21.290134   0.92965432 
   39500    208.39215   -319.97078    134285.43   -41861.435    2592.7945   -44454.229    21.324426   0.93005986 
   39600    208.15523   -405.86925    134199.29   -41899.316    2589.8468   -44489.162    21.275658   0.93065688 
   39700    205.93876   -360.56847     134183.5   -41858.653    2562.2696   -44420.922    21.393869   0.93076641 
   39800    205.48159   -222.13521    134240.32   -41915.487    2556.5816   -44472.068    21.259731   0.93037239 
   39900    198.58108   -388.37338    134323.06   -41959.407    2470.7262   -44430.133    21.279723   0.92979931 
   40000    202.14904   -370.98402    134400.18   -41978.335    2515.1184   -44493.453    21.396534   0.92926577 
   40100    206.62513    -328.7813    134345.65   -41895.281    2570.8094   -44466.091    21.515145     0.929643 
   40200     205.5725   -213.55401    134335.25   -41906.287    2557.7127   -44463.999    21.559348   0.92971495 
   40300    207.62077   -325.08248    134421.41   -41896.797    2583.1971   -44479.994    21.650085   0.92911901 
   40400    210.30647   -408.27479    134469.09    -41818.04    2616.6123   -44434.653    21.593136   0.92878957 
   40500    207.03489   -467.83484    134355.32   -41826.635    2575.9076   -44402.542    21.591884   0.92957609 
   40600    207.78932   -325.44599    134304.31   -41873.856    2585.2942    -44459.15    21.487041   0.92992912 
   40700     206.4259   -311.84787    134310.96   -41924.266    2568.3306   -44492.596    21.394184    0.9298831 
   40800    202.63644   -352.39491    134252.62   -41960.852    2521.1826   -44482.035    21.444547   0.93028721 
   40900    201.60058   -194.01415    134287.13   -41989.011    2508.2945   -44497.306    21.637551   0.93004807 
   41000    206.41622   -205.19932    134242.46   -41912.283    2568.2102   -44480.493    21.692381   0.93035757 
   41100    206.91052   -359.96845    134287.13   -41895.201    2574.3602   -44469.562      21.7004   0.93004809 
   41200    208.71264   -318.74755    134311.56   -41909.874     2596.782   -44506.656    21.652638   0.92987891 
   41300    201.02397   -258.47041    134457.73    -42053.75    2501.1203   -44554.871    21.523469   0.92886803 
   41400    198.62363   -275.84821    134557.27   -42004.547    2471.2556   -44475.803    21.584872    0.9281809 
   41500    201.18481   -246.09402    134555.26   -42001.562    2503.1215   -44504.683    21.550773    0.9281948 
   41600    202.86238   -226.27774    134456.75   -41947.248    2523.9937   -44471.242    21.659541   0.92887485 
   41700    204.63512   -380.86305     134487.2    -41927.33    2546.0499    -44473.38    21.617891   0.92866449 
   41800    204.92237   -322.62176     134585.1   -41938.556    2549.6239    -44488.18    21.722937   0.92798896 
   41900    207.78222   -419.62744    134576.73   -41935.654    2585.2058   -44520.859    21.815846   0.92804673 
   42000    201.76027   -318.98449    134577.43   -41931.052    2510.2813   -44441.333    21.768438   0.92804191 
   42100    203.60114   -323.17652    134618.13    -41921.02    2533.1853   -44454.205    21.706471   0.92776131 
   42200     208.8007   -400.01237    134611.58    -41885.22    2597.8777   -44483.098    21.710256   0.92780645 
   42300    203.55225   -298.70814    134545.99   -41868.995     2532.577   -44401.572    21.941128   0.92825875 
   42400    204.99656   -267.50454    134502.55   -41912.006     2550.547   -44462.553    21.912417   0.92855857 
   42500     206.3433   -263.48715     134510.3   -41917.717    2567.3029    -44485.02     21.92666   0.92850504 
   42600    207.92574   -380.45392    134570.39   -41929.499    2586.9915   -44516.491    21.907819   0.92809042 
   42700    204.75493   -256.50439    134384.51   -41929.045    2547.5406   -44476.586    21.882258   0.92937419 
   42800    207.98525   -320.07543    134429.11   -41895.489    2587.7319    -44483.22    21.846169   0.92906583 
   42900     201.9089   -314.95632    134532.77   -41955.236    2512.1306   -44467.366    21.652829   0.92834995 
   43000     204.5022   -285.12861    134632.44   -41980.073    2544.3962   -44524.469    21.804886   0.92766268 
   43100    205.82187   -224.31847    134628.11   -41968.677    2560.8153   -44529.492    21.802858   0.92769251 
   43200    204.72042   -321.75101     134600.9   -41915.512    2547.1112   -44462.624    22.013113   0.92788006 
   43300    204.82792   -352.88492    134611.16   -41926.696    2548.4488   -44475.145    21.981489   0.92780931 
   43400    208.45423   -360.71768    134710.77   -41885.616    2593.5669   -44479.183    21.978091   0.92712328 
   43500    207.94404   -245.84457    134748.47   -41899.265    2587.2192   -44486.484    21.917852   0.92686392 
   43600    209.00299   -193.44467     134662.6   -41822.394    2600.3946   -44422.788    21.753767   0.92745492 
   43700    210.37482   -340.98251    134724.48   -41851.202    2617.4627   -44468.665    21.831242   0.92702895 
   43800    210.14017   -182.84069    134647.87   -41864.547    2614.5433   -44479.091    21.975326   0.92755639 
   43900    207.70011   -386.32165    134716.46   -41912.952    2584.1842   -44497.136    22.015998   0.92708413 
   44000    205.72013   -422.86865    134721.64   -41932.757    2559.5495   -44492.307    22.017305   0.92704846 
   44100    203.25347   -365.90128    134790.01   -41959.914    2528.8595   -44488.774    21.961426   0.92657826 
   44200    201.80029   -393.36158    134710.51   -41997.137    2510.7793   -44507.916     22.02757   0.92712505 
   44300    203.46683   -322.45288    134504.33   -42003.162    2531.5142   -44534.677    22.090299   0.92854626 
   44400    206.06596   -369.07158    134526.02   -41962.005    2563.8523   -44525.858    21.911093   0.92839656 
   44500    202.91688   -275.76731    134456.58   -41997.729    2524.6718   -44522.401    21.933247     0.928876 
   44600    198.48572    -213.6247    134407.67   -42044.268    2469.5397   -44513.808    22.026752   0.92921401 
   44700    202.06638   -287.69838    134315.38   -42019.877    2514.0899   -44533.967    21.998209   0.92985248 
   44800    201.61279   -227.45616    134420.04   -41979.328    2508.4464   -44487.774     22.03433    0.9291285 
   44900    205.35756   -258.21164    134341.55   -41936.095    2555.0384   -44491.133    22.092409   0.92967133 
   45000    206.61351    -250.6581     134382.3    -41924.71    2570.6649   -44495.375    22.057552   0.92938943 
   45100    208.46312   -257.87569    134371.55   -41883.327    2593.6775   -44477.005    21.923112   0.92946379 
   45200    204.63639   -232.69662    134432.19    -41943.44    2546.0657   -44489.506    21.974085   0.92904455 
   45300    205.87809   -320.75028    134498.94    -41944.69    2561.5148   -44506.205    22.010952   0.92858349 
   45400    204.87754   -302.69482    134564.81   -41928.172    2549.0661   -44477.238    22.032637   0.92812893 
   45500    208.00604   -275.50897    134587.76   -41932.875    2587.9905   -44520.865    22.112616   0.92797067 
   45600    206.67463   -156.65243    134673.88    -41932.86    2571.4253   -44504.285    22.025067   0.92737726 
   45700    202.40777   -318.90389    134673.57   -41932.471    2518.3374   -44450.808    21.987985   0.92737936 
   45800    209.94762    -393.1759    134768.45   -41900.975    2612.1475   -44513.123    22.017288   0.92672646 
   45900    209.44533   -344.16164    134816.82   -41838.228    2605.8981   -44444.126    22.058642   0.92639397 
   46000    210.00877   -274.66754    134816.61   -41836.157    2612.9084   -44449.066    22.182144   0.92639539 
   46100    211.55676   -194.48524    134929.63   -41798.635    2632.1683   -44430.803     22.20359   0.92561949 
   46200    214.88522   -329.36505    134768.36   -41799.707    2673.5806   -44473.288    22.122546   0.92672707 
   46300    208.05492   -306.69817    134824.92   -41823.415    2588.5987   -44412.014    22.267224   0.92633835 
   46400    208.74838   -352.00377    134754.67   -41864.316    2597.2267   -44461.543    22.119692   0.92682126 
   46500    205.42526   -258.27579     134573.5   -41880.848    2555.8807   -44436.729    21.929681   0.92806901 
   46600    210.71791   -197.45713    134638.11   -41872.722    2621.7313   -44494.454    22.005146   0.92762365 
   46700    204.68535   -284.64086    134670.33   -41935.464    2546.6749   -44482.139    22.011321   0.92740172 
   46800    199.56771   -310.74625    134555.98   -41989.936    2483.0017   -44472.937    22.176005    0.9281898 
   46900    205.49872   -247.39217    134498.91   -41927.399    2556.7948   -44484.194    22.246206   0.92858369 
   47000    206.79269   -194.76846    134470.54    -41899.23    2572.8942   -44472.124    22.109662   0.92877959 
   47100    204.75835    -388.3552    134508.46   -41878.501    2547.5831   -44426.085    21.988593   0.92851777 
   47200    206.99674   -414.13193    134610.71   -41928.532     2575.433   -44503.965    22.076386   0.92781246 
   47300    204.63605   -304.06113     134654.9   -41948.632    2546.0616   -44494.694    22.021995   0.92750798 
   47400    211.16177   -310.67068    134583.24   -41909.788    2627.2539   -44537.042    22.136403   0.92800182 
   47500    210.18526   -164.46784    134705.28   -41853.983    2615.1042   -44469.087    22.145177   0.92716105 
   47600    209.91156   -363.14596    134726.76   -41820.364    2611.6989   -44432.063    22.063601   0.92701327 
   47700    208.11086   -302.74709    134823.72   -41865.194    2589.2947   -44454.489    22.209959   0.92634657 
   47800     207.6827   -382.44356    134591.33   -41878.504    2583.9677   -44462.472    22.246331   0.92794606 
   47900    205.50523   -465.81455     134612.8   -41951.522    2556.8758   -44508.398    22.276746   0.92779801 
   48000    205.08017   -375.74655    134670.71   -41974.584    2551.5872   -44526.171    22.223403   0.92739909 
   48100    205.39475   -360.20219    134565.26   -41945.957    2555.5012   -44501.458    22.188446   0.92812579 
   48200     203.2108    -252.4439    134548.99   -41982.359    2528.3286   -44510.687    22.285576   0.92823801 
   48300    204.79352   -313.06276    134553.04   -41955.562    2548.0208   -44503.582    22.385635   0.92821011 
   48400    207.20552   -190.29334    134522.64   -41882.104    2578.0306   -44460.135    22.253376   0.92841989 
   48500    206.22424   -277.14517    134695.74     -41936.5    2565.8216   -44502.322    22.241411   0.92722673 
   48600    204.93638   -411.85581    134646.42   -41933.281    2549.7982    -44483.08    22.244574   0.92756635 
   48700     203.4068   -336.29611    134613.59   -41906.866    2530.7673   -44437.634    22.358037   0.92779261 
   48800    205.06877    -271.5458    134711.03   -41941.859    2551.4454   -44493.304    22.240034   0.92712147 
   48900    205.71036   -370.78459    134786.23   -41930.784     2559.428   -44490.212    22.223903   0.92660424 
   49000    203.42954   -239.06655    134703.59   -41962.779    2531.0502   -44493.829    22.293288   0.92717268 
   49100    204.63401   -280.39932    134648.45   -41956.478    2546.0361   -44502.514     22.25852    0.9275524 
   49200    206.68594   -211.11091    134673.39   -41960.108    2571.5661   -44531.674    22.290127   0.92738062 
   49300     203.5003   -290.98629     134783.1   -41922.004    2531.9306   -44453.934    22.382188   0.92662572 
   49400    205.35495   -145.57548    134659.68   -41881.298     2555.006   -44436.304    22.338439   0.92747501 
   49500    206.08402     -433.611     134661.2   -41918.007     2564.077   -44482.084    22.269223   0.92746457 
   49600    204.92526   -267.80693    134684.25   -41915.987    2549.6598   -44465.647    22.272624   0.92730584 
   49700    207.42972   -220.94426    134764.83   -41948.744      2580.82   -44529.564    22.338111   0.92675135 
   49800    206.87663   -357.35535    134697.42   -41998.183    2573.9386   -44572.122    22.395073   0.92721518 
   49900    207.19646   -417.91758    134622.06   -41897.452    2577.9179    -44475.37    22.289245   0.92773423 
   50000    207.84331   -287.48218    134636.07   -41942.003    2585.9659   -44527.969    22.299379   0.92763767 
   50100     206.4703   -271.42465    134814.87   -41946.456    2568.8831   -44515.339    22.249202   0.92640742 
   50200    204.87093    -341.0181    134714.47   -41990.954    2548.9839   -44539.938    22.249482   0.92709782 
   50300    204.68721   -254.64984    134661.17   -41961.814    2546.6981   -44508.512     22.32999    0.9274648 
   50400    203.99079   -295.90324    134817.12   -41987.622    2538.0332   -44525.655    22.339631    0.9263919 
   50500    201.81808   -332.09111    134775.58    -42016.37    2511.0006   -44527.371    22.325912   0.92667748 
   50600    200.55684   -377.71225    134775.18   -42036.255    2495.3084   -44531.563    22.396035   0.92668017 
   50700    203.18804   -247.45693    134592.51   -42032.609    2528.0455   -44560.654    22.313342   0.92793791 
   50800    204.22595   -380.39806    134732.97   -42024.534     2540.959   -44565.493    22.267825   0.92697054 
   50900    206.03454   -297.03786    134817.52   -41958.943    2563.4614   -44522.404    22.253144   0.92638917 
   51000    206.01967   -324.36853    134781.57   -41976.746    2563.2763   -44540.022    22.195793   0.92663625 
   51100    204.17918   -255.38643    134688.99   -42020.637    2540.3772   -44561.014    22.296473   0.92727324 
   51200    204.11402   -238.80153    134679.14   -41989.056    2539.5665   -44528.623    22.211654   0.92734101 
   51300    201.78569   -354.99082     134570.7   -42058.224    2510.5976   -44568.822    22.248112    0.9280883 
   51400    200.30391   -264.31781    134402.41    -42045.79    2492.1615   -44537.951    22.235258    0.9292504 
   51500    203.23846   -311.33681    134439.59   -42053.581    2528.6728   -44582.254    22.253115    0.9289934 
   51600    204.65086   -443.86854    134570.59   -41999.635    2546.2457   -44545.881    22.319847   0.92808902 
   51700    200.55969   -359.03223    134582.84   -41994.373    2495.3438   -44489.717    22.231007   0.92800454 
   51800    204.18765   -317.79553    134532.01   -42029.361    2540.4825   -44569.843    22.206047    0.9283552 
   51900    203.03981   -255.45094    134484.47   -42070.573    2526.2013   -44596.774    22.370601   0.92868335 
   52000    203.69823   -259.83263    134572.62   -42076.689    2534.3933   -44611.082    22.365433   0.92807503 
   52100    199.21984   -390.65059    134571.63   -42009.984    2478.6735   -44488.658    22.325459   0.92808185 
   52200    202.65756   -244.44422    134457.81   -42036.044    2521.4454   -44557.489    22.249198   0.92886753 
   52300     205.0077   -362.07893    134495.38   -42011.545    2550.6855   -44562.231    22.348434   0.92860802 
   52400    207.80682    -194.6728    134609.54   -41969.807    2585.5119   -44555.319    22.316824   0.92782049 
   52500    204.38811   -312.83733    134451.48   -41953.319    2542.9767   -44496.296    22.296127   0.92891127 
   52600     206.7031   -339.27025    134613.87     -41980.4    2571.7795   -44552.179    22.333934   0.92779069 
   52700    202.73409   -231.15087    134666.34   -42003.961    2522.3976   -44526.358    22.313128   0.92742914 
   52800    203.70796   -286.59085    134659.84   -41967.357    2534.5143   -44501.871    22.370374   0.92747394 
   52900     205.8329    -418.8616    134510.19   -41961.875    2560.9526   -44522.828    22.244935    0.9285058 
   53000    205.70029   -267.33098    134385.79   -41934.999    2559.3026   -44494.302    22.267931   0.92936532 
   53100    203.79663   -282.91502    134444.72   -41980.623    2535.6175    -44516.24    22.277574   0.92895794 
   53200    202.55211   -362.04397    134262.59   -41974.782    2520.1333   -44494.915    22.343747   0.93021807 
   53300    206.33418   -345.76149    134302.02   -41954.462    2567.1895   -44521.652     22.28227     0.929945 
   53400    200.71679   -218.31636    134377.03   -42037.412    2497.2984    -44534.71    22.401226   0.92942586 
   53500    199.38744   -334.12241    134367.92   -42050.016    2480.7589   -44530.775    22.487871   0.92948893 
   53600    202.98919    -330.8601    134231.21   -42053.237    2525.5714   -44578.808    22.389581   0.93043558 
   53700    200.72381   -304.29121    134264.96   -42074.392    2497.3858   -44571.778    22.389255   0.93020169 
   53800    205.86612   -375.81724    134318.91   -41962.721    2561.3659   -44524.086    22.466159   0.92982805 
   53900    203.63835    -282.4461    134366.51   -42014.546    2533.6482   -44548.194    22.455443   0.92949867 
   54000     202.9931   -176.49704    134452.09   -41991.778    2525.6201   -44517.398    22.481018   0.92890705 
   54100    204.06632   -406.59581    134438.27   -41996.975     2538.973   -44535.948    22.545119   0.92900252 
   54200    204.83398   -367.33615    134340.76   -41978.573    2548.5242   -44527.097    22.600359   0.92967683 
   54300    208.12149   -320.03485    134412.66   -41951.207     2589.427   -44540.634    22.530063   0.92917953 
   54400    205.20755   -321.23698    134526.52   -41983.935    2553.1721   -44537.107    22.685652   0.92839308 
   54500    204.21968   -339.27576    134461.64    -41985.34    2540.8811   -44526.221    22.613538   0.92884105 
   54600     207.4709   -204.56131    134449.79   -41898.347    2581.3324   -44479.679     22.57136   0.92892291 
   54700    207.48124   -292.89071    134379.65   -41917.622    2581.4611   -44499.083    22.740991   0.92940778 
   54800    207.87846    -218.8001    134306.68   -41980.467    2586.4033    -44566.87    22.684187   0.92991276 
   54900    205.89928   -289.85244    134258.67   -42035.721    2561.7785   -44597.499     22.70645   0.93024523 
   55000    201.69741   -225.33265    134322.22   -42086.109    2509.4992   -44595.608    22.665978   0.92980516 
   55100    201.80435   -256.40215    134356.94   -42039.987    2510.8298   -44550.817    22.763083   0.92956489 
   55200    203.24504   -289.57715    134354.58   -42049.826    2528.7547   -44578.581    22.700774   0.92958118 
   55300    204.25453   -253.80817    134252.37   -41997.002    2541.3146   -44538.317    22.742882   0.93028891 
   55400    207.34229   -221.62478    134362.24   -41978.788    2579.7322    -44558.52     22.68229    0.9295282 
   55500    205.11592   -329.79226    134331.24   -41934.449     2552.032   -44486.481    22.604905    0.9297427 
   55600    205.60251   -386.64346    134434.88   -41964.664    2558.0861    -44522.75     22.71295   0.92902596 
   55700    203.15896   -259.33574    134279.91   -41970.604    2527.6837   -44498.288    22.684633   0.93009809 
   55800    205.16856   -369.95327    134556.02   -41986.925     2552.687   -44539.612    22.655081   0.92818957 
   55900    205.26302   -316.84389    134460.58   -41956.437    2553.8622   -44510.299     22.68445    0.9288484 
   56000    206.98591    -323.4702    134499.35   -41952.991    2575.2982   -44528.289    22.733924   0.92858065 
   56100    208.68415   -238.17183    134337.51   -41928.612    2596.4275    -44525.04      22.5785   0.92969933 
   56200    210.55389   -342.24334    134276.98   -41928.582    2619.6907   -44548.272    22.681668    0.9301184 
   56300    206.48281   -337.04982    134318.66   -41964.354    2569.0387   -44533.393    22.807786    0.9298298 
   56400    204.65886   -473.54437    134327.52   -41955.427    2546.3453   -44501.772    22.704964   0.92976846 
   56500    203.01826   -420.54573    134333.62   -42021.247    2525.9331    -44547.18    22.622867   0.92972621 
   56600      208.145    -366.5968    134431.16   -42035.914    2589.7195   -44625.633    22.673565   0.92905164 
   56700    202.72787   -249.37554    134441.33   -42058.857    2522.3202   -44581.177    22.697537   0.92898136 
   56800    206.70041   -248.59143    134438.46   -41995.173     2571.746   -44566.919    22.725782   0.92900119 
   56900    206.58407   -303.04576    134480.14   -41979.159    2570.2986   -44549.458    22.768221   0.92871326 
   57000    206.56791   -419.59442    134497.18   -41932.868    2570.0975   -44502.966    22.695462   0.92859562 
   57100    205.10161   -312.29654    134416.42   -41974.431    2551.8539   -44526.285    22.770337   0.92915353 
   57200     200.2998   -399.69969    134367.11   -42022.572    2492.1103   -44514.682    22.751183   0.92949454 
   57300     200.7157   -432.50788    134355.41   -42078.768    2497.2849   -44576.053    22.514817   0.92957544 
   57400    202.50976   -297.95027    134375.31   -42080.541    2519.6064   -44600.147    22.662728   0.92943781 
   57500    199.11209   -309.80062    134318.06   -42116.954    2477.3329   -44594.287    22.786147   0.92983395 
   57600    199.38254   -316.18261    134287.92   -42082.442    2480.6979    -44563.14    22.813877   0.93004266 
   57700    202.01909   -221.04672    134342.56   -42104.154    2513.5015   -44617.655    22.832323   0.92966438 
   57800    199.49396   -387.96961    134254.58   -42124.783    2482.0841   -44606.868    22.679173    0.9302736 
   57900    200.84989   -188.38518    134268.35   -42101.896    2498.9545    -44600.85    22.657154   0.93017821 
   58000    202.61737   -327.75085    134223.34   -42098.861    2520.9453   -44619.806    22.679988   0.93049011 
   58100    203.80496   -386.00436    134265.14   -42044.546    2535.7212   -44580.268    22.585031   0.93020043 
   58200    204.92476   -181.41257    134288.09   -41997.357    2549.6537    -44547.01    22.854999   0.93004146 
   58300    208.39657   -377.41317    134248.34   -41939.377    2592.8496   -44532.227    22.798808   0.93031687 
   58400    206.64108    -327.5896     134306.3   -41963.569    2571.0079   -44534.577    22.824873   0.92991535 
   58500    205.54941   -315.37351    134292.25     -41957.1    2557.4254   -44514.525    22.824636   0.93001264 
   58600    207.72008    -397.8761    134322.31   -41932.372    2584.4327   -44516.804    22.667571   0.92980449 
   58700    207.96649   -280.69952     134363.3   -41945.554    2587.4985   -44533.053    22.785618    0.9295209 
   58800    207.12867   -295.91238     134218.3   -41993.191    2577.0745   -44570.266    22.891823   0.93052506 
   58900    205.74249   -320.87835    134308.31   -42027.707    2559.8277   -44587.535    22.863466   0.92990146 
   59000    203.52557   -222.78558    134308.71   -42009.093    2532.2451   -44541.338    22.887743   0.92989867 
   59100    206.80828   -251.32756    134359.07   -42013.467    2573.0881   -44586.555    22.975007   0.92955011 
   59200    205.95944   -206.32953    134391.06   -42020.191     2562.527   -44582.718    22.949014   0.92932887 
   59300    204.24603   -406.81901    134368.58       -42015    2541.2089   -44556.209    22.929576   0.92948435 
   59400    201.33666   -258.77164    134371.02     -42067.9    2505.0109   -44572.911    22.903074   0.92946743 
   59500    205.23729   -324.36405    134392.63   -42020.873    2553.5421   -44574.415    22.906054     0.929318 
   59600    204.02321   -288.16184    134379.58   -42016.079    2538.4366   -44554.516    22.941678   0.92940825 
   59700    202.57608   -377.80195    134397.48   -42026.554    2520.4315   -44546.986    22.959016   0.92928445 
   59800    205.61916   -282.49694    134303.04   -42029.107    2558.2933   -44587.401    23.045184   0.92993795 
   59900    204.32213   -280.85188    134356.46   -42017.585    2542.1557    -44559.74    23.067035   0.92956818 
   60000    201.48867   -278.01653    134244.17   -42058.968    2506.9021    -44565.87    23.058748   0.93034577 
   60100    202.46859     -257.721    134321.31   -42014.822    2519.0942   -44533.916    22.977386   0.92981141 
   60200    205.74552   -310.23206    134368.12   -41991.752    2559.8654   -44551.617    22.892079   0.92948752 
   60300    209.93647   -321.15568    134406.52   -41956.768    2612.0088   -44568.777    23.137994   0.92922195 
   60400    209.60748   -287.25606    134561.54   -41913.691    2607.9155   -44521.607    23.209178   0.92815147 
   60500    205.19845   -304.34604    134451.94   -41956.573    2553.0588   -44509.632    23.117979   0.92890804 
   60600    206.03452   -330.25763    134378.62   -42006.708    2563.4611    -44570.17    23.114126    0.9294149 
   60700    203.40706   -190.38495     134359.3   -42035.869    2530.7705   -44566.639    23.100779   0.92954852 
   60800    204.57438    -320.8632    134322.96   -41989.797    2545.2942   -44535.091    23.113971   0.92980004 
   60900    206.45553   -281.33246    134291.59   -41990.006    2568.6993   -44558.705    23.095247   0.93001724 
   61000    209.76858   -304.37551    134348.08   -42033.389      2609.92   -44643.309    23.055499   0.92962619 
   61100    204.06258   -204.79214    134515.79   -42068.796    2538.9265   -44607.723    23.131307   0.92846716 
   61200    206.03714   -375.09137    134422.21    -42068.39    2563.4937   -44631.884    23.204717   0.92911354 
   61300    203.49668   -377.61995    134480.28   -42049.734    2531.8856    -44581.62    23.386326   0.92871228 
   61400    203.29122   -315.57057    134427.31   -42072.198    2529.3292   -44601.527    23.222097   0.92907827 
   61500    204.75259    -220.7852    134474.53   -42073.974    2547.5115   -44621.486    23.188562   0.92875201 
   61600    202.54187   -298.26214    134590.27    -42033.55    2520.0059   -44553.556    23.143198   0.92795335 
   61700    202.18468   -353.88214    134504.65    -42103.12    2515.5619   -44618.682      23.2732   0.92854406 
   61800    196.43166   -312.01397    134433.32   -42154.982    2443.9833   -44598.966    23.349298    0.9290367 
   61900    204.39542   -310.72582    134451.22    -42087.05    2543.0676   -44630.117    23.355755   0.92891303 
   62000    208.46961   -244.22884    134435.54   -42047.955    2593.7583   -44641.714    23.242516   0.92902135 
   62100    202.76647   -287.51029    134645.31   -42062.689    2522.8003   -44585.489     23.35835   0.92757405 
   62200    205.78117   -237.15285    134551.49   -42026.762    2560.3089   -44587.071    23.367974   0.92822078 
   62300    198.22483   -276.96569    134541.08   -42064.794    2466.2937   -44531.087    23.273991    0.9282926 
   62400    202.99332   -193.95261    134473.48   -42013.649    2525.6228   -44539.272    23.351006   0.92875928 
   62500    202.84514   -168.32267    134495.09    -42017.97    2523.7792   -44541.749    23.193264   0.92861003 
   62600     205.9174   -240.66016    134478.73   -42028.334    2562.0039   -44590.338    23.227524     0.928723 
   62700     203.2182   -258.33507     134456.9   -42048.995    2528.4207   -44577.415    23.461192   0.92887378 
   62800     203.4459   -295.29497    134494.35   -42028.878    2531.2538   -44560.132    23.305817   0.92861514 
   62900    206.08549   -221.21375    134489.59   -41971.286    2564.0953   -44535.381    23.340187   0.92864803 
   63000    204.27103   -320.33726    134635.27   -41934.298    2541.5199   -44475.818    23.372672   0.92764317 
   63100    209.21795   -282.07477    134771.55   -41926.968     2603.069   -44530.037     23.54438   0.92670516 
   63200    205.91646   -184.97976    134634.32   -41969.265    2561.9923   -44531.257    23.556558   0.92764976 
   63300    208.48307   -287.88412    134580.33   -41999.995    2593.9258   -44593.921    23.547402   0.92802185 
   63400    205.43196   -248.92222    134620.47   -41927.627    2555.9641   -44483.591    23.506764   0.92774517 
   63500    204.41921   -181.05792    134824.96   -42015.777    2543.3636   -44559.141    23.527082   0.92633805 
   63600    203.19951   -233.77161    134834.52   -42016.942    2528.1882    -44545.13    23.525172   0.92627239 
   63700    202.50301   -329.98027    134671.06   -42022.762    2519.5224   -44542.284    23.563894   0.92739664 
   63800    202.10879   -266.33424     134600.7   -42116.326    2514.6176   -44630.943     23.47854   0.92788141 
   63900    201.03923    -326.1118    134632.03   -42093.389    2501.3103   -44594.699    23.530005   0.92766552 
   64000    203.80426   -310.33028    134472.07   -42089.496    2535.7125   -44625.208    23.570529   0.92876902 
   64100    205.34931   -309.87237    134545.97   -42015.221    2554.9358   -44570.157    23.496287    0.9282589 
   64200    202.08458   -336.86468    134646.07   -42001.228    2514.3164   -44515.545    23.506243   0.92756877 
   64300    210.21026   -368.52842    134568.76   -41928.102    2615.4153   -44543.517    23.567825   0.92810165 
   64400    208.62529   -269.52818    134580.61   -41953.722    2595.6953   -44549.417    23.523019   0.92801996 
   64500    210.01118   -164.54722    134673.65   -41953.027    2612.9383   -44565.965    23.599528   0.92737885 
   64600    205.93194    -330.4986    134696.51    -41994.99    2562.1848   -44557.175    23.675265   0.92722141 
   64700    204.76489   -346.98584     134484.7   -42026.773    2547.6645   -44574.438    23.620799   0.92868181 
   64800    202.16117   -306.05896    134669.77   -42030.819    2515.2693   -44546.089     23.64947   0.92740553 
   64900    207.25649   -301.00046    134567.41   -42006.153    2578.6648   -44584.817    23.646273   0.92811097 
   65000     206.9586   -274.38274     134647.1   -41977.511    2574.9584   -44552.469    23.579551    0.9275617 
   65100    205.06816   -412.66088    134752.11   -42004.134    2551.4378   -44555.572    23.580854   0.92683889 
   65200    205.67146   -436.00198    134766.82    -41987.79    2558.9439   -44546.734    23.681006    0.9267377 
   65300    208.48715   -239.74352    134676.96   -41984.249    2593.9766   -44578.226    23.768828   0.92735603 
   65400     204.0278   -274.91013    134718.43   -41931.406    2538.4937     -44469.9     23.66452   0.92707059 
   65500    205.45172   -356.95772    134804.05   -42009.838      2556.21   -44566.048     23.68375   0.92648176 
   65600     202.1443   -508.38828    134795.52   -42049.588    2515.0594   -44564.647    23.673779    0.9265404 
   65700    202.75184   -236.94939    134748.17   -42081.455    2522.6183   -44604.073    23.742852   0.92686599 
   65800    203.07512   -390.97128    134768.72   -42085.807    2526.6405   -44612.448    23.678875   0.92672461 
   65900    205.17373   -315.90978    134833.46   -42062.017    2552.7513   -44614.769    23.799245   0.92627965 
   66000    205.59556   -289.75665    134785.74   -41972.803    2557.9996   -44530.803    23.707446   0.92660763 
   66100    207.17129   -315.81961    134887.96   -41935.656    2577.6047   -44513.261    23.673837   0.92590539 
   66200    212.02207   -259.26856    134842.65   -41910.921    2637.9576   -44548.879    23.614827   0.92621654 
   66300    206.63219   -335.87069    134871.23   -41964.815    2570.8972   -44535.712    23.766952   0.92602029 
   66400    206.40991   -168.48715    134940.44   -42010.572    2568.1317   -44578.704    23.822292   0.92554531 
   66500    203.56993   -391.07922     134905.8   -42031.399    2532.7969   -44564.196    23.848404   0.92578298 
   66600    206.01617   -181.08734    134876.15   -42053.194    2563.2329   -44616.426    23.838098    0.9259865 
   66700    203.98121   -328.63489    134864.42   -42071.624     2537.914   -44609.538    23.848441   0.92606701 
   66800    208.06765   -278.49248    134969.26   -42002.881    2588.7571   -44591.638    23.771853   0.92534767 
[...]
   84600     200.0635   -333.80738     134754.1   -42173.865    2489.1703   -44663.036    24.646704   0.92682519 
   84700    198.77526   -259.49309    134927.73   -42182.899    2473.1421   -44656.041    24.753543    0.9256325 
   84800    203.40545   -252.68965    134930.48   -42141.422    2530.7505   -44672.173    24.666954   0.92561361 
   84900    206.58731   -315.38991    135012.47   -42116.505    2570.3389   -44686.844    24.632349   0.92505152 
   85000    204.54924   -274.64597    134988.37   -42074.926    2544.9815   -44619.908    24.482858    0.9252167 
   85100      203.334   -299.74856    135064.08   -42072.387    2529.8615   -44602.248    24.451971   0.92469805 
   85200     204.5101   -408.91091    134915.74       -42082    2544.4944   -44626.495    24.515148   0.92571475 
   85300    205.53639   -271.89554     134796.2   -42107.253    2557.2634   -44664.516    24.548921   0.92653573 
   85400    204.95744   -335.50317    134850.09   -42102.317    2550.0601   -44652.377    24.737241   0.92616543 
   85500    205.17638   -326.42641    134762.46   -42078.055    2552.7843   -44630.839    24.658821   0.92676764 
   85600    205.85581   -335.03594    134804.33    -42053.98    2561.2377   -44615.218    24.571574   0.92647979 
   85700    203.79453   -354.83835    134868.36   -42086.241    2535.5914   -44621.832     24.53312   0.92603995 
   85800    204.66134   -370.56267    134846.25   -42080.659    2546.3762   -44627.035    24.610739   0.92619182 
   85900    208.63286   -262.84307    134778.95   -41993.121    2595.7894   -44588.911    24.701507   0.92665429 
   86000    204.13556   -220.27363    134900.13   -42046.572    2539.8345   -44586.406    24.792628   0.92582188 
   86100    202.41232   -375.11098    134933.35   -42046.552     2518.394   -44564.946    24.736107   0.92559393 
   86200    205.72782   -312.53398     134809.7   -42016.068    2559.6452   -44575.713    24.841415    0.9264429 
   86300    207.50427   -357.15782    134688.04   -42052.196    2581.7476   -44633.944     24.73398   0.92727975 
   86400    205.74445   -263.69347    134837.43   -42064.239    2559.8522   -44624.091    24.565024   0.92625238 
   86500    204.36307   -349.57033    134921.86   -42060.609    2542.6651   -44603.274     24.61381   0.92567279 
   86600     204.2731   -322.01423    134896.97   -42021.741    2541.5458   -44563.287     24.51302   0.92584353 
   86700    204.81197   -323.86694    134880.73   -42017.217    2548.2503   -44565.467    24.705097   0.92595504 
   86800    207.64989   -263.63042    134931.61   -42074.089    2583.5594   -44657.648    24.792898    0.9256059 
   86900    205.19557   -331.16941    134915.25   -42046.919     2553.023   -44599.942    24.660109   0.92571814 
   87000    202.88434   -293.96135    134921.55   -42048.007    2524.2668   -44572.274     24.83722   0.92567492 
   87100    205.19427   -373.59195    134854.57   -42061.772    2553.0068   -44614.779    24.781386   0.92613468 
   87200    203.55838   -402.09484    134823.95   -42073.491    2532.6532   -44606.144    24.663812   0.92634498 
   87300    204.65098    -256.6116    134805.88   -42082.019    2546.2472   -44628.266    24.779929   0.92646915 
   87400    206.87666   -285.56934    134681.52   -42088.241     2573.939    -44662.18    24.796176   0.92732461 
   87500    203.76343   -418.20346    134686.11   -42100.088    2535.2045   -44635.292    24.819898   0.92729306 
   87600    203.05462   -194.86339    134833.94   -42086.092    2526.3855   -44612.477    24.830298   0.92627638 
   87700    204.66128   -328.70745    134732.31   -42101.779    2546.3754   -44648.154    24.653422   0.92697505 
   87800    204.97319   -387.57302    134846.86   -42081.046    2550.2561   -44631.302    24.680604   0.92618758 
   87900    200.19632   -243.26862    134689.96    -42100.24    2490.8228   -44591.063     24.63354   0.92726655 
   88000    203.35408   -274.51727    134862.24    -42124.16    2530.1114   -44654.272    24.745979   0.92608198 
   88100    206.30838   -262.61679    134740.65    -42061.21    2566.8685   -44628.078    24.770304   0.92691771 
   88200     209.3081   -319.99669    134881.87   -42029.031    2604.1907   -44633.222    24.928521   0.92594718 
   88300    204.40986   -343.75211    134871.54   -42070.283    2543.2473    -44613.53    24.906284   0.92601811 
   88400    200.80103   -340.93409    134873.15   -42156.235    2498.3466   -44654.581     24.83455   0.92600709 
   88500    206.92349   -143.39689    134851.29   -42080.193    2574.5216   -44654.714    24.759075    0.9261572 
   88600    207.85193   -257.80338    134895.89   -42031.444    2586.0732   -44617.517    24.673773   0.92585098 
   88700    208.38099   -370.80437    134880.42   -42017.227    2592.6557   -44609.883    24.791276   0.92595716 
   88800    209.23723   -193.36971    134828.03   -41972.335    2603.3089   -44575.643    24.807172   0.92631697 
   88900    207.77341   -219.20238    134756.63    -42022.42    2585.0962   -44607.517    24.806072   0.92680777 
   89000    206.92624   -248.59718    134740.93   -42008.446    2574.5558   -44583.002    24.789413   0.92691576 
   89100    204.11361   -333.74153    134765.69   -42101.478    2539.5614   -44641.039    24.846017   0.92674545 
   89200    204.66379   -278.19498    134781.27   -42116.662    2546.4066   -44663.069    24.760526   0.92663835 
   89300    200.94816   -213.32257    134806.22   -42143.366    2500.1772   -44643.544     24.79044   0.92646685 
   89400    204.41039   -282.55769    134799.73   -42165.536    2543.2539    -44708.79    24.854268   0.92651146 
   89500    201.01355   -338.95333    134795.22   -42192.348    2500.9907   -44693.339    24.787599   0.92654245 
   89600    199.80393   -359.57892    134730.27   -42226.355    2485.9408   -44712.295     24.77303   0.92698908 
   89700    203.39053   -295.72534    134686.15   -42187.939    2530.5648   -44718.504    24.789315   0.92729276 
   89800    201.41666    -316.8674    134646.79   -42156.005    2506.0062   -44662.011     24.79263   0.92756381 
   89900    202.17564   -221.57782    134642.19    -42199.12    2515.4494   -44714.569    24.880891   0.92759553 
   90000    201.82328   -353.93214    134803.18   -42112.997    2511.0653   -44624.062    24.915901   0.92648774 
   90100    200.66963   -278.89681    134713.16   -42122.268    2496.7117    -44618.98    24.854579   0.92710681 
   90200     207.6561   -275.64476    134713.51   -42154.685    2583.6367   -44738.321    24.701514   0.92710445 
   90300    200.96483   -364.11073    134711.32   -42163.347    2500.3845   -44663.731    24.957608   0.92711952 
   90400    203.51227   -343.65676    134697.25   -42158.235    2532.0795   -44690.315    24.851468   0.92721631 
   90500    203.22718   -333.69437    134684.87   -42119.416    2528.5325   -44647.949    24.846536    0.9273016 
   90600    204.20118    -348.9439    134634.97   -42039.021    2540.6509   -44579.671    24.791945   0.92764527 
   90700    207.30653   -272.14201    134721.74    -42025.81    2579.2873   -44605.097    24.928647   0.92704776 
   90800    202.33265    -319.9832    134735.35   -42062.606    2517.4028   -44580.009    24.944426   0.92695412 
   90900    204.81994   -124.25471    134899.77    -42136.39    2548.3495   -44684.739    24.985735   0.92582434 
   91000    200.62393   -370.19902    134770.22   -42154.879    2496.1431   -44651.022    24.893381   0.92671432 
   91100    202.06398   -205.37815    134730.85   -42136.648    2514.0601   -44650.708    24.878445   0.92698511 
   91200    204.30211   -255.53777    134734.86   -42094.521    2541.9067   -44636.427    24.908866    0.9269575 
   91300    204.22842   -293.37695    134722.06   -42004.351    2540.9898   -44545.341    25.011791   0.92704559 
   91400    208.67676   -198.98215     134836.2   -41975.638    2596.3356   -44571.974    25.015693   0.92626084 
   91500    205.42791   -481.50815    134932.44   -41999.054    2555.9137   -44554.967    24.938666   0.92560016 
   91600    202.80222   -248.08062    134917.13   -42040.059    2523.2452   -44563.304    25.085784   0.92570519 
   91700    203.61017   -300.28052    134883.36   -42116.632    2533.2976   -44649.929    25.187335     0.925937 
   91800    203.57962   -265.46855    134890.94   -42083.626    2532.9175   -44616.544    25.111156   0.92588493 
   91900    202.06828    -319.3333    134775.18   -42083.621    2514.1136   -44597.735    25.028076   0.92668019 
   92000     202.7857   -313.56879    134863.94   -42084.826    2523.0396   -44607.866    25.134216   0.92607031 
   92100    204.24844   -178.34965    134996.01   -42126.682    2541.2389    -44667.92    25.075735   0.92516432 
   92200    207.78108   -319.52433    134967.55   -42059.051    2585.1917   -44644.243    24.938467   0.92535939 
   92300    207.24841   -205.21016    135028.42   -41994.875    2578.5642   -44573.439    25.018469   0.92494226 
   92400    202.23755   -401.90562    134947.56   -41996.766    2516.2196   -44512.986    25.028795    0.9254965 
   92500    204.39338   -320.39408    135031.68   -42029.816    2543.0422   -44572.858    25.090239   0.92491991 
   92600    208.70469   -293.37921     134812.7   -42018.014    2596.6832   -44614.697    24.922616   0.92642233 
   92700    207.56404   -368.16938    134823.37   -42012.637    2582.4913   -44595.128    24.937724     0.926349 
   92800    205.94108    -300.1753    134755.48   -42054.032    2562.2985    -44616.33    24.968689   0.92681566 
   92900    205.56173   -256.07637    134717.05   -42028.954    2557.5787   -44586.533    24.992526   0.92708005 
   93000    207.11401   -334.97412    134878.35   -42056.286    2576.8921   -44633.178    25.001169   0.92597139 
   93100    205.22274    -367.9194    134780.28   -41993.312    2553.3611   -44546.673    25.052399   0.92664513 
   93200    207.30162   -415.18518     134778.7   -42019.284    2579.2263    -44598.51    25.011456   0.92665602 
   93300    209.66603   -244.17426    134657.34   -42034.649     2608.644   -44643.293    24.913013   0.92749117 
   93400    204.23413   -173.67286    134776.01    -42052.59    2541.0608   -44593.651    24.859761   0.92667452 
   93500    204.11185   -445.65737    134796.57   -42100.326    2539.5394   -44639.866    25.104928   0.92653313 
   93600    204.83601   -340.44026    134765.87   -42165.035    2548.5494   -44713.585    25.111872   0.92674425 
   93700    201.42765   -195.89312    134756.26   -42132.731    2506.1429   -44638.873    25.104836   0.92681031 
   93800    205.14835   -284.37493    134884.42   -42090.908    2552.4355   -44643.343    25.142079    0.9259297 
   93900    204.51208   -283.11447    134844.23   -42085.715     2544.519   -44630.234    25.054779    0.9262057 
   94000    205.97612   -235.68976    134871.16   -42089.938    2562.7345   -44652.672    25.142553   0.92602076 
   94100     203.6485    -367.7742    134931.97   -42090.919    2533.7745   -44624.693    25.074039   0.92560342 
   94200    204.92396   -377.36779    134864.73    -42066.49    2549.6437   -44616.133    25.121248   0.92606486 
   94300    201.06859   -266.60776    135011.73   -42024.536    2501.6755   -44526.211    25.211396   0.92505663 
   94400     205.0687   -336.06743    134956.29   -42003.265    2551.4445    -44554.71    25.179532   0.92543658 
   94500    210.93558   -298.13222    134978.91   -41954.553    2624.4396   -44578.992    25.160393    0.9252815 
   94600    206.81248   -345.21015    135053.16   -41993.432    2573.1405   -44566.573    25.207939    0.9247728 
   94700    205.25434    -292.4037    135017.96   -42031.207    2553.7542   -44584.961    25.176704   0.92501393 
   94800    204.90405   -253.37395    134979.31   -42016.068     2549.396   -44565.464    25.050365    0.9252788 
   94900    205.98197   -332.48419    135038.31   -41994.933    2562.8073   -44557.741    25.288118    0.9248745 
   95000    204.46252   -261.33303    134875.85   -41980.857    2543.9025    -44524.76    25.236178   0.92598855 
   95100    207.05198   -295.58895    134976.63   -41980.795    2576.1203   -44556.916    25.295048   0.92529718 
   95200    206.62542   -286.10569    134979.68   -42000.176     2570.813   -44570.989    25.293196   0.92527621 
   95300     207.6059   -370.06417    135080.97   -41917.075    2583.0121   -44500.087    25.296676    0.9245824 
   95400    205.74814    -262.3058    134883.61   -41977.047     2559.898   -44536.945    25.165963   0.92593524 
   95500     204.0497   -324.66471    134931.18   -41973.592    2538.7662   -44512.359    25.271134   0.92560883 
   95600     208.4956   -259.07501    135042.72   -41978.429    2594.0817    -44572.51    25.388259   0.92484434 
   95700    205.21579    -188.9076    134904.54   -42036.178    2553.2745   -44589.453    25.319303   0.92579158 
   95800    204.56638   -300.70863    135062.53   -42089.579    2545.1947   -44634.774    25.377783   0.92470863 
   95900    204.43823   -249.52147    135059.62   -42036.757    2543.6002   -44580.357    25.456416    0.9247286 
   96000    200.98067   -430.48297    135009.48     -42118.9    2500.5816   -44619.482      25.2161   0.92507204 
   96100    204.16357   -283.88932    135007.82   -42075.966     2540.183   -44616.149    25.276465   0.92508338 
   96200    202.27814   -311.43073    134984.17    -42113.68    2516.7247   -44630.404    25.402767   0.92524549 
   96300    206.84573   -236.67011    135002.97   -42069.866    2573.5542    -44643.42    25.427886   0.92511664 
   96400    209.05031   -253.17756     135017.6    -42050.77    2600.9833   -44651.753    25.388182   0.92501637 
   96500    201.58324   -188.39863    134952.35   -42075.362    2508.0788   -44583.441      25.2658   0.92546362 
   96600    204.40289   -243.09464    134900.24   -42074.934    2543.1605   -44618.095    25.252074    0.9258211 
   96700    203.56223   -300.82364     134996.1   -42146.238    2532.7011   -44678.939    25.165315   0.92516371 
   96800    202.21271   -265.91471    135047.66   -42176.413    2515.9106   -44692.323    25.364547   0.92481049 
   96900    203.15369   -336.85856    135071.81   -42105.956    2527.6181   -44633.574    25.391267   0.92464511 
   97000    204.54257   -299.09388    135027.88   -42119.929    2544.8985   -44664.828    25.432267   0.92494595 
   97100    199.77589   -286.07758    135003.05   -42109.541    2485.5919   -44595.133    25.428468    0.9251161 
   97200    206.20035   -217.09508    135055.08   -42124.631    2565.5243   -44690.155    25.518574    0.9247597 
   97300    201.10286   -185.65989    135065.35   -42119.694    2502.1019   -44621.796    25.463893   0.92468936 
   97400    203.25806   -345.46463    135142.79   -42130.033    2528.9167   -44658.949    25.513431   0.92415951 
   97500    207.49762   -279.35769    135289.13   -42041.798    2581.6649   -44623.463    25.654064   0.92315983 
   97600    203.10753   -260.00072    135095.78   -42112.742    2527.0438   -44639.786    25.485132   0.92448104 
   97700    205.72083   -255.40313    135099.65   -42056.391    2559.5583   -44615.949    25.626436   0.92445459 
   97800    201.79245   -377.95357    134987.99   -42025.875    2510.6817   -44536.556    25.754887   0.92521926 
   97900     209.3422   -275.38361    135112.98   -41991.979     2604.615   -44596.594    25.629108   0.92436342 
   98000    209.41661   -322.32688    135141.18   -42016.011    2605.5407   -44621.551    25.540372    0.9241705 
   98100    203.21594   -288.38957    135150.53   -42104.196    2528.3927   -44632.588    25.445728   0.92410658 
   98200    207.50534   -460.75165    135124.29   -42072.892    2581.7609   -44654.653    25.505357   0.92428601 
   98300    205.84626   -262.23251    135175.37   -42092.247    2561.1188   -44653.366    25.486923   0.92393674 
   98400     204.0487    -265.8917    135071.57   -42093.777    2538.7538   -44632.531    25.769014   0.92464678 
   98500    202.14409   -285.25327    134979.98   -42103.445    2515.0568   -44618.502    25.632708   0.92527419 
   98600    204.57073   -327.52416    135206.68   -42129.271    2545.2489    -44674.52    25.632567   0.92372275 
   98700    202.54831   -277.15445    135160.32   -42169.644    2520.0861    -44689.73     25.59977   0.92403962 
   98800    207.49712   -153.33707    135142.09   -42134.527    2581.6586   -44716.186    25.584347   0.92416429 
   98900    204.55308   -277.63687    135193.48   -42143.572    2545.0292   -44688.601    25.584304   0.92381299 
   99000    196.45295   -284.50701    135085.04    -42180.51    2444.2482   -44624.758    25.606448   0.92455459 
   99100    204.07747   -370.68493    135111.25   -42118.949    2539.1117    -44658.06    25.527627   0.92437524 
   99200    201.29041   -304.42364    134998.43   -42099.871    2504.4354   -44604.306    25.671491   0.92514774 
   99300    206.57294    -319.7562     135150.9   -42061.722      2570.16   -44631.883    25.633784   0.92410406 
   99400    209.86375   -371.00444    135011.08   -42037.897     2611.104   -44649.001    25.531482   0.92506105 
   99500    211.72077   -305.32858    134990.02   -41919.394    2634.2089   -44553.603    25.528704   0.92520536 
   99600      206.429   -418.19749    135106.02   -41960.337    2568.3692   -44528.707    25.687518   0.92441097 
   99700    208.36505   -331.62733     134983.1   -41960.713    2592.4573    -44553.17    25.709094   0.92525283 
   99800    208.28622   -323.04817    135017.88   -41973.258    2591.4766   -44564.735    25.820425   0.92501449 
   99900    204.48929    -295.1422    135092.97   -42030.885    2544.2355    -44575.12    25.807565   0.92450027 
  100000    207.80951   -250.73666    135061.01   -42039.469    2585.5454   -44625.014    25.680917   0.92471905 
  100100    210.08311   -288.31587    135100.55   -41989.762    2613.8333   -44603.596    25.594927    0.9244484 
  100200    204.66156   -354.04771    135096.28   -41990.438    2546.3789   -44536.817     25.70082   0.92447765 
  100300    208.46636   -381.50921    135044.62   -41985.405    2593.7178   -44579.123     25.69724   0.92483129 
  100400    208.49497   -231.28736     135012.3   -42021.912    2594.0738   -44615.986    25.752131   0.92505269 
  100500     208.2188   -294.00932     135078.8   -41958.395    2590.6377   -44549.033     25.80783   0.92459726 
  100600    205.98862   -254.16154    135071.78   -42036.905      2562.89   -44599.795    25.865187   0.92464532 
  100631    206.31199   -189.93709    135094.28   -42024.317    2566.9134   -44591.231    25.871815   0.92449131 
Loop time of 461.921 on 1 procs for 100000 steps with 4175 atoms

Performance: 93.523 ns/day, 0.257 hours/ns, 216.487 timesteps/s
100.0% CPU use with 1 MPI tasks x no OpenMP threads

MPI task timing breakdown:
Section |  min time  |  avg time  |  max time  |%varavg| %total
---------------------------------------------------------------
Pair    | 418.01     | 418.01     | 418.01     |   0.0 | 90.49
Neigh   | 31.176     | 31.176     | 31.176     |   0.0 |  6.75
Comm    | 2.0124     | 2.0124     | 2.0124     |   0.0 |  0.44
Output  | 0.92672    | 0.92672    | 0.92672    |   0.0 |  0.20
Modify  | 8.3336     | 8.3336     | 8.3336     |   0.0 |  1.80
Other   |            | 1.463      |            |       |  0.32

Nlocal:        4175.00 ave        4175 max        4175 min
Histogram: 1 0 0 0 0 0 0 0 0 0
Nghost:        3699.00 ave        3699 max        3699 min
Histogram: 1 0 0 0 0 0 0 0 0 0
Neighs:        0.00000 ave           0 max           0 min
Histogram: 1 0 0 0 0 0 0 0 0 0
FullNghs:     112860.0 ave      112860 max      112860 min
Histogram: 1 0 0 0 0 0 0 0 0 0

Total # of neighbors = 112860
Ave neighs/atom = 27.032335
Neighbor list builds = 5033
Dangerous builds = 0

undump              1
unfix               2
unfix               3
unfix               4


################################################
#######         Run Simulation         #########
################################################

reset_timestep      0
log                 log.run_${NAME}
log                 log.run_liquid_density_MLmW
