
# Create simulation box of size 50 x 50 x 50 Angstrom
#
lattice	            sc 1
Lattice spacing in x,y,z = 1.0000000 1.0000000 1.0000000
region 	            all block 0 50 0 50 0 50 units box
create_box          1 all
Created orthogonal box = (0.0000000 0.0000000 0.0000000) to (50.000000 50.000000 50.000000)
  1 by 2 by 3 MPI processor grid

# fill box with 4175 randomly distributed atoms
#
create_atoms        1 random 4175 63782 all
Created 4175 atoms
  create_atoms CPU = 0.000 seconds
mass                1 18.015

# Define potential
#
pair_style          sw
pair_coeff          * * ML_mW.sw mW
Reading sw potential file ML_mW.sw with DATE: 2019-02-27

# Run minimization
#
minimize            1.0e-8 1.0e-8 10000 1000
WARNING: Using 'neigh_modify every 1 delay 0 check yes' setting during minimization (../min.cpp:187)
Neighbor list info ...
  update every 1 steps, delay 0 steps, check yes
  max neighbors/atom: 2000, page size: 100000
  master list distance cutoff = 6.0032907
  ghost atom cutoff = 6.0032907
  binsize = 3.0016454, bins = 17 17 17
  1 neighbor lists, perpetual/occasional/extra = 1 0 0
  (1) pair sw, perpetual
      attributes: full, newton on
      pair build: full/bin/atomonly
      stencil: full/bin/3d
      bin: standard
Per MPI rank memory allocation (min/avg/max) = 4.255 | 4.258 | 4.261 Mbytes
Step Temp E_pair E_mol TotEng Press 
       0            0    7792709.3            0    7792709.3    5898794.3 
     630            0   -45180.336            0   -45180.336   -154.07449 
Loop time of 1.42019 on 6 procs for 630 steps with 4175 atoms

99.6% CPU use with 6 MPI tasks x no OpenMP threads

Minimization stats:
  Stopping criterion = max force evaluations
  Energy initial, next-to-last, final = 
      7792709.32924461  -45180.0188663597   -45180.336116598
  Force two-norm initial, final = 2.0191930e+08 4.9721331
  Force max component initial, final = 1.0948746e+08 0.73126211
  Final line search alpha, max atom move = 0.053306038 0.038980685
  Iterations, force evaluations = 630 1000

MPI task timing breakdown:
Section |  min time  |  avg time  |  max time  |%varavg| %total
---------------------------------------------------------------
Pair    | 0.94938    | 1.0729     | 1.1744     |   8.0 | 75.55
Neigh   | 0.024279   | 0.026667   | 0.027833   |   0.7 |  1.88
Comm    | 0.1956     | 0.29505    | 0.42049    |  15.4 | 20.78
Output  | 0          | 0          | 0          |   0.0 |  0.00
Modify  | 0          | 0          | 0          |   0.0 |  0.00
Other   |            | 0.02555    |            |       |  1.80

Nlocal:        695.833 ave         704 max         685 min
Histogram: 1 1 0 0 1 0 0 1 0 2
Nghost:        1494.17 ave        1515 max        1468 min
Histogram: 1 1 0 0 0 0 1 1 1 1
Neighs:        0.00000 ave           0 max           0 min
Histogram: 6 0 0 0 0 0 0 0 0 0
FullNghs:      19997.0 ave       20462 max       19320 min
Histogram: 1 1 0 0 0 0 0 2 0 2

Total # of neighbors = 119982
Ave neighs/atom = 28.738204
Neighbor list builds = 26
Dangerous builds = 0

# Add velocity/set timestep
#
velocity            all create ${TEMP} 120598 rot yes dist gaussian
velocity            all create 210 120598 rot yes dist gaussian
timestep            5.0

# Define output
#
compute	            1 all msd
thermo	            100
thermo_style        custom step temp press vol etotal ke pe c_1[4] density

# Neighbor lists
#
neigh_modify        delay 0 every 1 check yes

# Set fixes
#
fix                 1 all momentum 10 linear 1 1 1 rescale
fix                 2 all nve
fix                 3 all temp/csvr ${TEMP} ${TEMP} 500.0 928347
fix                 3 all temp/csvr 210 ${TEMP} 500.0 928347
fix                 3 all temp/csvr 210 210 500.0 928347
fix                 4 all press/berendsen iso ${PRES} ${PRES} 1000.0 modulus 20000
fix                 4 all press/berendsen iso 500 ${PRES} 1000.0 modulus 20000
fix                 4 all press/berendsen iso 500 500 1000.0 modulus 20000

# Run 0.5 ns equilibration
#
dump                1 all custom 1000 eq.${NAME}.dump id type x y z vx vy vz
dump                1 all custom 1000 eq.liquid_density_MLmW.dump id type x y z vx vy vz
run                 100000
Per MPI rank memory allocation (min/avg/max) = 3.506 | 3.508 | 3.511 Mbytes
Step Temp Press Volume TotEng KinEng PotEng c_1[4] Density 
     630          210    801.42152       125000   -42567.537    2612.7992   -45180.336 2.7295415e-33   0.99914793 
     700    134.27138    374.43053    125020.01     -41767.1    1670.5913   -43437.692   0.24331669     0.998988 
     800    165.96893    275.38549    124823.81   -41046.269     2064.969   -43111.238   0.57858836    1.0005583 
     900    187.58338    298.27662    124518.23   -40664.313    2333.8938   -42998.206    1.0341335    1.0030137 
    1000    195.22236    488.53471    124257.12   -40410.909    2428.9373   -42839.846    1.4077778    1.0051214 
    1100    205.88729     359.7772    124341.65   -40260.375    2561.6293   -42822.005    1.7572407    1.0044381 
    1200    203.27738    411.01677    124279.38   -40307.536    2529.1571   -42836.693    2.1186484    1.0049414 
    1300    206.25946    375.24358    124314.51   -40293.872    2566.2598   -42860.132    2.4523026    1.0046574 
    1400    204.38667    480.76327    124377.99   -40309.971    2542.9587    -42852.93    2.8209314    1.0041447 
    1500    203.67071    514.93659    124476.68   -40250.959    2534.0508    -42785.01     3.114944    1.0033485 
    1600    209.82425    399.26532    124455.83   -40156.207    2610.6126    -42766.82    3.4690714    1.0035166 
    1700    210.44762    312.65634    124417.33   -40188.076    2618.3684   -42806.444    3.8006493    1.0038272 
    1800     207.7251    647.94946    124264.26   -40271.065    2584.4952   -42855.561    4.1771047    1.0050636 
    1900    207.59442    625.41739    124331.29   -40274.895    2582.8693   -42857.764    4.5485572    1.0045218 
    2000      206.829    545.66861    124365.31   -40232.998    2573.3459   -42806.344    4.7841846     1.004247 
    2100    212.73182    414.11474    124601.89   -40199.317    2646.7882   -42846.105    5.0897404    1.0023403 
    2200    211.04522    421.84652    124791.55   -40228.036    2625.8038    -42853.84    5.4432163    1.0008169 
    2300    211.94231    604.07766    125010.98   -40232.084    2636.9653   -42869.049    5.6453125   0.99906013 
    2400     211.7172    532.11213    125110.65   -40259.672    2634.1645   -42893.836    5.9988605   0.99826423 
    2500    212.04114    739.68258    125078.01   -40235.928    2638.1948   -42874.123    6.2899599   0.99852475 
    2600    214.89096     456.1129    125182.32   -40189.111     2673.652   -42862.763    6.5615911   0.99769273 
    2700    218.74829    368.81329     125104.3   -40216.378    2721.6446   -42938.023    6.8754943   0.99831496 
    2800    217.87051    634.87447     125110.5   -40212.233    2710.7234   -42922.956    7.1606153   0.99826549 
    2900    213.38203    529.80065    125294.97   -40280.158    2654.8781   -42935.036      7.33497   0.99679572 
    3000    212.12625    489.90726    125350.17   -40305.663    2639.2539   -42944.917    7.5363367   0.99635674 
    3100    208.44848    643.80554    125446.99   -40287.936    2593.4954   -42881.432    7.8485332   0.99558782 
    3200    208.84688    572.11971    125399.52   -40331.278    2598.4523   -42929.731    8.0362193   0.99596463 
    3300    209.62505    382.42064    125290.47   -40322.789    2608.1341   -42930.923    8.3180155   0.99683153 
    3400    212.10843    446.06549    125326.48   -40364.367    2639.0321   -43003.399    8.6001943   0.99654514 
    3500    208.49769    603.61248    125316.27   -40414.127    2594.1077   -43008.235    8.8052864    0.9966263 
    3600    208.96114    470.06381    125201.18   -40469.763    2599.8738   -43069.637     9.005429   0.99754241 
    3700    205.88709     525.6412    125186.25    -40526.32    2561.6269   -43087.947    9.2084785   0.99766144 
    3800    209.04384    413.69896    125244.46   -40486.224    2600.9028   -43087.127    9.3553776   0.99719776 
    3900     207.7772    396.90111    125361.24    -40526.45    2585.1434   -43111.593    9.5236595   0.99626878 
    4000     212.9625    462.17646    125504.08   -40510.736    2649.6584   -43160.395    9.8562852   0.99513488 
    4100    209.53272    783.61109    125622.52   -40515.185    2606.9854   -43122.171    10.057269   0.99419667 
    4200    208.71078    439.92651     125811.4   -40532.575    2596.7589   -43129.334    10.277622   0.99270412 
    4300    209.83672    354.10632    125904.14   -40546.911    2610.7677   -43157.679     10.48557   0.99197285 
    4400    208.96547    508.72392    125935.99   -40541.822    2599.9277    -43141.75    10.679053   0.99172197 
    4500    211.34964    468.31484     125942.6   -40540.119    2629.5913    -43169.71     10.89683   0.99166993 
    4600    210.28838    626.07048    125979.17   -40573.075    2616.3872   -43189.462    11.148693    0.9913821 
    4700    213.28362     330.2043     126014.2   -40518.357    2653.6537    -43172.01    11.402365   0.99110649 
    4800    212.54548    441.87294    126020.22   -40588.185    2644.4698   -43232.655    11.544283   0.99105911 
    4900    210.82018    585.54959    125901.82   -40480.513    2623.0039   -43103.517    11.657381   0.99199116 
    5000    213.93731     720.1624    126010.69   -40448.319    2661.7869   -43110.106    11.776173   0.99113409 
    5100    210.47537    460.69786    125951.94   -40531.599    2618.7137   -43150.313    12.076716   0.99159641 
    5200    213.83068    456.57054    126219.87   -40584.116    2660.4602   -43244.576     12.39061   0.98949152 
    5300     209.6217    533.43548    126194.02   -40551.574    2608.0925   -43159.666    12.699277   0.98969419 
    5400    206.74186    569.18745    126124.89   -40578.431    2572.2618   -43150.693    12.779372   0.99023669 
    5500    211.32588    305.25666    126191.78   -40579.611    2629.2957   -43208.907    12.921644   0.98971176 
    5600    209.21983    574.43379    126265.08   -40583.352    2603.0924   -43186.445    13.234648   0.98913723 
    5700    209.43813    409.39602    126249.91   -40596.236    2605.8085   -43202.044    13.501469   0.98925611 
    5800    208.33505    527.39917    126177.01   -40642.215    2592.0841   -43234.299    13.682981   0.98982766 
    5900    209.39871    388.34964    126231.89   -40667.927    2605.3181   -43273.245    13.893615   0.98939731 
    6000    208.95828    464.77224    126242.89   -40663.424    2599.8382   -43263.262    14.127667   0.98931108 
    6100    209.21725    580.39456     126211.3   -40597.704    2603.0604   -43200.764    14.415181   0.98955871 
    6200    208.33873    386.30597    126166.67     -40658.5    2592.1299    -43250.63    14.645796   0.98990876 
    6300    209.50174    498.66038     126257.4   -40620.125    2606.5999   -43226.725    14.759405   0.98919743 
    6400    210.10994    575.63313     126319.3   -40600.175    2614.1671   -43214.342    14.906197   0.98871262 
    6500    209.38183    621.44178    126326.85   -40562.446    2605.1081   -43167.554    15.101232   0.98865354 
    6600    208.38759    542.86445    126293.64   -40647.167    2592.7377   -43239.904    15.280523   0.98891351 
    6700    208.24152     437.3301     126321.6   -40707.988    2590.9204   -43298.909    15.390452   0.98869467 
    6800    210.34143    533.94521    126379.79   -40636.614    2617.0473   -43253.662    15.696796   0.98823946 
    6900    217.06227    503.79497    126626.62   -40602.821    2700.6673   -43303.489    15.899363   0.98631308 
    7000    215.83707    551.85489       126463   -40616.017    2685.4235    -43301.44    16.159593   0.98758921 
    7100    214.26509    565.36296    126586.36   -40641.109     2665.865   -43306.974    16.464945   0.98662676 
    7200    213.24424    496.49363    126805.99   -40689.991    2653.1638   -43343.154     16.54498   0.98491788 
    7300    203.32645    473.35731    126950.34   -40757.342    2529.7676    -43287.11    16.760637   0.98379798 
    7400    210.60209    413.82359     127124.8   -40798.046    2620.2904   -43418.336    16.857159   0.98244786 
    7500    209.27291    464.96329    127047.41   -40778.053    2603.7529   -43381.806    16.894625   0.98304637 
    7600    205.27518    532.59934    126946.89   -40851.506    2554.0135    -43405.52    17.024705   0.98382476 
    7700    208.69854    418.27676    126818.54   -40760.843    2596.6066    -43357.45    17.293324   0.98482041 
    7800     214.3374    567.73174    127008.99   -40760.526    2666.7648   -43427.291    17.495445   0.98334367 
    7900    205.40994    524.87164     127072.6   -40828.728    2555.6902   -43384.418    17.720571   0.98285147 
    8000    207.79878    531.60701     127141.8   -40813.803    2585.4119   -43399.215    17.682036   0.98231656 
    8100    210.20375    565.00039    127088.64   -40884.997    2615.3343   -43500.332    17.744221   0.98272742 
    8200    206.91786    376.68432    126895.94   -40906.006    2574.4516   -43480.458    17.773546   0.98421973 
    8300    205.78005    681.05788    126837.16   -40886.143    2560.2951   -43446.439    17.911713   0.98467584 
    8400    206.30949    334.17507    126879.89    -40841.68    2566.8823   -43408.562     18.16186   0.98434423 
    8500    211.07989    441.10995    126718.27   -40776.684    2626.2351   -43402.919    18.065987   0.98559972 
    8600    211.90283    771.20461     126879.6   -40782.703    2636.4741   -43419.177     18.26937    0.9843465 
    8700    211.21746    468.26446    126983.84   -40766.943    2627.9468   -43394.889    18.435598   0.98353848 
    8800    207.92341    572.42131    127058.81   -40807.337    2586.9625   -43394.299    18.564921   0.98295816 
    8900    207.70396    339.41281    127247.53   -40897.712    2584.2322   -43481.944    18.925262   0.98150033 
    9000    210.99269    675.67659    127527.66   -40854.135    2625.1501   -43479.285    19.030063   0.97934435 
    9100    207.11713    506.34215    127683.99   -40922.948    2576.9309   -43499.879    19.066629   0.97814528 
    9200    213.19885    471.45138    127627.34   -40836.447     2652.599   -43489.046    19.218141   0.97857942 
    9300        207.7    534.19939    127641.68   -40885.358    2584.1829   -43469.541      19.3182   0.97846949 
    9400    212.78772    497.32447    127639.62   -40845.158    2647.4838   -43492.642    19.470992   0.97848526 
    9500    209.37935    493.13097     127656.7   -40866.625    2605.0771   -43471.702     19.47293   0.97835437 
    9600    206.20313    690.60185    127637.84   -40844.447    2565.5589   -43410.006     19.69702   0.97849893 
    9700     208.1333    316.32579    127665.44   -40775.457    2589.5739   -43365.031    19.863061    0.9782874 
    9800    207.21651    466.75393    127548.85   -40849.673    2578.1674    -43427.84    19.924774   0.97918167 
    9900    206.99119    509.66965    127205.07   -40912.081     2575.364   -43487.445    20.138894   0.98182791 
   10000    205.21777    487.83239    127316.29   -40905.645    2553.2992   -43458.944    20.385006   0.98097024 
   10100    208.83004    499.87884    127307.18   -40871.239    2598.2427   -43469.481    20.322286   0.98104044 
   10200    206.62044    454.73534    127205.84   -40911.346    2570.7511   -43482.097    20.545231   0.98182202 
   10300    207.54933    397.93769    126992.78    -40894.04    2582.3083   -43476.348    20.652229   0.98346926 
   10400    209.33174    582.47071    127086.17   -40837.833    2604.4848   -43442.318    20.835591   0.98274654 
   10500    207.66777    449.97139    127232.67   -40822.744    2583.7819   -43406.526    20.980572   0.98161498 
   10600    210.08413    465.46792    127356.83   -40770.949     2613.846   -43384.795    20.836804   0.98065795 
   10700    211.64258    370.24844     127503.7   -40765.281     2633.236   -43398.517    20.859501   0.97952838 
   10800    214.59683    370.39211    127330.85   -40757.736    2669.9925   -43427.729    21.039838   0.98085805 
   10900    213.04054    605.68143    127612.18    -40790.74    2650.6293    -43441.37    21.165138    0.9786957 
   11000    213.57946    337.11152    127415.01   -40776.755    2657.3345    -43434.09    21.252483   0.98021018 
   11100    211.99924     571.7188    127458.23   -40819.795    2637.6736   -43457.469    21.427688    0.9798778 
   11200    212.09452    553.60714    127543.82   -40818.329     2638.859   -43457.188     21.60609   0.97922021 
   11300    210.26856    526.18965     127587.6    -40807.76    2616.1407     -43423.9    21.847229   0.97888424 
   11400    208.73685    398.13578    127556.93   -40813.349    2597.0833   -43410.432    21.767138    0.9791196 
   11500    206.89028    619.15368    127336.91   -40826.499    2574.1084   -43400.607    21.679423   0.98081138 
   11600    207.95045    611.00887    127654.69   -40832.733    2587.2989   -43420.032    21.903434   0.97836981 
   11700    215.95035    577.28542    127721.69    -40736.56    2686.8329   -43423.392    22.242123   0.97785657 
   11800     210.8917    484.29586    127779.41   -40812.368    2623.8937   -43436.262    22.416012   0.97741482 
   11900    211.55244      584.344    127701.63   -40824.845    2632.1146    -43456.96    22.543508   0.97801018 
   12000    211.56225    525.55115    127744.83    -40840.95    2632.2366   -43473.187    22.477879    0.9776794 
   12100    211.46719    366.32945    127636.95   -40811.899    2631.0539   -43442.953    22.682039   0.97850576 
   12200     211.6062     522.2251    127761.29   -40824.637    2632.7834   -43457.421    22.735421   0.97755349 
   12300    212.57853    542.48107    127757.15   -40846.016     2644.881   -43490.897    22.892274   0.97758514 
   12400    208.91974    548.47016    127941.44    -40827.64    2599.3588   -43426.998    23.063528     0.976177 
   12500    205.47131    500.65242    127748.14   -40907.847    2556.4538   -43464.301     23.25781    0.9776541 
   12600    211.13768    706.28436     127733.4   -40812.069    2626.9541   -43439.023    23.352669   0.97776688 
   12700    211.60984     499.4011    127949.75   -40794.989    2632.8287   -43427.817    23.530867   0.97611363 
   12800    211.00842    310.26421    127834.92   -40773.641     2625.346   -43398.987    23.665006   0.97699043 
   12900     213.7484    465.42577    128168.99   -40845.033    2659.4364    -43504.47    23.807132   0.97444394 
   13000    216.74409    603.67868    128140.61   -40804.428    2696.7085   -43501.137    23.962484   0.97465972 
   13100    213.14136     644.5953    128053.76   -40805.841    2651.8837   -43457.725    24.227046   0.97532079 
   13200     215.5043     559.7169    128219.76   -40742.994    2681.2832   -43424.277    24.239356   0.97405807 
   13300    213.41671    649.05285    128299.71   -40787.914    2655.3096   -43443.223    24.426578   0.97345105 
   13400    208.03415    416.59861    128199.25   -40871.712    2588.3403   -43460.052    24.429118   0.97421393 
   13500    209.49524    670.20696    128164.24   -40907.148     2606.519   -43513.667    24.457805   0.97448003 
   13600     207.9161    474.20808    128152.89   -40938.307    2586.8715   -43525.179    24.692668   0.97456633 
   13700     208.0616    449.70499    128239.17    -40940.13    2588.6818   -43528.812    24.796396   0.97391066 
   13800    215.73756    566.34856    128189.65   -40870.876    2684.1854   -43555.062    25.046448   0.97428687 
   13900     213.0826    416.56627    128352.72   -40918.204    2651.1527   -43569.357    25.309961   0.97304901 
   14000    212.52081    489.46248    128135.49   -40909.201    2644.1629   -43553.364    25.157986   0.97469868 
   14100    208.25475    522.78529    128321.52   -40912.974     2591.085   -43504.059    25.348825   0.97328563 
   14200    209.86395    581.16005     128422.5   -40949.329    2611.1065   -43560.435    25.361182   0.97252034 
   14300    213.56107    519.73313    128264.55   -41008.672    2657.1057   -43665.777    25.484009   0.97371793 
   14400    210.47028    456.53394    128227.73   -40979.677    2618.6505   -43598.328     25.54464   0.97399752 
   14500    208.28694    454.47657    128233.74   -40915.769    2591.4855   -43507.254    25.607532   0.97395187 
   14600    209.95094    429.83861    128219.01   -40919.499    2612.1888   -43531.688      25.8004    0.9740638 
   14700    204.45923    510.36785    128222.66   -40964.728    2543.8616   -43508.589    25.861286     0.974036 
   14800    205.93252    564.35268    128167.12   -41004.543     2562.192   -43566.735    26.024796    0.9744581 
   14900    204.17607    387.84009    128238.45   -41074.244    2540.3385   -43614.582    26.156421   0.97391608 
   15000     208.0114      653.934    128288.28   -41076.765    2588.0573   -43664.822    26.085901    0.9735378 
   15100    204.02037    653.24853    128431.17   -41084.924    2538.4013   -43623.325    26.140197   0.97245465 
   15200    206.98561    433.27051    128495.31   -41013.375    2575.2945    -43588.67    26.303862   0.97196927 
   15300    205.99265    523.79881    128412.29    -41013.76    2562.9402     -43576.7    26.315125   0.97259765 
   15400    206.62926    372.37783    128409.49   -40992.575    2570.8609   -43563.436    26.480872   0.97261888 
   15500     207.3355    428.37378    128259.91   -40962.888    2579.6479   -43542.536    26.633559   0.97375313 
   15600     210.9281     427.0206    128124.57   -40905.786    2624.3466   -43530.133    26.773966   0.97478175 
   15700    204.38031    481.67175    128043.97   -40988.086    2542.8796   -43530.965    26.806205   0.97539534 
   15800    211.43386    534.74374    128248.37   -40982.451    2630.6392    -43613.09    26.933233   0.97384076 
   15900    208.54307    534.13155    128339.03   -41024.023    2594.6722   -43618.695    27.058371   0.97315283 
   16000    209.98912    454.94667    128411.93   -40970.757    2612.6639   -43583.421    27.086737   0.97260041 
   16100    211.40707    510.82809       128390    -40925.99    2630.3059   -43556.296    27.187483   0.97276653 
   16200    206.80819     503.9599    128199.91   -40973.123    2573.0871    -43546.21    27.381893   0.97420889 
   16300    208.19057    432.54264    128230.74   -40988.795    2590.2865   -43579.082    27.470163   0.97397465 
   16400    213.01614    473.95847    128160.26   -40899.319    2650.3258   -43549.645    27.431876   0.97451031 
   16500    215.33174     489.6888    128337.26   -40896.606    2679.1362   -43575.742    27.416166    0.9731663 
   16600    213.31563    600.64383    128304.16   -40878.368    2654.0519    -43532.42    27.558198   0.97341732 
   16700    208.80925    489.81938     128149.6   -40895.982     2597.984   -43493.966     27.81715   0.97459135 
   16800    210.54829    690.62667    128130.92   -40890.716     2619.621   -43510.337    27.749541   0.97473342 
   16900    208.03313     552.3857    128116.68   -40854.901    2588.3276   -43443.229    28.035233   0.97484179 
   17000    208.55776    370.34521    128034.68   -40876.797     2594.855   -43471.652    28.227237   0.97546614 
   17100    213.99859    527.01237    127986.01   -40808.131    2662.5493    -43470.68    28.307645   0.97583704 
   17200    213.22471    432.20155    128008.93   -40819.578    2652.9208   -43472.499    28.329915    0.9756623 
   17300    211.38453    391.85144    127945.89   -40876.856    2630.0254   -43506.882    28.244806   0.97614307 
   17400     208.2251    384.95815    128089.21   -40914.827    2590.7161   -43505.543    28.389252    0.9750508 
   17500    210.89378    615.93292    128062.71   -40895.486    2623.9196   -43519.406    28.641664   0.97525258 
   17600    209.65154    496.86465    128050.76   -40875.084    2608.4637   -43483.548    28.696191   0.97534358 
   17700    207.26042    607.92554    128102.12    -40888.21    2578.7137   -43466.923    28.646043   0.97495256 
   17800    207.45722    612.19463    128145.37   -40885.113    2581.1622   -43466.275    28.742004   0.97462355 
   17900    215.59236    568.84682     128215.9   -40855.284    2682.3788   -43537.662    28.784516   0.97408736 
   18000    212.19649    624.31552    128172.51   -40805.929    2640.1277   -43446.057    28.886991   0.97441716 
   18100    211.06207    466.60032    128104.56   -40901.801    2626.0134   -43527.814    29.122727     0.974934 
   18200    211.38084    525.48524    128191.12   -40888.913    2629.9796   -43518.893    29.243772   0.97427565 
   18300     211.1029     479.0354    128035.96   -40805.598    2626.5214   -43432.119    29.229514   0.97545639 
   18400    209.91743    380.41203    128108.49   -40864.266    2611.7719   -43476.038    29.334469   0.97490409 
   18500    212.87021    449.82026    128146.22   -40825.966    2648.5102   -43474.477    29.446149   0.97461702 
   18600    209.31841    614.77101    128188.81   -40870.756     2604.319   -43475.075    29.534105   0.97429322 
   18700     210.2356    525.23251    128291.14   -40832.836    2615.7305   -43448.567    29.572359   0.97351608 
   18800    214.16181    314.70138    128338.93   -40811.917    2664.5801   -43476.497    29.785422   0.97315357 
   18900    210.24587        442.3    128172.03   -40866.239    2615.8583   -43482.098    29.868171   0.97442079 
   19000    206.58231       567.67    128355.41   -40853.272    2570.2766   -43423.549    30.183046   0.97302862 
   19100    207.82703    508.65192    128376.98   -40894.174    2585.7633   -43479.938     30.37758   0.97286515 
   19200    212.19079    738.75141    128395.21   -40878.873    2640.0569   -43518.929    30.590603   0.97272703 
   19300     212.8648    393.95743    128451.56   -40836.083    2648.4428   -43484.526    30.662974    0.9723003 
   19400    209.86337    502.43836    128449.09   -40849.495    2611.0994   -43460.594    30.688028   0.97231902 
   19500    209.54133    460.79567    128484.74   -40841.529    2607.0926   -43448.622     30.77289   0.97204918 
   19600     213.0337    446.70124    128438.02   -40889.641    2650.5442   -43540.185    30.716487   0.97240281 
   19700    211.79256    520.83504    128674.44   -40879.128    2635.1021    -43514.23    31.086169   0.97061614 
   19800    209.11381     435.8498    128660.66   -40915.336    2601.7734    -43517.11    31.166503   0.97072014 
   19900    209.97313    550.84846    128604.03   -40930.295     2612.465    -43542.76    31.078244   0.97114754 
   20000    211.50469    668.75311    128553.68   -40984.033    2631.5204   -43615.553    31.313823   0.97152795 
   20100    213.21877    513.81978    128432.45   -40949.006    2652.8468   -43601.853    31.205236   0.97244497 
   20200    207.39309    346.21801    128431.81   -41006.976    2580.3643    -43587.34    31.084643   0.97244984 
   20300    207.18789    546.23275    128514.81   -41032.226    2577.8113   -43610.037    31.257473   0.97182178 
   20400    201.27818    629.87463    128410.51   -41036.481    2504.2833   -43540.764    31.414415    0.9726111 
   20500    210.59694    543.90511    128392.98   -41005.672    2620.2263   -43625.899     31.52564    0.9727439 
   20600    210.05627    566.94655    128566.39   -41033.943    2613.4994   -43647.442    31.615375    0.9714319 
   20700    209.31305    652.83702    128644.94   -40985.881    2604.2522   -43590.134    31.739888   0.97083877 
   20800    209.13318    642.54844    128584.82   -40984.695    2602.0144    -43586.71    31.698621   0.97129265 
   20900    210.06073    492.55951    128530.38   -41017.732    2613.5548   -43631.287    31.841749   0.97170406 
   21000    205.85412    389.46652    128237.31   -41103.263    2561.2166    -43664.48    31.822068   0.97392475 
   21100    206.19208    480.97782    128150.48   -41118.433    2565.4215   -43683.855    31.816642   0.97458462 
   21200      203.854    511.79935     128236.3    -41081.58    2536.3313   -43617.911    31.998718   0.97393242 
   21300    206.95379    630.59982    128302.97   -41089.103    2574.8985   -43664.002    32.007749   0.97342634 
   21400    207.67295    415.13988    128334.66   -41058.596    2583.8464   -43642.442    32.221816   0.97318594 
   21500    204.62715      535.748    128323.96   -41042.006    2545.9507   -43587.957    32.053774   0.97326712 
   21600    208.23915     393.0127    128186.25     -40997.3    2590.8909   -43588.191    32.092175   0.97431267 
   21700    210.79401    548.60091    128118.23   -40969.417    2622.6782   -43592.095    32.276756   0.97483001 
   21800    209.50061     511.1194     128237.9   -40943.694    2606.5859    -43550.28     32.62143   0.97392027 
   21900     211.4374    686.86028    128392.27   -40953.395    2630.6832   -43584.078    32.585796   0.97274932 
   22000    208.46083    401.14037    128277.51   -40988.509    2593.6491   -43582.158    32.550638   0.97361958 
   22100    208.61816    372.23489    128306.78   -40926.806    2595.6065   -43522.413    32.595208   0.97339745 
   22200    209.91949    467.27734    128322.66   -40945.021    2611.7975   -43556.819    32.736806   0.97327699 
   22300    210.10462    427.15697    128227.62   -40907.004    2614.1009   -43521.104    33.022267   0.97399833 
   22400    212.49012    666.94329    128272.21   -40876.697    2643.7811   -43520.478    33.114397   0.97365978 
   22500    211.75565    447.81954    128475.82   -40880.207    2634.6429    -43514.85    33.245344   0.97211673 
   22600    212.20245    456.77084    128385.48   -40854.238    2640.2019    -43494.44    33.266792   0.97280079 
   22700    213.03554    522.21085    128415.95   -40855.713    2650.5671    -43506.28    33.552854   0.97256992 
   22800     211.6754    635.73354    128520.73   -40846.196    2633.6444    -43479.84    33.673333   0.97177699 
   22900    209.41999    401.64945    128541.68   -40888.794    2605.5828   -43494.377    33.819876   0.97161865 
   23000    210.73642    362.43698    128475.35   -40873.359    2621.9618   -43495.321    34.012545   0.97212027 
   23100    206.29236    644.17308    128542.62    -40981.74    2566.6692   -43548.409    33.971119   0.97161154 
   23200    211.77473    526.32943    128491.27   -40936.946    2634.8803   -43571.827     34.40092   0.97199984 
   23300    207.13207    598.28764    128483.27   -40987.787    2577.1167   -43564.904    34.455229   0.97206035 
   23400    210.91018    566.57828    128580.42   -40931.248    2624.1236   -43555.371    34.511989   0.97132589 
   23500    209.64006    472.97313    128647.43   -40977.753    2608.3209   -43586.074    34.535296   0.97081997 
   23600    211.02352    548.89254    128610.58   -40967.004    2625.5338   -43592.538     34.76721   0.97109808 
   23700    213.07768    650.65721    128674.16   -41002.795    2651.0914   -43653.886    34.863854   0.97061831 
   23800    206.64673    458.44145    128584.13   -41048.313    2571.0782   -43619.391    34.819537   0.97129787 
   23900    205.02776    486.87723    128621.24   -41047.991    2550.9352   -43598.926    34.937321   0.97101761 
   24000    212.32469    392.19079    128675.86   -40975.284    2641.7228   -43617.007    35.451895   0.97060545 
   24100    210.20537    512.71168    128636.33   -40983.669    2615.3544   -43599.023     35.57024   0.97090375 
   24200    208.48612    481.17546    128675.25   -41051.215    2593.9637   -43645.179    35.594118   0.97061006 
   24300    211.37052    434.41894    128705.96   -41029.163    2629.8511   -43659.014    35.688041   0.97037844 
   24400    209.31346    292.47188    128709.78   -41069.833    2604.2574    -43674.09     35.93774   0.97034962 
   24500    211.99758    464.38869    128573.84   -41036.945    2637.6529   -43674.598    35.763188   0.97137563 
   24600    209.13902    540.10002    128503.34   -41021.706    2602.0871   -43623.793    35.685973    0.9719085 
   24700    206.48541    473.62757    128554.79   -41045.727     2569.071   -43614.798    35.800865   0.97151954 
   24800    213.37597    605.65006     128495.4   -41041.115    2654.8027   -43695.918    36.033017   0.97196859 
   24900    208.36671    500.24016    128363.78   -40980.853     2592.478   -43573.331    36.115322   0.97296519 
   25000    210.65155    510.28563    128424.03   -40946.748    2620.9057   -43567.653    35.874049   0.97250877 
   25100    212.42668     538.9503    128540.03    -40953.45    2642.9917   -43596.441    36.023655   0.97163113 
   25200    207.77157    504.85169    128577.62   -40987.581    2585.0733   -43572.655     36.25311   0.97134705 
   25300    210.26761    645.56948       128341   -40990.447    2616.1288   -43606.576    36.397748    0.9731379 
   25400    213.19432    437.20342       128362   -40982.911    2652.5426   -43635.453    36.653996    0.9729787 
   25500    211.22626    625.61575    128377.39   -40944.819    2628.0562   -43572.875    36.755609   0.97286207 
   25600    210.26141    598.27173    128495.75   -41033.053    2616.0517   -43649.105     36.93839   0.97196593 
   25700    209.17726    501.77286    128426.46   -41059.587    2602.5628    -43662.15    36.900174    0.9724903 
   25800    215.57597    584.74757    128562.29   -41051.112    2682.1749   -43733.287    36.844372   0.97146286 
   25900    213.26361    577.40884    128620.44   -41006.833    2653.4048   -43660.237    36.904357   0.97102369 
   26000     209.2406    539.07942    128704.43   -40954.449    2603.3509     -43557.8    37.073633   0.97038998 
   26100    210.86754    544.60198     128610.4   -41037.017    2623.5931    -43660.61    37.200057   0.97109949 
   26200    210.21988    451.51974    128542.84   -41022.894     2615.535   -43638.429    37.339571   0.97160989 
   26300    211.46838    559.98577     128566.9   -40989.953    2631.0686   -43621.022    37.465081   0.97142803 
   26400    211.68627    503.78161    128554.11   -40976.562    2633.7796   -43610.341    37.407682   0.97152467 
   26500    208.07138    492.62736    128539.93   -41029.147    2588.8036    -43617.95    37.515402   0.97163184 
   26600     207.6149      797.828    128612.57     -41076.7     2583.124   -43659.824    37.752336   0.97108306 
   26700    205.31478    519.51006    128719.84   -41095.462    2554.5063   -43649.968    37.909901   0.97027383 
   26800    207.48395    420.25242    128815.65   -41025.747    2581.4948   -43607.242    37.966019   0.96955213 
   26900    209.20968    483.33651    128801.92   -41029.679    2602.9662   -43632.645    37.997411   0.96965547 
   27000    207.13816    533.48336    128765.54   -41054.268    2577.1925    -43631.46    38.292059   0.96992949 
   27100    211.08625    364.85452    128660.49   -41060.394    2626.3142   -43686.708    38.174285   0.97072144 
   27200    207.12787    658.94262    128663.14   -41079.073    2577.0645   -43656.138    38.431864   0.97070141 
   27300    208.54236    608.67483    128499.27   -41099.462    2594.6635   -43694.125    38.408777   0.97193928 
   27400     213.3365    603.32525    128555.06   -41044.153    2654.3117   -43698.465    38.586951   0.97151747 
   27500     210.5623    676.25776    128538.52   -40976.721    2619.7954   -43596.516    38.684134   0.97164253 
   27600    212.56032    624.61607    128616.87   -40997.443    2644.6545   -43642.097    38.857017   0.97105061 
   27700    211.46074    457.10718    128561.31   -40989.003    2630.9736   -43619.977     38.81151   0.97147029 
   27800     215.5575    665.20851    128502.81   -40914.707     2681.945   -43596.652    39.293793   0.97191256 
   27900    212.80706    600.67395    128586.48   -40947.054    2647.7244   -43594.778    39.390793    0.9712801 
   28000    210.99957    496.33921     128777.8   -40973.034    2625.2358    -43598.27    39.388196   0.96983714 
   28100    211.74308    492.23325     128672.4   -40965.146    2634.4865   -43599.632    39.373484   0.97063156 
   28200    209.55861    481.86373    128520.39   -41004.637    2607.3075   -43611.945    39.497778   0.97177959 
   28300     211.3537    472.01955    128549.94     -41002.1    2629.6418   -43631.742    39.448056    0.9715562 
   28400    209.52774    427.56175    128759.81   -41037.188    2606.9234   -43644.112    39.550753    0.9699726 
   28500    206.40726    494.20534    128875.34   -41063.812    2568.0987    -43631.91    39.828418   0.96910312 
   28600     209.9761    642.68855    128742.85   -41018.629    2612.5018    -43631.13    39.675367   0.97010043 
   28700    205.17451    540.46683    128790.33   -41028.759    2552.7609    -43581.52    39.986864   0.96974278 
   28800     210.5516    450.09815    128835.57   -41004.018    2619.6622   -43623.681    40.105103   0.96940224 
   28900    210.80803    639.21453    128738.62   -40976.792    2622.8526   -43599.644    40.301216    0.9701323 
   29000    207.91716    394.81778    128733.88   -41042.271    2586.8847   -43629.156    40.326517   0.97016804 
   29100    213.82142    424.52246     128738.4   -40999.388     2660.345   -43659.733    40.316694   0.97013393 
   29200    207.03547    494.08591    128791.02    -40954.61    2575.9149   -43530.525    40.423745   0.96973759 
   29300    209.66057    215.46234     128817.3   -41022.318     2608.576   -43630.894    40.393071   0.96953971 
   29400    211.61453    463.28089    128596.73   -41079.483    2632.8871   -43712.371    40.464634   0.97120267 
   29500    209.38057    433.81273    128649.13   -41107.588    2605.0923    -43712.68    40.437753   0.97080711 
   29600    211.62518     452.5381     128884.2    -41032.08    2633.0196   -43665.099    40.485679   0.96903644 
   29700    208.90739     408.2759    128798.07   -41077.727    2599.2051   -43676.932    40.557108   0.96968452 
   29800    211.37498    563.10443    128844.17   -41062.352    2629.9066   -43692.259    40.727149   0.96933758 
   29900    207.97641    542.08386    128955.43   -41093.757     2587.622   -43681.379    40.918599   0.96850119 
   30000    207.82318    331.83424    128904.17   -41069.752    2585.7154   -43655.467    41.011417   0.96888634 
   30100    210.81617    620.84124    128731.68   -41057.012     2622.954   -43679.965    41.078661   0.97018459 
   30200    210.57063    651.74309    128739.37   -41054.656     2619.899   -43674.555    41.210629   0.97012665 
   30300    211.71021    414.50393    128652.69    -41017.64    2634.0775   -43651.717    41.113154   0.97078027 
   30400    207.65534    597.07354    128705.79   -41000.551    2583.6272   -43584.178    41.110075   0.97037975 
   30500    211.73639    458.64476    128647.62   -41015.876    2634.4033   -43650.279     41.16471   0.97081849 
   30600    213.66056    642.61115    128604.65   -41008.386    2658.3436   -43666.729    41.432048   0.97114286 
   30700    210.91571    480.53927    128700.97   -41028.607    2624.1924     -43652.8    41.684483   0.97041608 
   30800    211.56312    439.75179    128833.82   -40983.911    2632.2474   -43616.159    41.767048   0.96941544 
   30900    203.85025    539.02819    128965.02   -41093.317    2536.2846   -43629.602    41.927634   0.96842919 
   31000    207.21664    584.28765    128846.94   -41138.331     2578.169     -43716.5     41.87829    0.9693167 
   31100    203.28596    537.54283    128770.69   -41126.968    2529.2638   -43656.232    41.920567    0.9698907 
   31200    205.11932    480.70059    128772.18   -41129.442    2552.0743   -43681.516    41.872503   0.96987943 
   31300    208.26922    655.94481    128792.54   -41068.096    2591.2651   -43659.361    42.044446   0.96972616 
   31400    209.05423    640.31059    128720.48   -41023.329    2601.0321   -43624.361    42.144631   0.97026897 
   31500    208.66012    411.94495    128868.96   -41065.392    2596.1286   -43661.521    42.383658   0.96915109 
   31600     212.3228    441.59247    128771.03   -41002.007    2641.6992   -43643.707    42.470225   0.96988808 
   31700    209.28831    519.31554    128703.55    -41029.12    2603.9445   -43633.065    42.709881   0.97039662 
   31800    212.72015     581.9224    128821.88   -40979.071    2646.6431   -43625.714    42.768148   0.96950525 
   31900    211.39272    457.36112    128917.18       -40982    2630.1274   -43612.127    42.907158   0.96878855 
   32000    213.51967     450.3447     128746.8   -40983.351    2656.5906   -43639.942     42.86021   0.97007066 
   32100    214.53404    478.76799    128702.79    -41009.21    2669.2114   -43678.421    42.979453   0.97040239 
   32200     209.7033    489.76606     128668.6   -41005.624    2609.1077   -43614.731     43.03832   0.97066022 
   32300    210.87226    482.52249     128841.2   -40987.866    2623.6518   -43611.518    43.017947   0.96935985 
   32400    212.50138      523.392    128736.57    -41041.71    2643.9212   -43685.631    43.083975   0.97014775 
   32500    209.97185    593.65108     129063.5   -41062.937     2612.449   -43675.386    43.290088   0.96769026 
   32600     212.7093    399.84271    129244.64     -41017.4    2646.5081   -43663.908      43.4364   0.96633402 
   32700    210.13624    390.57557       129112   -41082.358    2614.4943   -43696.852    43.381999   0.96732673 
   32800    205.53072    410.43408    129122.72   -41119.761    2557.1929   -43676.954     43.45317   0.96724648 
   32900    208.69661    421.88502    128935.36   -41125.923    2596.5826   -43722.505     43.58281   0.96865194 
   33000    208.48219    556.48067    129174.83   -41181.811    2593.9149   -43775.726    43.896126   0.96685627 
   33100    206.48462    473.77901    129065.06   -41118.313    2569.0613   -43687.374    44.015458   0.96767854 
   33200    211.25778    404.03588    128997.55   -41161.153    2628.4484   -43789.601    43.986172   0.96818501 
   33300    207.78916    519.72684    128892.83   -41109.156    2585.2921   -43694.448    44.006708   0.96897158 
   33400    206.05927    464.25135    128932.65   -41196.396    2563.7691   -43760.165    44.099877   0.96867236 
   33500    209.98329    531.27297    129005.31   -41173.475    2612.5913   -43786.066    44.051319   0.96812678 
   33600    210.52762    518.19141     129208.1   -41143.866    2619.3638    -43763.23    44.297858   0.96660732 
   33700    207.40247    583.63964    129209.15   -41132.897     2580.481   -43713.378    44.410568   0.96659945 
   33800    207.11043     625.7481    129245.14    -41115.87    2576.8475   -43692.718     44.49449   0.96633028 
   33900    211.21888    444.48452    129060.44    -41116.53    2627.9645   -43744.494    44.272228   0.96771318 
   34000    209.95776    495.34235    129172.69   -41084.237    2612.2737   -43696.511    44.463494   0.96687229 
   34100    208.94654    312.08358     129141.4   -41125.252    2599.6922   -43724.944    44.480383   0.96710651 
   34200    209.72431    624.55189    129254.42   -41131.112    2609.3692   -43740.482    44.365733   0.96626086 
   34300    207.74452    485.76072    129214.69   -41171.948    2584.7368   -43756.684     44.25566   0.96655802 
   34400     208.2645    412.21164    129261.39   -41110.433    2591.2063    -43701.64    44.478938   0.96620879 
   34500    208.80705    474.44213    129191.07   -41142.903    2597.9566   -43740.859     44.72914   0.96673472 
   34600    209.20126    412.18601    129223.35   -41129.803    2602.8614   -43732.665    44.874975    0.9664932 
   34700    207.52173    424.73741    129176.19   -41199.584    2581.9648   -43781.548    44.960019   0.96684608 
   34800     209.0624    490.58563    129223.74   -41186.832    2601.1337   -43787.966    45.143642   0.96649028 
   34900    205.97174    703.73801    129071.32   -41185.083    2562.6801   -43747.763     44.98843   0.96763163 
   35000    202.90947    414.23948    129000.29   -41232.439    2524.5796   -43757.019    45.146354   0.96816439 
   35100    209.80772    545.46566    128942.04   -41159.652    2610.4069   -43770.059    45.319153   0.96860182 
   35200    208.98172    440.14947    129004.73   -41152.681    2600.1299   -43752.811    45.433358   0.96813111 
   35300    208.12356    665.25015    128848.34    -41149.45    2589.4527   -43738.903    45.400626   0.96930615 
   35400    204.50226    562.55278    128852.67   -41142.662     2544.397   -43687.059    45.452564   0.96927357 
   35500    210.30552    362.33307    128738.01   -41037.859    2616.6005   -43654.459    45.280002   0.97013688 
   35600    206.47376    551.60569    128773.16   -41075.695    2568.9261   -43644.621    45.417441   0.96987205 
   35700    209.01685    695.82457    128927.94   -41036.232     2600.567   -43636.799    45.404886   0.96870774 
   35800    212.43694    550.64012    128872.68    -41074.89    2643.1194   -43718.009    45.769521   0.96912311 
   35900    210.72616    605.48041    128898.29   -41039.356     2621.834    -43661.19    45.843642   0.96893052 
   36000    208.67724    470.24126    128685.52     -40995.8    2596.3416   -43592.141    45.885382    0.9705326 
   36100    212.56453      478.256    128755.93   -41005.903    2644.7068    -43650.61    45.866977   0.97000187 
   36200    210.00294    596.91311    128864.72   -41036.337    2612.8358   -43649.172    45.979533   0.96918294 
   36300    209.13169    542.52744    128873.48   -41097.961    2601.9958   -43699.957    46.111957   0.96911712 
   36400    212.49155    523.09616    129045.99   -41053.398    2643.7988   -43697.197    46.208338   0.96782157 
   36500    209.53776    605.83862    129041.62   -41046.248    2607.0481   -43653.296    46.473684   0.96785435 
   36600    205.44872     507.7329    128987.75   -41164.135    2556.1726   -43720.308    46.323634   0.96825853 
   36700    210.76561    490.64354    129010.97   -41109.467    2622.3249   -43731.792     46.48878   0.96808429 
   36800    209.70248    554.57123    128899.94   -41103.509    2609.0976   -43712.607    46.574783   0.96891814 
   36900    211.75383    452.93684    129168.89   -41136.556    2634.6203   -43771.176    46.596677   0.96690072 
   37000    214.16681    361.64893     129129.8   -41090.492    2664.6423   -43755.134    46.451701   0.96719337 
   37100    214.10433    672.41184    129062.26   -41081.976    2663.8649   -43745.841    46.472877   0.96769955 
   37200    208.18356    652.72307    129028.78   -41123.213    2590.1993   -43713.412    46.634779   0.96795066 
   37300    208.17927    416.27293    128928.98   -41140.816    2590.1459   -43730.962    46.721522   0.96869988 
   37400    208.54576    507.86076    128953.83   -41165.553    2594.7057   -43760.259    46.868745   0.96851324 
   37500    207.82421    498.01111     128821.2   -41166.019    2585.7283   -43751.748    47.114078   0.96951039 
   37600    208.82255    526.81987    128976.88   -41126.655    2598.1495   -43724.805     47.22871   0.96834012 
   37700    208.73431    329.02055    128912.35   -41134.806    2597.0516   -43731.857    47.495201   0.96882485 
   37800    206.21724    500.69001    128982.58   -41235.459    2565.7346   -43801.194    47.551327   0.96829737 
   37900    205.04984    543.42789    128802.99   -41196.673    2551.2098   -43747.883    47.620004   0.96964748 
   38000    207.22961      526.264    128933.44   -41174.343    2578.3303   -43752.673    47.603834   0.96866638 
   38100    208.06771    484.37329    129023.43   -41132.849    2588.7579   -43721.607    47.547646   0.96799079 
   38200    206.02526    408.18541       128988   -41144.963    2563.3459   -43708.308     47.63371   0.96825669 
   38300    209.57223    640.63331    129103.95   -41084.724     2607.477   -43692.202    47.622195   0.96738706 
   38400    211.23448     493.8696    129160.01   -41130.433    2628.1585   -43758.591    47.756148   0.96696721 
   38500    212.59175    455.65447    129198.09   -41140.219    2645.0455   -43785.265    47.843349   0.96668216 
   38600    211.74058    610.23085    129114.22   -41094.787    2634.4554   -43729.242    48.093934   0.96731012 
   38700    209.31273    520.49916    129096.44   -41106.515    2604.2483   -43710.764    47.982467   0.96744337 
   38800    210.69199    482.27767    129145.54   -41128.418    2621.4089   -43749.827    47.973513   0.96707553 
   38900    213.37146    364.57142    129139.89   -41090.118    2654.7466   -43744.864    47.964624   0.96711784 
   39000    211.56322    364.52889     129073.2   -41133.716    2632.2487   -43765.965    47.976529   0.96761755 
   39100    211.72311    419.31656    128762.56   -41101.232     2634.238    -43735.47    47.944026   0.96995194 
   39200    209.73326    598.04848       128794   -41115.304    2609.4805   -43724.784    48.154234   0.96971515 
   39300    209.74469    545.32121    128690.15   -41114.636    2609.6227   -43724.259     48.37723   0.97049768 
   39400    205.74826    386.56288     128659.3   -41071.864    2559.8995   -43631.764    48.472915   0.97073041 
   39500    214.80713    565.13412    128708.95   -41047.229     2672.609   -43719.838    48.399862   0.97035593 
   39600    210.33152    612.75689    128854.89   -41091.002     2616.924   -43707.926    48.499097   0.96925693 
   39700    208.43303    560.31158    128853.52   -41041.271    2593.3032   -43634.574    48.572982   0.96926723 
   39800    208.40269    289.48304    128856.98   -41098.605    2592.9257   -43691.531    48.719348   0.96924118 
   39900    210.69777    764.59616     128751.5   -41146.504    2621.4808   -43767.985    48.644222   0.97003527 
   40000    206.07888    482.86599    128816.28   -41170.152    2564.0131   -43734.165     48.85259   0.96954741 
   40100    207.67267     406.6044    128918.39   -41077.678    2583.8429   -43661.521    48.587314    0.9687795 
   40200    209.06013    517.77939    128965.65    -41091.68    2601.1055   -43692.785    48.872446    0.9684245 
   40300    210.79877    504.54731     128879.5    -41067.53    2622.7375   -43690.268    48.896564   0.96907178 
   40400    211.07992    498.99841    128947.93   -40979.089    2626.2354   -43605.324    49.028212   0.96855758 
   40500    209.12734    374.61962    128958.51   -40988.938    2601.9417   -43590.879    48.968729   0.96847805 
   40600    209.78232    641.83602    129054.33   -41034.218    2610.0909   -43644.309    49.070145   0.96775898 
   40700    211.21267    480.92785    128973.77   -41081.733    2627.8871    -43709.62    49.330022   0.96836352 
   40800    207.07344    594.64332    129001.23   -41141.179    2576.3872   -43717.566    49.263315   0.96815738 
   40900    206.67155    408.03141    129170.44   -41156.421     2571.387   -43727.808    49.375979    0.9668891 
   41000    210.17247    359.62012     129011.8   -41068.896    2614.9451   -43683.841    49.315771   0.96807801 
   41100    211.24408    504.02838    128943.52   -41045.739     2628.278   -43674.017    49.333926   0.96859071 
   41200    206.90137    349.95661    128922.98    -41059.34    2574.2464   -43633.586    49.376599   0.96874497 
   41300    207.30731    486.77228    128710.59   -41191.043     2579.297    -43770.34    49.490158   0.97034355 
   41400     206.2465    595.61379    128750.22   -41133.431    2566.0986    -43699.53    49.549548   0.97004489 
   41500    207.42941    629.58838     128813.1   -41133.959    2580.8162   -43714.775    49.654035   0.96957133 
   41600    206.97396    518.07108    128818.89   -41102.754    2575.1495   -43677.904    49.677517   0.96952775 
   41700    204.33955    508.48486    128774.43   -41079.062    2542.3725   -43621.434    49.701992   0.96986249 
   41800    209.85228    465.74029    128726.57    -41084.77    2610.9613   -43695.731    49.861841   0.97022311 
   41900    208.79699    557.52746    128718.13   -41051.686    2597.8315   -43649.517    50.043715    0.9702867 
   42000    215.43445    617.20338     128893.2   -41043.477    2680.4141   -43723.891    50.245401   0.96896883 
   42100    210.11013    247.66832    128903.07   -41038.598    2614.1695   -43652.768    50.110697   0.96889464 
   42200    209.55573    591.19498    128957.91   -40994.456    2607.2717   -43601.728    50.407804   0.96848262 
   42300    212.38799    405.05675    128890.95    -40974.72    2642.5104    -43617.23    50.437315   0.96898574 
   42400    209.22552    538.75612    129115.57   -41009.268    2603.1632   -43612.431    50.614796   0.96729997 
   42500    212.04121    403.32695    129104.78   -41015.431    2638.1958   -43653.627    50.439214   0.96738087 
   42600    211.84742    545.26226    128864.48   -41019.194    2635.7846   -43654.979    50.151473   0.96918478 
   42700    210.66229    577.95538    128947.69   -41019.476    2621.0394   -43640.515    50.305436   0.96855936 
   42800    213.43813    379.25386    128938.59   -40967.306    2655.5762   -43622.882    50.480243   0.96862775 
   42900    208.17074    488.21467    128670.07   -41020.122    2590.0398   -43610.161    50.528572   0.97064911 
   43000    208.53298    574.71859    128680.57    -41042.15    2594.5468   -43636.697    50.502547   0.97056991 
   43100    211.18841    752.94626    128903.73   -41023.438    2627.5854   -43651.023    50.679034   0.96888967 
   43200    214.87788    458.40068    128901.13   -40985.329    2673.4893   -43658.818    50.489252   0.96890923 
   43300     212.2286    660.68662    128968.92   -40991.324    2640.5272   -43631.852    50.575645   0.96839992 
   43400     212.6982    638.14955    128942.08   -40947.636      2646.37   -43594.006    51.051156   0.96860151 
   43500    209.48298    485.64144     128798.3   -40951.835    2606.3665   -43558.202    51.183268   0.96968277 
   43600    216.22551    578.32315    128849.21   -40864.267    2690.2564   -43554.524     51.35624   0.96929966 
   43700    216.63123    540.88862    128814.21    -40908.66    2695.3044   -43603.965     51.41577   0.96956298 
   43800     214.9555    572.45999    128768.55   -40933.951    2674.4551   -43608.406    51.522402   0.96990677 
   43900    214.29834     558.4148    128875.42    -40984.75    2666.2788   -43651.029    51.508758   0.96910252 
   44000    209.04389    470.08874    128870.51   -41014.545    2600.9034   -43615.449    51.495998   0.96913941 
   44100    212.26803    422.86408    128881.88   -41032.499    2641.0179   -43673.517    51.671483   0.96905395 
   44200     210.3449    576.28228     128664.1    -41072.46    2617.0904    -43689.55    51.866941   0.97069416 
   44300    207.47633    561.02373    128770.31   -41073.952       2581.4   -43655.352    51.934948   0.96989355 
   44400    207.58128    530.98686    129163.26   -41037.027    2582.7057   -43619.732    52.116869   0.96694285 
   44500    207.14849    356.34442    129020.27   -41061.248    2577.3211   -43638.569    52.161367   0.96801453 
   44600    205.54242    563.83378    128911.97   -41124.689    2557.3385   -43682.027    52.116199   0.96882772 
   44700    209.38971    503.11805    128923.24    -41101.59    2605.2061   -43706.796    52.168031   0.96874301 
   44800    208.39173    264.62806    129066.31    -41079.84    2592.7893   -43672.629     52.12478   0.96766918 
   44900    209.74489    565.56646    128992.12   -41016.247    2609.6252   -43625.872    52.302677   0.96822572 
   45000    208.60114    412.36602       128797   -41018.082    2595.3948   -43613.477    52.382696   0.96969251 
   45100    211.86235    677.37345    128746.52   -40950.737    2635.9704   -43586.708    52.372748   0.97007276 
   45200     213.9172    485.72401    128848.18   -41016.183    2661.5366    -43677.72    52.399287   0.96930741 
   45300    208.58455    316.57226    128814.41   -41039.976    2595.1884   -43635.164    52.590376   0.96956146 
   45400    210.16138    443.51845    128651.69   -41008.484    2614.8071   -43623.291    52.525097   0.97078782 
   45500    210.10871    452.77172    128812.91   -41021.733    2614.1518   -43635.885    52.554794   0.96957281 
   45600    210.07023     457.6346    128624.88   -41020.071    2613.6731   -43633.744    52.701766   0.97099018 
   45700    211.05966    488.70315     128662.6   -41037.123    2625.9835   -43663.106    52.802504   0.97070546 
   45800    212.22753    632.52468    128609.84   -40985.335     2640.514   -43625.849    52.929785   0.97110371 
   45900    214.87333     512.7422    128545.54   -40926.237    2673.4327    -43599.67    52.959782   0.97158948 
   46000     212.3613    589.73426    128820.28   -40910.771    2642.1783    -43552.95     53.32432   0.96951732 
   46100    214.10565    551.27562    128825.06   -40875.982    2663.8814   -43539.864    53.151365   0.96948134 
   46200    215.00082     575.4425    128947.75   -40884.231    2675.0189    -43559.25    53.226874   0.96855891 
   46300    215.95103    335.96673    128954.14   -40900.655    2686.8413   -43587.497    53.443408   0.96851089 
   46400    213.44644    338.70216    128879.82   -40935.074    2655.6795   -43590.753    53.534437   0.96906945 
   46500    209.66636    515.90881    128979.39   -40952.696    2608.6481   -43561.344    53.616844   0.96832127 
   46600     215.4902    379.62535    129007.66   -40945.895    2681.1077   -43627.003    53.932137   0.96810908 
   46700    211.85234    548.73057     128991.2   -41035.167    2635.8458   -43671.012    54.075392   0.96823261 
   46800    207.91327    438.27846    129002.95    -41083.03    2586.8363   -43669.866    54.481997   0.96814449 
   46900    211.59542    441.59939    128926.46   -41018.019    2632.6493   -43650.669    54.483043   0.96871885 
   47000    214.13457    384.44306    128847.35   -41009.507    2664.2412   -43673.748    54.485466   0.96931359 
   47100    209.92432    491.34939    128947.58   -40988.655    2611.8576   -43600.512    54.578602   0.96856021 
   47200    208.59103    390.90304    128827.62   -41050.672     2595.269   -43645.941    54.715664   0.96946206 
   47300    212.99796    434.96881    128992.51   -41080.448    2650.0995   -43730.547     54.62638   0.96822279 
   47400    209.24662    634.14256    129009.25   -41038.335    2603.4258   -43641.761    54.747409   0.96809721 
   47500    214.21157    485.00412    128990.87   -40985.059    2665.1991   -43650.258    54.779244   0.96823514 
   47600    209.90381    537.50511    128944.76   -40959.538    2611.6024   -43571.141    54.828699   0.96858133 
   47700     210.7866    497.25159    128810.04   -40990.427    2622.5861   -43613.013     54.75144   0.96959442 
   47800    210.33032    554.38459     128985.8   -40996.841    2616.9091    -43613.75    55.152388   0.96827315 
   47900    209.33237    532.78161    128973.09   -41076.576    2604.4927   -43681.069    55.284383   0.96836864 
   48000    205.82428    651.77995    128954.41   -41098.533    2560.8454   -43659.378    55.288668   0.96850885 
   48100    207.96621     554.9686    129148.13   -41057.841     2587.495   -43645.336    55.388116    0.9670561 
   48200     206.0564    529.70011    129188.53   -41078.189    2563.7334   -43641.923    55.470608    0.9667537 
   48300     207.3004    513.92343     129063.4   -41053.806     2579.211   -43633.017    55.659837   0.96769097 
   48400    216.32597    489.61311    129141.35   -40968.919    2691.5063   -43660.425     55.63609    0.9671069 
   48500    209.51934    503.06564    128940.61   -41023.076    2606.8189   -43629.895    55.638822    0.9686125 
   48600     209.0703    309.11796     128881.5   -41012.523    2601.2321   -43613.755    55.690466   0.96905675 
   48700    211.37374    676.77686    128703.47   -40974.107    2629.8912   -43603.998    55.699636   0.97039723 
   48800    211.11519    761.74205    128943.98   -40989.206    2626.6743   -43615.881    55.989576   0.96858723 
   48900     208.5684    431.76398    128897.57    -40963.96    2594.9874   -43558.948    56.025411   0.96893599 
   49000    212.81864    364.93831     129052.8   -41014.472    2647.8685    -43662.34    56.265417   0.96777045 
   49100    210.66289    458.28196    129071.76   -41014.013    2621.0469    -43635.06    56.265505   0.96762833 
   49200    212.09381     466.5334    129024.22   -41043.106    2638.8503   -43681.956    56.409893   0.96798488 
   49300    209.17307     396.0332    128918.39   -40986.059    2602.5107    -43588.57    56.511507    0.9687795 
   49400    212.07915    621.55941    128842.66   -40958.585    2638.6678   -43597.253    56.397218   0.96934891 
   49500    208.80327     547.2721    128814.49    -40974.18    2597.9097   -43572.089    56.318072   0.96956092 
   49600     212.1791     394.5483     128694.5   -40977.933    2639.9113   -43617.844    56.368551   0.97046491 
   49700    211.55244    470.10636    128520.91   -40995.548    2632.1145   -43627.663    56.420472   0.97177562 
   49800    210.82532    551.18332    128379.51   -41031.379    2623.0679   -43654.447    56.430855   0.97284596 
   49900    211.85298    568.81912    128454.76   -40926.321    2635.8538   -43562.175       56.435   0.97227611 
   50000    213.61952    500.55819    128450.35   -40966.991     2657.833   -43624.824    56.635703   0.97230949 
   50100    211.38252    564.52036    128497.06   -40981.373    2630.0004   -43611.374    56.854704   0.97195603 
   50200    208.92068    674.65997    128535.51   -41014.402    2599.3705   -43613.772    56.934312   0.97166526 
   50300     211.0609    535.30525    128491.03   -40996.231    2625.9989    -43622.23    57.187457   0.97200165 
   50400    210.02074    530.14952    128525.72   -41028.069    2613.0573   -43641.126    57.218139   0.97173927 
   50500    207.42646    341.51771    128349.78   -41063.756    2580.7796   -43644.535    57.102051   0.97307136 
   50600    209.12091    400.42638    128433.64   -41079.496    2601.8617   -43681.358    57.265061   0.97243597 
   50700    207.33022     538.9781     128357.3   -41099.171    2579.5821   -43678.753    57.369162   0.97301429 
   50800    205.65984    533.64028     128386.1   -41099.377    2558.7993   -43658.176    57.438956   0.97279605 
   50900    212.88407    610.85098    128461.61   -41018.026    2648.6826   -43666.709    57.546064   0.97222428 
   51000    211.87866    475.40908    128662.49   -41057.952    2636.1734   -43694.125    57.779825   0.97070629 
   51100    207.35375    587.23023    128667.21   -41089.266    2579.8749   -43669.141    57.843298   0.97067072 
   51200    208.99314     616.7134    128875.13   -41074.586     2600.272   -43674.858    58.117064   0.96910468 
   51300    210.59765    562.64313    128851.39   -41134.808    2620.2351   -43755.043    58.361384   0.96928322 
   51400    209.69721    636.72378     128974.1    -41150.44     2609.032   -43759.471    58.313153   0.96836103 
   51500    205.53057    563.96382    128900.94   -41154.373    2557.1911   -43711.564    58.428187   0.96891066 
   51600    209.57487    450.35869    128904.69   -41103.851    2607.5098   -43711.361     58.68271   0.96888246 
   51700    210.33421    423.55923    128868.12   -41082.769    2616.9574   -43699.727    58.800799   0.96915742 
   51800    210.02335    530.62456    128901.65   -41103.471    2613.0898   -43716.561     58.99442   0.96890526 
   51900    207.55673    605.91794    128909.71   -41135.827    2582.4004   -43718.228    59.097794   0.96884471 
   52000    208.56035    340.30435    128832.22   -41156.423    2594.8873    -43751.31    58.930361   0.96942743 
   52100    206.66492    480.39026    128958.19   -41095.404    2571.3045   -43666.708    58.994767    0.9684805 
   52200    207.33862    507.70327    128818.94   -41118.935    2579.6866   -43698.621    59.013471   0.96952741 
   52300    209.69249     508.9929    128868.45   -41090.999    2608.9732   -43699.973     58.99409   0.96915488 
   52400    212.37706    519.34077    128867.82   -41050.323    2642.3743   -43692.697    59.186576   0.96915964 
   52500    208.96842    452.37373     128861.9   -41045.545    2599.9645    -43645.51    59.423628   0.96920416 
   52600    206.15079    368.90228    128777.56   -41067.642    2564.9077    -43632.55    59.782214   0.96983891 
   52700    206.01101    517.22572    128791.78   -41090.037    2563.1687   -43653.206    59.850784   0.96973188 
   52800    209.81008    361.08386    128938.46   -41047.997    2610.4362   -43658.433    59.832046   0.96862869 
   52900    211.28094    572.55565    129217.41   -41046.942    2628.7365   -43675.679    60.035213   0.96653762 
   53000    214.62785    617.98396     129335.7   -41027.247    2670.3784   -43697.626    60.288084   0.96565363 
   53100    211.61826    457.85719    129403.54   -41082.269    2632.9334   -43715.203    60.181133   0.96514741 
   53200    213.89342     599.4795     129407.3   -41080.233    2661.2407   -43741.474    60.160541    0.9651194 
   53300    210.94336    477.82376    129465.15   -41080.299    2624.5364   -43704.835    60.355713   0.96468811 
   53400    207.74547    470.15212    129326.45   -41158.073    2584.7486   -43742.821    60.311465   0.96572269 
   53500    209.21294    603.09596    129287.58   -41175.093    2603.0068   -43778.099    60.477254   0.96601303 
   53600    206.72432    543.87288    129368.15   -41180.056    2572.0435   -43752.099    60.788372   0.96541142 
   53700    205.23021    506.21373    129390.27    -41217.96     2553.454   -43771.413       60.805   0.96524639 
   53800    211.36753    441.21195    129400.65   -41110.612    2629.8139   -43740.426     60.81989   0.96516894 
   53900    208.93913    408.73615    129225.86   -41167.194       2599.6   -43766.794     60.81245   0.96647446 
   54000    204.17905    447.50389    129071.05   -41134.973    2540.3756   -43675.349    60.864947   0.96763362 
   54100    207.33978    478.07992    129027.36   -41136.608    2579.7011    -43716.31    61.124327   0.96796127 
   54200    208.80268    536.52843    129007.05   -41111.739    2597.9023   -43709.641    61.269081   0.96811367 
   54300    210.95415    553.21177    129260.45   -41087.799    2624.6706   -43712.469    61.336284   0.96621581 
   54400    208.16822    449.48665     129256.9   -41117.938    2590.0084   -43707.946    61.335989   0.96624234 
   54500    211.97603    391.96797    129115.26   -41103.557    2637.3849   -43740.941    61.083043   0.96730229 
   54600    213.04035    394.13753    129098.23   -41007.094     2650.627   -43657.721    60.879673   0.96742993 
   54700    210.98988    516.29995    128966.96    -41017.25    2625.1153   -43642.365    61.172829   0.96841462 
   54800    211.52268    362.24465    128965.94   -41092.305    2631.7442   -43724.049    61.085028   0.96842229 
   54900    210.96013    513.15651    129018.24   -41137.525     2624.745    -43762.27    61.329369   0.96802973 
   55000     206.9672    451.21527    128957.42   -41202.134    2575.0654     -43777.2     61.36345   0.96848627 
   55100      209.599    453.41451    128737.22   -41170.497    2607.8101   -43778.307    61.349251   0.97014282 
   55200    207.37121    583.47224    128842.79   -41177.987     2580.092   -43758.079    61.678213    0.9693479 
   55300    210.56954    447.39833    128962.76   -41130.141    2619.8854   -43750.027    61.773725   0.96844615 
   55400    211.38113    605.03192    128922.17   -41101.601    2629.9831   -43731.584    61.731326   0.96875107 
   55500    211.17016    557.75725     128903.6   -41048.694    2627.3582   -43676.052    61.794097   0.96889063 
   55600    208.30983    469.94768    129169.14   -41088.462    2591.7703   -43680.232    61.975217   0.96689882 
   55700    208.97497    567.46757    129014.76   -41075.109    2600.0459   -43675.155    61.964749   0.96805585 
   55800     207.6577    626.10992    128942.41   -41083.271    2583.6566   -43666.928    62.009056   0.96859899 
   55900    212.62783    439.79594    128970.11   -41047.131    2645.4944   -43692.625    62.073613   0.96839101 
   56000    214.14126    420.39716    128912.88    -41034.04    2664.3244   -43698.365    62.133185   0.96882086 
   56100    214.80664    503.06352    128859.67   -41012.546    2672.6029   -43685.149    62.294576   0.96922093 
   56200    210.44982    518.31225    128975.22   -41021.773    2618.3959   -43640.169    62.557729   0.96835258 
   56300    211.35593    440.76793    128889.18   -41050.223    2629.6696   -43679.892    62.350206   0.96899902 
   56400    212.23581    473.84339     129000.8   -41050.497    2640.6169   -43691.114    62.541778   0.96816057 
   56500    209.57412    374.33326    128881.95   -41137.973    2607.5004   -43745.473    62.537601    0.9690534 
   56600    209.08573    524.87998    128987.56   -41156.316     2601.424    -43757.74    62.700358      0.96826 
   56700    205.65256    546.06163    128841.08   -41186.957    2558.7088   -43745.666     62.83318   0.96936077 
   56800    210.15329    499.07918    128932.03   -41111.495    2614.7064   -43726.201    62.837155   0.96867702 
   56900    210.68811    655.74347    128974.77   -41090.279    2621.3606   -43711.639    62.875143   0.96835598 
   57000    217.25314    497.10313    128855.55   -41034.763    2703.0421   -43737.805    62.987696   0.96925191 
   57100    207.07039    449.02817    128958.56   -41088.114    2576.3493   -43664.463     63.25198   0.96847774 
   57200    209.98474    559.08446    128927.39   -41128.577    2612.6093   -43741.186    63.341103   0.96871184 
   57300    207.29075    510.12495    129000.96   -41178.709     2579.091     -43757.8    63.737446    0.9681594 
   57400    204.39473    407.11188    128772.58   -41187.646     2543.059   -43730.705    63.452554   0.96987644 
   57500    205.94356    584.62472    128843.27   -41217.197    2562.3294   -43779.527     63.51708   0.96934428 
   57600    206.77407    410.34045    128766.83   -41172.943    2572.6625   -43745.605    63.543179   0.96991975 
   57700     207.1007    530.24861    128843.75   -41206.793    2576.7265   -43783.519     63.68589   0.96934073 
   57800    205.52103    362.15347    128821.97     -41224.9    2557.0723   -43781.972    63.805373   0.96950457 
   57900    211.49099     383.3839    128579.34   -41205.116      2631.35   -43836.466    63.918974   0.97133408 
   58000     209.3827    539.05995    128797.83   -41218.485    2605.1189   -43823.604    64.142939   0.96968633 
   58100    210.05225    654.35926    128909.53   -41164.505    2613.4493   -43777.954    64.239573   0.96884607 
   58200    210.42218    451.95434    128932.26   -41125.884    2618.0519   -43743.936    64.052315   0.96867524 
   58300    212.86178    508.47577     128940.1   -41067.599    2648.4052   -43716.005    64.149093    0.9686164 
   58400    212.20853    611.85791    128843.42    -41065.69    2640.2776   -43705.967    64.284635   0.96934322 
   58500    210.90109    463.61376    128975.33   -41062.706    2624.0106   -43686.717    64.640971   0.96835176 
   58600    213.67566    298.32397     129009.8   -41028.463    2658.5314   -43686.994    64.689714   0.96809308 
   58700    209.66993    497.06795    128940.53   -41028.734    2608.6925   -43637.427    64.682604    0.9686131 
   58800    213.45003    541.27654     129101.4   -41073.063    2655.7241   -43728.787    64.848199   0.96740618 
   58900     207.4875    468.11924    129193.94    -41112.99     2581.539   -43694.528    65.195749   0.96671323 
   59000    211.43856    454.16699    129228.79   -41099.159    2630.6977   -43729.856     65.19147   0.96645255 
   59100    212.30006    498.28541    129220.02   -41108.671    2641.4163   -43750.087    65.070444   0.96651813 
   59200    209.67941    237.22944    129276.27   -41121.397    2608.8104   -43730.207    65.104611    0.9660976 
   59300    209.31391    610.13457    129281.07   -41106.221     2604.263   -43710.484    65.134265   0.96606174 
   59400    204.58407    577.97058    129409.65   -41152.501    2545.4148   -43697.916    65.232031   0.96510182 
   59500     209.2532    594.37517    129570.56   -41107.597    2603.5076   -43711.105    65.356894   0.96390328 
   59600    208.37966    589.01666    129403.85   -41090.086    2592.6391   -43682.725    65.265636   0.96514507 
   59700    211.51107    546.95173     129471.9   -41107.408    2631.5998   -43739.008    65.211661   0.96463783 
   59800    210.07302    446.71542    129465.55   -41102.187    2613.7077   -43715.895    65.630934   0.96468515 
   59900    215.35076    366.33034    129445.94   -41086.675    2679.3729   -43766.048    65.829129   0.96483126 
   60000    207.45855    510.46125    129347.09   -41134.774    2581.1788   -43715.953    65.574593   0.96556859 
   60100    204.74853      579.484    129288.46   -41092.452     2547.461   -43639.913    65.753241    0.9660065 
   60200    209.42161    515.00893    129498.51    -41066.37     2605.603   -43671.973    66.042347   0.96443963 
   60300    208.50008    572.08175    129501.97   -41029.113    2594.1374   -43623.251    66.098798   0.96441382 
   60400    214.47837    667.62864    129364.27   -40978.531    2668.5186    -43647.05    66.062371   0.96544042 
   60500    213.89726    492.52606    129588.47   -41008.193    2661.2886   -43669.481    66.235928   0.96377007 
   60600    211.91188    558.19119    129574.47   -41065.437    2636.5866   -43702.024    66.398538   0.96387422 
   60700    213.38332    547.83162    129565.14   -41101.996    2654.8941    -43756.89     66.52092   0.96394359 
   60800    213.77426    560.10752    129549.66   -41065.733    2659.7582   -43725.491    66.579029   0.96405881 
   60900     213.1003    498.33047    129512.01   -41073.528    2651.3729     -43724.9    66.498337   0.96433905 
   61000    205.20329    405.55788    129230.46   -41108.094    2553.1191   -43661.214    66.575695   0.96644006 
   61100    212.49095    604.27715    129150.57   -41134.145    2643.7914   -43777.936     66.51479   0.96703787 
   61200    207.56711    434.98965    129358.84   -41143.402    2582.5294   -43725.932    66.575223    0.9654809 
   61300    206.15749    461.72119    129541.63    -41133.56    2564.9911   -43698.551    66.618982   0.96411859 
   61400    205.51638    412.33197    129475.44    -41171.69    2557.0144   -43728.705    66.709746   0.96461143 
   61500    209.58013    621.47322    129493.98   -41177.355    2607.5753   -43784.931    66.990215   0.96447337 
   61600    207.27068    615.03392     129666.3   -41145.827    2578.8413   -43724.669    67.172874   0.96319163 
   61700    209.10579    423.42229    129632.64   -41221.048    2601.6736   -43822.721    67.038272   0.96344169 
   61800    205.50089    487.31759    129376.77   -41288.249    2556.8218    -43845.07    67.120193   0.96534709 
   61900    208.71448     372.9141     129470.9   -41221.662    2596.8049   -43818.467    67.361382   0.96464527 
   62000    212.12986    526.26519    129442.63   -41181.869    2639.2987   -43821.168     67.39045   0.96485597 
   62100    207.96592    414.96033    129491.43   -41198.815    2587.4915   -43786.307    67.589718   0.96449233 
   62200    208.99546    607.24928    129458.45   -41143.762    2600.3008   -43744.062    67.664729   0.96473807 
   62300    210.67299    366.27361    129243.95   -41169.153    2621.1725   -43790.325    67.701849   0.96633915 
   62400    209.34612    655.20667    129221.08   -41102.251    2604.6638   -43706.915    67.767587    0.9665102 
   62500    209.21568    448.20218    129283.66   -41108.118    2603.0408   -43711.159    67.655885   0.96604239 
   62600    211.36834    424.41866    129122.62   -41131.972     2629.824   -43761.796    67.824087    0.9672472 
   62700    206.09932    433.34122    129181.88   -41149.837    2564.2673   -43714.104    67.932882   0.96680345 
   62800    208.46092    687.13286    129294.82   -41138.889    2593.6501   -43732.539    68.266108   0.96595893 
   62900    211.17698    610.68887    129397.19   -41100.193     2627.443   -43727.636    68.567669   0.96519477 
   63000    210.80824    525.48536    129436.16   -41076.508    2622.8552   -43699.363    68.504266   0.96490416 
   63100    212.70494    528.92067     129586.4   -41058.413    2646.4538   -43704.867    68.536224    0.9637855 
   63200    213.12005     593.8192    129787.68   -41096.342    2651.6186   -43747.961    68.413316   0.96229082 
   63300    208.34525    406.42985    129626.17   -41138.723     2592.211   -43730.934    68.845619   0.96348977 
   63400    213.21725     553.6625    129628.27   -41077.859    2652.8279   -43730.687    69.031371   0.96347415 
   63500    209.45494    365.98816    129703.75   -41163.841    2606.0176   -43769.859    68.813137   0.96291347 
   63600    211.55612    493.98856    129670.17   -41157.481    2632.1603   -43789.641    68.703972   0.96316289 
   63700    210.55833    533.40693       129735   -41168.262     2619.746   -43788.007     68.83647   0.96268158 
   63800    206.44151    385.15441    129508.33   -41267.105    2568.5249    -43835.63    68.749188   0.96436651 
   63900    205.67143    550.69949    129502.83   -41258.446    2558.9437    -43817.39     68.62431   0.96440744 
   64000     206.3063    513.02011    129663.46   -41251.493    2566.8426   -43818.335    68.806917    0.9632127 
   64100    207.72297    512.28382    129617.62   -41151.683    2584.4687   -43736.152     68.89482   0.96355332 
   64200    212.07359    562.06641    129760.21   -41144.747    2638.5986   -43783.346    68.950904   0.96249455 
   64300    214.99747    444.97024    129782.82   -41052.067    2674.9773   -43727.044    69.119977   0.96232686 
   64400    209.80833    403.28347    129554.29   -41074.186    2610.4145     -43684.6    69.072807   0.96402438 
   64500    214.18032    466.21726    129681.48   -41068.724    2664.8103   -43733.535     69.39759   0.96307883 
   64600     207.9865    385.36802    129537.24   -41116.754    2587.7475   -43704.502    69.242891   0.96415126 
   64700    209.37423    638.53566     129417.5   -41124.092    2605.0135   -43729.106    69.112242   0.96504333 
   64800    208.54454    591.36491    129518.87    -41141.08    2594.6906   -43735.771    69.277381   0.96428798 
   64900    207.98707    473.57611    129558.79   -41121.216    2587.7546   -43708.971    69.542385    0.9639909 
   65000    209.10602    436.03972    129734.67   -41086.685    2601.6764   -43688.362     69.63276   0.96268403 
   65100    211.47667    512.98068     129651.9   -41115.856    2631.1718   -43747.028    69.799024   0.96329855 
   65200    212.01933    459.20455    129644.49   -41108.048    2637.9235   -43745.972    70.011179   0.96335361 
   65300    212.82812    519.28214    129684.32   -41113.312    2647.9864   -43761.298    69.904698   0.96305774 
   65400    214.14229    390.17759    129398.51   -41063.701    2664.3372   -43728.038    69.585688   0.96518492 
   65500    210.01622    406.28142    129585.03   -41127.026    2613.0011   -43740.027    69.814179   0.96379569 
   65600    206.54284    418.57073    129638.96   -41157.967    2569.7856   -43727.752    70.067497   0.96339471 
   65700    208.24956    487.47095     129352.9   -41196.551    2591.0204   -43787.571    69.915897   0.96552526 
   65800    211.11395    375.76328    129243.96   -41209.615    2626.6589   -43836.274    69.989618   0.96633912 
   65900    208.44979    522.29332     129234.7   -41169.609    2593.5117   -43763.121    70.093494   0.96640837 
   66000    207.26128    414.21452    129081.07   -41072.593    2578.7244   -43651.317    70.204031   0.96755855 
   66100    211.90964    513.99599    129337.97   -41017.162    2636.5588   -43653.721    70.401627   0.96563673 
   66200    215.07356    468.02554    129281.93    -40986.81     2675.924   -43662.734    70.409904   0.96605528 
   66300    211.30023    466.73919    129096.48   -41023.889    2628.9766   -43652.866     70.42915   0.96744301 
   66400    214.86583    530.74194    129194.96   -41078.843    2673.3395   -43752.183    70.531212   0.96670562 
   66500    208.92785    547.62239    129282.05   -41098.652    2599.4597   -43698.112    70.590157   0.96605438 
   66600    211.63562    526.90075     129380.6    -41114.61    2633.1494   -43747.759    70.800425   0.96531853 
   66700    206.83649     540.8528    129345.69   -41142.068    2573.4392   -43715.507    70.863599   0.96557909 
   66800    210.39736    436.84081    129313.77   -41095.292    2617.7432   -43713.035    70.965468   0.96581742 
[...]
   84600    205.50262    464.43122    129809.74   -41342.384    2556.8433   -43899.227    84.778737   0.96212725 
   84700    208.41293    502.58209    129877.55    -41369.66    2593.0531   -43962.713    84.847687   0.96162495 
   84800    211.18177    532.20486    130006.34   -41343.481    2627.5027   -43970.983     84.85766   0.96067228 
   84900    207.93318    577.10692    130064.52   -41340.306    2587.0841    -43927.39    85.179725   0.96024261 
   85000    210.98402    569.30262    130191.32   -41291.372    2625.0423   -43916.415    85.164212   0.95930738 
   85100    209.09119    622.16966    130264.31   -41288.624     2601.492   -43890.116    85.412458   0.95876982 
   85200    210.15422    405.10587    130176.13   -41300.668     2614.718   -43915.386    85.279525   0.95941928 
   85300    206.74766    517.21033    130292.06   -41337.465     2572.334   -43909.799    85.430104   0.95856564 
   85400    207.32859    374.92054     130275.1   -41321.233    2579.5618   -43900.794    85.615589   0.95869042 
   85500    206.99086    489.47462    130215.64   -41283.568    2575.3599   -43858.928    85.693473   0.95912819 
   85600    213.14801    668.28794    130126.78    -41264.24    2651.9665   -43916.207    85.798173   0.95978313 
   85700    204.83606    401.19301    130024.62   -41309.977      2548.55   -43858.527    85.857223   0.96053725 
   85800    208.67394    360.73836    130071.36   -41324.275    2596.3005   -43920.576    85.904125   0.96019211 
   85900    211.77452    646.24712     130113.3   -41241.095    2634.8776   -43875.972    85.926916   0.95988258 
   86000    214.16481    421.87561    130015.95   -41300.497    2664.6174   -43965.115    85.929779    0.9606013 
   86100    215.27964    423.26755    129863.16   -41293.205     2678.488   -43971.693    85.659615    0.9617315 
   86200    208.94961    425.42581    129937.06   -41273.871    2599.7304   -43873.602    86.180988   0.96118451 
   86300    209.25145    478.61339    129867.19   -41305.299    2603.4859   -43908.785    86.244299   0.96170162 
   86400    211.65678    589.92631    129982.97   -41325.017    2633.4127    -43958.43    86.202724   0.96084502 
   86500    207.89879    474.05716    130161.24    -41315.35    2586.6562   -43902.006    86.441337   0.95952903 
   86600    214.47967    351.61148    130011.17   -41266.393    2668.5348   -43934.928    86.069194   0.96063662 
   86700      213.246     516.0882    129951.09   -41254.353    2653.1857   -43907.538    85.996674   0.96108075 
   86800    206.13504    380.45878     129813.5   -41314.533    2564.7118   -43879.245    86.014595   0.96209941 
   86900    215.87504    491.82068    129906.88   -41286.547    2685.8959   -43972.443    85.942002   0.96140784 
   87000     210.1162    510.65321    129870.59   -41282.613     2614.245   -43896.858    86.214851   0.96167645 
   87100    206.85941      483.731     129962.9   -41311.896    2573.7243   -43885.621    86.294552   0.96099339 
   87200    209.05405    540.18805    129935.97   -41305.948    2601.0298   -43906.978    86.173498   0.96119257 
   87300    215.99363    561.65249    130089.51   -41318.116    2687.3714   -44005.488    86.251185   0.96005813 
   87400    207.75615    693.37931    130036.93   -41324.577    2584.8815   -43909.458    86.378051    0.9604463 
   87500    209.62562    567.43807    130068.22    -41337.38    2608.1412   -43945.521    86.500931   0.96021527 
   87600     208.8304    594.68701    130065.01   -41336.415    2598.2472   -43934.663    86.416676     0.960239 
   87700    212.49651    523.02563    130097.51   -41342.174    2643.8605   -43986.034    86.703954   0.95999905 
   87800    207.59655    586.71295    130182.14   -41318.591    2582.8958   -43901.487    86.990838   0.95937503 
   87900    209.60174     581.1147    130237.06   -41332.503    2607.8441   -43940.347    86.943146   0.95897044 
   88000    207.92285    453.60861    130234.67   -41362.218    2586.9556   -43949.173    87.232491   0.95898802 
   88100    211.74951    517.40354    130164.34   -41303.261    2634.5665   -43937.828    87.152755   0.95950622 
   88200    211.61951    409.76494       130137   -41286.678     2632.949   -43919.627    87.328937   0.95970776 
   88300    209.62785    532.70752     130355.6   -41313.497    2608.1689   -43921.666    87.585996   0.95809837 
   88400    204.15059    503.56747    130236.02   -41417.896    2540.0215   -43957.918     87.56521    0.9589781 
   88500    208.61454    540.38962    130227.75   -41319.716    2595.5615   -43915.278    87.542188   0.95903901 
   88600    210.50928    490.01304    130181.87   -41280.005    2619.1356   -43899.141    87.413512     0.959377 
   88700    211.58795    455.07876    130120.43   -41259.091    2632.5563   -43891.647    87.447494   0.95982997 
   88800    216.47387    492.87834    130094.31   -41199.887    2693.3465   -43893.233    87.413531   0.96002268 
   88900    210.32209    564.14353    130118.71   -41255.561    2616.8067   -43872.367     87.77262   0.95984265 
   89000    214.28863    517.54808    130111.45   -41239.596    2666.1579   -43905.754    87.738812   0.95989626 
   89100    208.64812    470.20281    130301.35   -41353.319    2595.9792   -43949.298    88.105874    0.9584973 
   89200     205.6166    370.97566    130222.91   -41394.259    2558.2614    -43952.52    87.986339   0.95907465 
   89300     209.4505    597.68778    130242.34   -41409.349    2605.9624   -44015.312    87.837788   0.95893155 
   89400    207.14791    356.48205    130043.95     -41433.9    2577.3138   -44011.213    87.844565   0.96039444 
   89500    203.51816     578.9536    130118.14   -41455.942    2532.1528   -43988.095    88.113458   0.95984692 
   89600    204.61142    424.94582    129980.62   -41493.565    2545.7551   -44039.321    88.090993   0.96086239 
   89700    205.85479    490.09282    129950.28   -41445.674    2561.2249   -44006.899    88.333809   0.96108675 
   89800    209.46043    412.33179    130017.57   -41393.336    2606.0859   -43999.422    88.507614   0.96058935 
   89900     207.1871    435.45902    129900.16    -41425.71    2577.8014   -44003.512    88.556768   0.96145756 
   90000    208.07796    442.24336    129661.45   -41327.584    2588.8854   -43916.469    88.361809   0.96322763 
   90100    208.87054     575.4336    129826.62   -41330.729    2598.7466   -43929.475    88.362932   0.96200217 
   90200    204.55669    435.71294    129696.94   -41367.697    2545.0741   -43912.771     88.39321   0.96296408 
   90300    205.68636    554.89587    129602.08   -41380.998    2559.1294   -43940.128    88.387548   0.96366887 
   90400    210.46303    457.50959    129574.34   -41361.883    2618.5602   -43980.444    88.795285   0.96387522 
   90500    209.30378     489.5687    129480.33   -41323.239    2604.1369   -43927.376    88.735951   0.96457498 
   90600    211.36834    655.43197    129742.69   -41234.436     2629.824    -43864.26    88.635347   0.96262447 
   90700    210.47493    510.76835    129661.95   -41253.498    2618.7083   -43872.207    88.922621   0.96322394 
   90800    210.66313    540.95819    129915.09   -41290.195    2621.0498   -43911.245    88.870194   0.96134705 
   90900    208.22915    459.79563    129937.58   -41379.407    2590.7666   -43970.174     88.97115   0.96118067 
   91000    209.13982     532.0199    129933.88   -41389.341     2602.097   -43991.438    89.263788   0.96120806 
   91100    207.81397    497.38792    129976.07   -41385.342    2585.6008   -43970.943    89.224637   0.96089602 
   91200    210.83405    619.06856    130028.38   -41350.533    2623.1765    -43973.71    89.314917    0.9605095 
   91300     210.7476    337.59206    130060.75   -41270.761    2622.1008   -43892.862    89.407323    0.9602704 
   91400    213.62309    461.36569    130078.39   -41257.577    2657.8774   -43915.455    89.638539   0.96014016 
   91500     213.6705    463.80693    130013.92    -41272.24    2658.4672   -43930.707     89.71293   0.96061628 
   91600    209.07144    566.21483    129993.54   -41301.283    2601.2461    -43902.53    89.989233   0.96076694 
   91700    207.00346    503.93852    129942.15   -41372.899    2575.5166   -43948.416    89.789589   0.96114687 
   91800    207.22182    540.81285    129852.23   -41348.865    2578.2334   -43927.098     89.59657   0.96181243 
   91900    208.23312    488.52353    129916.92   -41353.244    2590.8159    -43944.06    89.602755   0.96133349 
   92000     210.0461    384.19904    129959.03   -41368.911    2613.3728   -43982.284    89.775828   0.96102204 
   92100    206.21464     573.9716    130190.33   -41416.865    2565.7021   -43982.568    89.751342   0.95931466 
   92200    210.28785    446.03684    130155.84   -41361.915    2616.3807   -43978.296    89.825387   0.95956884 
   92300    212.46625    345.06918    130307.32   -41292.871    2643.4841   -43936.355    90.266359   0.95845336 
   92400    212.17073     489.5901    130207.39    -41298.52    2639.8073   -43938.328    90.326195   0.95918895 
   92500    211.41522    539.10244    130324.41   -41340.298    2630.4073   -43970.706    90.634096   0.95832772 
   92600    212.72272    609.38065    130408.04     -41321.2     2646.675   -43967.876    90.736795   0.95771313 
   92700     207.6154    452.27045    130253.88   -41306.052    2583.1303   -43889.182    91.020002   0.95884661 
   92800    210.76501    529.19877    130257.93   -41355.728    2622.3175   -43978.046     90.66341   0.95881681 
   92900    212.70204    314.07014    130269.72   -41328.428    2646.4178   -43974.845    90.587392   0.95873001 
   93000    207.16115     586.6412    130281.78   -41350.033    2577.4786   -43927.511    90.679178    0.9586413 
   93100    212.26139    469.41062    130336.08   -41294.132    2640.9352   -43935.067    90.628726   0.95824185 
   93200    212.95177    468.58601     130307.4    -41319.02    2649.5248   -43968.545    90.811157   0.95845277 
   93300    208.20074    464.93313    130091.49   -41337.561     2590.413   -43927.974    90.829567   0.96004355 
   93400    210.21891    587.20282    130195.98   -41351.723    2615.5229   -43967.246     90.77209   0.95927301 
   93500    208.82324    541.02246    130259.54   -41395.343    2598.1581   -43993.501    90.787177   0.95880491 
   93600    209.56566    584.01811    130247.52   -41453.565    2607.3953    -44060.96     90.65026   0.95889339 
   93700    207.68193    350.07072    130176.89   -41417.186     2583.958   -44001.144    90.812157   0.95941371 
   93800    206.59043    477.97605    130197.91   -41387.574    2570.3777   -43957.951    90.864722   0.95925878 
   93900    208.49808    522.16797    130047.19   -41371.593    2594.1126   -43965.706    90.516345   0.96037057 
   94000    209.25471    648.39247    130155.67   -41383.176    2603.5265   -43986.702    90.650617   0.95957009 
   94100    208.17186    417.64671    130283.62   -41388.385    2590.0536   -43978.438    90.676974    0.9586277 
   94200    208.51292    547.49525    130324.23   -41390.483    2594.2972    -43984.78    90.968062   0.95832898 
   94300     209.5742    547.20114    130357.99   -41347.447    2607.5014   -43954.949    91.068496   0.95808081 
   94400    209.45786    558.31926    130453.51    -41330.06    2606.0541   -43936.114    90.988302    0.9573793 
   94500    207.68103    413.63943    130425.89    -41272.44    2583.9468   -43856.387     90.99726   0.95758205 
   94600    215.06699    321.22398    130411.93   -41312.597    2675.8423    -43988.44    90.872739   0.95768459 
   94700    208.41278    452.94847    130397.25   -41367.537    2593.0512   -43960.588    90.759368   0.95779234 
   94800    211.30807    573.98411    130497.49   -41377.649    2629.0741   -44006.723    91.025619   0.95705666 
   94900     211.5219    393.40587    130603.25   -41347.071    2631.7345   -43978.806    91.257994   0.95628166 
   95000     211.7869    572.23641    130547.87   -41328.719    2635.0317   -43963.751    91.255138   0.95668728 
   95100    209.97096    449.09479    130612.98   -41333.722    2612.4379    -43946.16    91.454999   0.95621041 
   95200    208.00892    419.38571     130627.4   -41351.048    2588.0265   -43939.074    91.312544   0.95610486 
   95300    214.89932    523.31489    130622.65   -41259.828    2673.7561   -43933.584    91.272639   0.95613959 
   95400     211.8424    459.24705    130557.15   -41316.028    2635.7222    -43951.75    91.185273   0.95661934 
   95500    212.57636    566.44446    130698.75   -41317.414    2644.8541   -43962.268    91.429233    0.9555829 
   95600    213.46767    474.03343     130691.5   -41319.293    2655.9437   -43975.236    91.612262   0.95563592 
   95700    206.40761    655.66869     130686.4   -41381.377    2568.1031    -43949.48    91.854134   0.95567323 
   95800    210.07787    474.40761    130765.66   -41452.956    2613.7681   -44066.724      92.0336   0.95509392 
   95900    211.55797    455.13415    130874.75   -41410.485    2632.1834   -44042.669    91.878329   0.95429783 
   96000    211.45732    465.29291    130983.96   -41495.785    2630.9311   -44126.716    92.145123   0.95350221 
   96100    209.39959    452.77005    130910.56    -41440.04     2605.329   -44045.369    92.007733   0.95403679 
   96200    208.15704    512.63087    130659.33   -41473.314    2589.8693   -44063.183    92.294196   0.95587124 
   96300    209.55718    537.79115    130448.65    -41415.11    2607.2897     -44022.4    92.082247   0.95741497 
   96400    208.80871    462.11709    130426.93   -41395.266    2597.9773   -43993.244    91.950748   0.95757443 
   96500    209.93757    675.38026    130464.41   -41442.333    2612.0225   -44054.356      91.9341   0.95729934 
   96600    207.97396    404.66449    130388.27   -41428.797    2587.5915   -44016.388    91.586855   0.95785835 
   96700     207.2002    433.92248    130467.74   -41497.366    2577.9644    -44075.33    91.838047   0.95727489 
   96800    204.75082    538.52428    130613.21   -41532.354    2547.4895   -44079.843    91.992679   0.95620871 
   96900    208.57994    594.16676    130485.59   -41470.716     2595.131   -44065.847    91.935887   0.95714394 
   97000    209.75356     511.9658    130560.55   -41470.438     2609.733   -44080.171    92.056725   0.95659442 
   97100    204.91637    573.41438    130572.79   -41457.544    2549.5492   -44007.093    92.330623   0.95650476 
   97200    211.29665    517.96713    130627.07   -41469.603     2628.932   -44098.535     92.51761   0.95610729 
   97300    208.06014    545.12845    130641.67   -41465.444    2588.6637   -44054.108     92.54275   0.95600043 
   97400    210.18922    548.09065    130672.97   -41468.681    2615.1536   -44083.834    92.627897   0.95577139 
   97500    212.08249    625.89812    130658.15   -41379.918    2638.7094   -44018.627    92.856608   0.95587985 
   97600    208.55157    423.44309    130788.33   -41443.747    2594.7781   -44038.525    92.945135   0.95492837 
   97700    212.92925    437.40192    130585.77   -41383.901    2649.2447   -44033.146    93.079395   0.95640964 
   97800    209.19168    618.16418    130660.64   -41359.038    2602.7422    -43961.78    92.953172    0.9558616 
   97900    211.00413    519.05187    130699.27   -41325.588    2625.2926   -43950.881    93.058117   0.95557914 
   98000    210.67272    509.55751    130774.24    -41359.06    2621.1691   -43980.229    93.060847   0.95503128 
   98100     208.1456    586.56381    130666.37   -41434.026     2589.727   -44023.753    93.134807   0.95581968 
   98200    209.49691    450.65079    130649.26   -41419.842    2606.5398   -44026.381    93.223951   0.95594489 
   98300    205.53579    416.11279     130425.9   -41434.456     2557.256   -43991.712    93.174168   0.95758198 
   98400     210.9759    608.23325    130600.78   -41445.501    2624.9413   -44070.443    93.520936   0.95629976 
   98500    207.92004    578.10117    130679.27    -41450.47    2586.9206   -44037.391    93.783072   0.95572532 
   98600    213.13092    473.03291    130680.03   -41481.578    2651.7538   -44133.331    93.632983   0.95571981 
   98700    205.32173    498.82235    130739.83   -41529.833    2554.5927   -44084.426    93.818511   0.95528266 
   98800    209.94189    474.59869    130627.75   -41493.021    2612.0762   -44105.097    93.849697   0.95610226 
   98900    205.08783    460.86145     130611.3   -41494.966    2551.6826   -44046.648    93.614946   0.95622268 
   99000    207.11366    406.81959    130545.91    -41538.08    2576.8877   -44114.967    93.677011   0.95670171 
   99100    207.13019    503.38336    130523.14   -41455.816    2577.0934    -44032.91    93.612005   0.95686861 
   99200    208.09181    459.42565    130556.27   -41439.804    2589.0578   -44028.862    93.575379   0.95662575 
   99300    210.62595    475.60486    130629.19   -41393.898    2620.5873   -44014.485    93.650667   0.95609176 
   99400    214.42405    488.50453    130686.28    -41382.22    2667.8428   -44050.062     93.83005   0.95567411 
   99500    216.07684    459.47924    130638.18   -41281.558    2688.4066   -43969.965    94.134643   0.95602595 
   99600    215.25522    595.22092    130793.73   -41313.653    2678.1842   -43991.838    94.266244   0.95488896 
   99700     215.1586    486.32036    130708.42   -41331.049     2676.982   -44008.031     94.24754   0.95551218 
   99800     208.6881    569.76454    130651.43   -41351.896    2596.4767   -43948.373     93.92956   0.95592902 
   99900    213.53091    478.55834    130799.38   -41408.707    2656.7305   -44065.437    94.023904   0.95484773 
  100000    212.92564    465.49336    130732.17   -41421.144    2649.1998   -44070.343    93.902755   0.95533863 
  100100    211.73328    569.80789    130821.73   -41355.111    2634.3646   -43989.475    94.358491   0.95468459 
  100200    213.54639    603.37499    130783.53   -41368.076    2656.9231   -44024.999    94.378623   0.95496348 
  100300    211.08121    486.95352    130817.48   -41360.166    2626.2515   -43986.417    94.206944    0.9547156 
  100400    211.48937    500.11713    130922.14   -41393.048    2631.3298   -44024.378     94.56135   0.95395241 
  100500     216.7439    517.92008    131018.66   -41314.338    2696.7062   -44011.044    94.383408   0.95324965 
  100600    212.64185    581.27638    131118.62   -41400.104    2645.6689   -44045.773    94.802438   0.95252292 
  100630    210.65107    353.94574    131116.29   -41389.466    2620.8998   -44010.366    94.676529   0.95253985 
Loop time of 94.6751 on 6 procs for 100000 steps with 4175 atoms

Performance: 456.297 ns/day, 0.053 hours/ns, 1056.244 timesteps/s
98.5% CPU use with 6 MPI tasks x no OpenMP threads

MPI task timing breakdown:
Section |  min time  |  avg time  |  max time  |%varavg| %total
---------------------------------------------------------------
Pair    | 70.01      | 71.542     | 74.26      |  16.9 | 75.57
Neigh   | 4.9555     | 4.9781     | 5.0121     |   0.9 |  5.26
Comm    | 12.432     | 15.188     | 16.72      |  36.9 | 16.04
Output  | 0.17544    | 0.17679    | 0.18315    |   0.7 |  0.19
Modify  | 2.0291     | 2.0533     | 2.077      |   1.2 |  2.17
Other   |            | 0.7376     |            |       |  0.78

Nlocal:        695.833 ave         705 max         690 min
Histogram: 3 0 0 0 1 0 0 0 1 1
Nghost:        1475.33 ave        1481 max        1471 min
Histogram: 1 1 1 0 1 0 0 0 0 2
Neighs:        0.00000 ave           0 max           0 min
Histogram: 6 0 0 0 0 0 0 0 0 0
FullNghs:      19342.7 ave       19632 max       19079 min
Histogram: 2 0 0 1 0 0 1 0 1 1

Total # of neighbors = 116056
Ave neighs/atom = 27.797844
Neighbor list builds = 5272
Dangerous builds = 0

undump              1
unfix               2
unfix               3
unfix               4


################################################
#######         Run Simulation         #########
################################################

reset_timestep      0
log                 log.run_${NAME}
log                 log.run_liquid_density_MLmW
