LAMMPS data file via write_data, version 29 Oct 2020, timestep = 800000

4175 atoms
1 atom types

-0.3950897912738931 50.39508979127622 xlo xhi
-0.3950897912738931 50.39508979127622 ylo yhi
-0.3950897912738931 50.39508979127622 zlo zhi

Masses

1 18.015

Atoms # atomic

1274 1 1.0289115006416485 2.3697667397645246 0.03763458881241355 0 1 0
1786 1 3.6915169153848435 1.9391932391962654 0.24849237426270454 0 0 1
3428 1 5.899775411519689 1.6794568297250394 2.436259094628355 0 0 0
1152 1 11.077098399492927 0.8993715062002385 2.1671052088715332 0 0 0
3148 1 9.785684234206672 2.505339157684501 0.2510720128923719 0 1 0
2221 1 15.925776074370187 1.899263406460629 1.0599331678740578 0 1 0
1794 1 18.296571567638004 1.4207643664909926 0.17718317982566856 0 1 1
1855 1 22.83919735664384 2.40093478209931 -0.00673761508317261 0 1 0
2993 1 27.68517365725736 1.034407159323406 1.5981103192108945 0 0 0
1932 1 32.22240194886447 0.0469050096555656 2.3480754075371184 0 0 1
2456 1 33.12672416838964 2.102985179630267 0.6806103586189893 1 1 0
610 1 36.8336396159698 0.05149117061208491 1.1660320413186789 0 0 0
359 1 37.75266313717883 2.3233157444271035 2.7627568626016923 0 0 0
1872 1 42.73794665985412 2.738332407249517 -0.08989354569484775 0 0 1
2371 1 44.705613360784824 1.0778509334400208 0.926642990348423 0 0 0
432 1 47.04208550687633 2.479642550944379 0.7302423934228621 0 0 0
3452 1 49.55107494192619 1.034925681892891 -0.07433423473384615 0 1 1
1376 1 1.132746573910802 4.7005148234537515 1.4496520736662821 0 0 0
47 1 7.531016078220183 3.6663989675570905 1.128493375510504 1 0 0
733 1 12.376080755898249 4.922212627539651 1.8326661481957411 1 0 0
2618 1 15.12488451834441 5.017482573468422 1.3235166303469958 0 1 1
1068 1 20.230554037939605 3.135446118792735 1.0341955780394694 0 0 1
3926 1 24.302737423624396 3.901313968750583 1.6445977038309159 0 0 0
1735 1 26.589032623879547 5.3532575360858425 1.622290059378261 1 0 1
2722 1 28.932976258114742 3.6439999148106805 1.2034278549636934 0 1 0
4140 1 31.859721410147454 3.8996871814684413 2.2946271111709557 0 1 1
1117 1 35.24758439019827 3.6052643674827314 1.9099529079508404 -1 0 1
1683 1 39.129425002541 3.9503925842454697 1.108261686509489 -1 0 1
4053 1 41.63075477358805 4.544531010269208 1.7550954169211348 0 1 1
1826 1 0.8570842910165495 8.881556596800936 2.1158209304158673 0 0 0
2705 1 3.357369658933624 6.072042383070705 -0.0948066533975308 1 1 0
1496 1 5.113845502765392 8.169459596284847 0.9092831332459368 1 0 1
2287 1 10.862843746457047 7.003767069200983 2.6632441277753194 0 0 0
2989 1 15.195920117846498 7.83579325493468 2.24320234429981 0 0 0
1753 1 13.512183500186733 8.735088071163737 -0.38917271704150586 0 0 1
664 1 17.85246772540955 7.606796715237941 0.5191960530034931 0 0 0
901 1 20.106222772951895 6.1241256388010115 0.6977311528941421 1 0 1
1710 1 22.726795269563596 6.22893251571344 1.8957651398982662 0 0 1
2229 1 26.0345967201748 7.566571998342905 0.021905526484081617 0 1 0
2117 1 29.13076324921383 8.262503631246647 -0.025745947763304577 0 0 0
2640 1 29.971110451822835 8.569473585951863 2.7958132676439633 1 1 0
1737 1 31.545732625918358 6.540444417102171 1.5330467544378361 0 0 1
49 1 34.01816965852004 7.823953427697441 2.156842685455662 0 0 0
4073 1 37.78161747632254 6.076276962885294 1.6045974818286606 -1 1 1
1370 1 39.95410419003049 7.538651750121055 2.9423317579717687 0 0 1
1705 1 42.900291412798325 7.086169203344739 1.6467982391917526 0 0 0
1819 1 45.65424964796196 7.672602629836463 1.1135396767419603 -1 0 1
2974 1 49.767399899431894 6.546667014185567 1.0405056662710845 0 0 1
716 1 47.514185595280864 6.433585137652445 2.7906296370425676 -1 0 0
3058 1 3.1910188725967084 10.216784571396945 1.220041993061777 0 0 0
3320 1 7.992648032335909 12.096964791531995 0.9967996989132526 0 1 0
2100 1 10.784681926447051 9.134019496066484 0.7436561115208988 2 0 1
2858 1 9.786704839725736 10.814962555181971 2.6938205223104843 0 1 1
3699 1 16.587339287087424 10.385862022940106 2.5512532028899444 0 0 0
3582 1 19.823011651778998 9.889588762505998 0.821497387582883 1 0 1
2318 1 22.336942636868983 10.444499939489837 -0.3592645865153372 0 0 0
27 1 26.51563290593658 9.996387895406288 1.158033187351943 0 0 0
964 1 29.596368342900657 11.154175481250032 0.45368851458900994 -1 0 0
2585 1 33.91691044799319 11.236077149132367 0.7106416929701871 0 0 0
1544 1 38.328734554335256 12.16997166039213 2.453709122498502 -2 0 1
3085 1 38.46149706868812 9.307585059341909 0.9317713168736153 0 1 1
2507 1 42.330535794079054 11.788072649566764 1.1032241115943138 -1 0 1
832 1 41.38541800343502 9.384178560058107 0.38686709156858623 0 0 1
190 1 46.537469615076034 10.382736976429538 0.9473258786003849 0 -1 0
3501 1 49.50750073550083 10.754863882395378 1.863941745007443 -1 1 1
2521 1 5.1931434700112264 14.537210698095892 1.169019102402176 0 0 0
922 1 7.476413951815611 15.305433279536972 0.11702364621748007 0 0 0
3226 1 11.888654718477891 13.0381682919482 2.9022941359253034 0 1 1
1854 1 11.326132005928809 14.626136255037007 0.5409583704372501 0 0 1
1418 1 14.587136872485623 13.039294769607102 2.4697493231761483 0 0 1
308 1 14.124135350430311 14.941578420011632 -0.2569788082313238 0 0 0
2364 1 16.891753479145333 13.618536982973596 0.2914503431596889 -1 1 0
3551 1 19.447481691217728 12.779105914517679 0.5017380997414852 0 0 1
315 1 24.9555072517052 12.522332240673583 0.06759349555354438 0 0 1
627 1 24.422727492581654 13.67351763534761 2.5380946593827276 0 0 0
3636 1 26.600651379275533 14.557666923788362 -0.3219985387935826 0 0 1
691 1 28.93878016968516 13.72220614064332 1.2681421182326982 0 0 0
2472 1 31.439404503613932 14.946909743534233 1.613443920084897 0 0 0
2512 1 35.20819214326043 13.47990754170438 0.5091269386326744 0 1 0
1892 1 35.00441643376924 15.47307205966796 2.8286628970723737 0 0 1
2959 1 40.04053552212021 13.210576228071757 0.3990713897608047 0 1 0
46 1 45.61055757420337 15.053852299308103 0.5562091970711646 1 0 0
2389 1 44.79101173756695 12.410862642290965 -0.10578521432924504 0 0 1
3663 1 50.32715332525193 13.552328107099962 1.826402263250289 0 0 1
2956 1 48.434970240089214 15.235868520244988 -0.2855350640062415 -1 0 1
3512 1 0.49352591673747515 16.161929024768657 1.2837106265613107 1 0 1
540 1 2.3044365862279212 17.6106360723032 -0.18977057838999864 0 0 0
3160 1 4.103447880827109 17.17996525699854 1.8653316229312216 0 0 1
87 1 8.402627689645872 16.997869413268447 2.530938191056377 0 0 0
1895 1 6.53988716373846 18.010940781786243 -0.15661166084601064 0 0 1
3406 1 11.050165675680118 17.24893446548867 1.5974852993977444 0 1 1
1900 1 15.260250480009656 17.51576379399293 -0.24761214706136958 1 -1 0
229 1 17.572142139068465 16.19256783326254 1.53388402976479 0 0 0
2973 1 19.44724506633326 18.126492461711873 -0.03380720743586846 0 0 1
2817 1 23.52771959814282 16.45314273206207 2.832351545292358 0 1 0
1546 1 22.772964222314666 16.586409037071082 0.14134013756083263 1 0 1
662 1 30.11129052158974 17.45090000846296 1.1591201681680599 0 0 0
3602 1 34.28289312939398 17.581966373943548 -0.05299123531514738 0 1 1
4137 1 36.73265135836793 17.61455857061942 0.9418818007828267 -1 0 1
1497 1 40.98060427267994 15.735800440833493 -0.009525469544328868 0 0 1
2545 1 41.85228717807769 16.998990990920007 2.1569826839669615 -1 0 0
1059 1 44.46805693786381 18.439790806916953 1.7375494971054994 0 0 1
3846 1 46.52610220811063 16.51780129667762 2.802099269555993 -1 0 0
179 1 48.80599536641658 17.886633795263773 1.916691037964473 -1 -1 0
2810 1 3.139455170813667 20.163560766058342 1.9882461682489105 1 0 0
1432 1 5.943348513599057 20.178687114518336 1.4405133580736407 0 -1 1
2303 1 11.451557892302857 20.005343837282414 0.5565946263849815 0 1 0
889 1 9.909653916109228 21.81402925187582 2.088818389164931 0 0 1
32 1 14.252415547302787 20.309980243381926 -0.35230682350777487 0 0 0
2271 1 16.0143758628998 21.267829211799185 1.377837168025382 0 0 0
2465 1 16.824191957827303 18.898976634363702 2.5592697406222826 0 0 0
1405 1 19.549014230967785 19.441802447069822 2.7698881825973913 -1 0 1
1933 1 22.033103736393922 19.49731101536829 -0.12476379934761223 0 0 1
2724 1 24.470792767880248 21.12139971230849 0.45981611664295274 0 0 0
2205 1 26.67210633409346 19.391833302964397 1.4402559305346627 0 1 0
3347 1 31.996880219292958 19.11172273253413 0.4479355538174037 0 0 1
4020 1 33.01522816123885 20.428064416443792 2.64005400434329 0 0 1
4080 1 37.1996945199447 20.310614626098932 1.1650352763592275 0 1 1
2385 1 39.71257464145501 21.105346788373886 2.8220047483273234 0 1 1
180 1 41.50396556872005 20.737798965641826 0.680881383129107 -1 0 1
2729 1 45.76253777098644 21.212141598063955 2.106409058478236 -1 1 0
2347 1 48.98020489123725 19.618167101971547 -0.36925256345106844 -1 0 0
2631 1 1.6657662168959888 22.037975589018956 0.4110625269430369 0 1 0
3972 1 2.4769541527413694 24.137560540719154 2.036669855170562 0 0 0
3945 1 7.21444969366598 22.627834333202568 1.565252164032621 1 0 1
2776 1 9.587184979671616 24.284976358539442 0.13901713095999335 0 1 0
1411 1 16.91232736499581 23.933978001030525 2.1523619998912586 0 -1 1
462 1 20.251287124443934 22.566770879290623 0.5632892458059418 1 0 1
193 1 22.00443340552827 24.41303456291172 2.8298356493706502 0 0 1
617 1 24.479944816514088 23.09872516261634 2.591309750846605 0 0 0
4102 1 27.133047393816522 24.802774730038195 -0.18272381849098585 0 0 1
1988 1 27.13658971325507 24.1372594381388 2.6467429639669615 -1 0 1
4055 1 28.442962471444105 21.82568993224643 0.27521555891812 -1 1 1
3869 1 32.22560405920771 23.864055123426052 1.0989885654007943 0 1 1
2754 1 35.38511831356584 22.027753751932195 2.03615404495721 -1 1 0
317 1 35.3882866261075 24.810256705337594 1.2603947342530675 -1 0 0
1366 1 39.89804369714926 23.74837496034366 1.313445009764808 0 -1 0
390 1 44.11835607117638 22.185602255390865 -0.10175487671871702 -1 -1 0
3466 1 49.76653033658613 21.97371126427024 0.0654704997008464 0 0 1
3644 1 48.318352594560835 22.434568524790034 2.1356647098668855 -1 1 1
1499 1 0.4786340510034681 1.335272119701971 5.344413616870852 0 1 1
273 1 7.84011083757272 -0.05006500352882115 3.1399528020848555 1 1 0
1624 1 10.405237689885452 0.10160747562465278 4.800041011347728 0 0 0
3655 1 12.456805275919018 2.621637658126282 3.748283170305309 0 1 1
827 1 14.82087576091664 2.0483525541781504 4.6215769528261355 0 0 1
1251 1 18.08295166420628 0.6873751174015887 4.524264389071931 0 1 0
2947 1 15.8157917498228 0.21614939740694739 3.186936914362335 0 1 1
2687 1 21.760582951598746 1.7007597386703632 5.042478553568972 -1 0 0
295 1 24.229407749077595 2.7641917148373225 4.281108544691224 1 1 0
4060 1 26.404663824326263 1.0169898977543983 4.232557913481828 0 1 1
1120 1 31.011367970990957 -0.10243323578957275 5.88674106086904 -1 0 1
242 1 33.47626281142047 1.9107210798838241 4.424805754426272 0 0 0
1572 1 38.856987260653284 1.3444327519390415 5.530953322381007 -1 0 0
2269 1 43.927156797944235 1.2067836903164109 3.5101482892478213 -1 0 0
56 1 46.39980285238968 0.9559917664334754 4.536347320433693 0 1 0
2862 1 2.681943354497765 3.1173652400799186 5.325783310023755 0 1 0
674 1 0.9681707643303963 5.136762791386717 4.196495841555078 1 1 0
3028 1 5.5112653862814955 3.4864785259719198 4.532089909496533 0 1 0
1857 1 3.7908527256602627 5.702339450652005 3.286090648469308 0 0 1
450 1 7.963499563109897 4.713516744571491 5.6395823798980675 0 0 0
811 1 8.393218668631851 5.767856161656476 3.0013152637869664 0 0 1
1065 1 10.788681304192957 3.784478112445604 5.4943731075089435 0 0 1
2086 1 12.5146797269116 5.726042403215851 6.284009310954922 0 0 0
3929 1 16.54680708366201 3.9710902438427516 3.5848076228995236 0 1 1
1804 1 19.48084617728477 3.1056971734844403 3.956443825614551 0 0 1
2517 1 19.239917849554452 4.808197245871558 5.965027244509791 1 1 0
412 1 24.48417391770391 5.238361015751089 5.369344168411167 0 0 -1
1478 1 28.036803892271294 3.2978397184116686 5.335377161536839 0 1 0
3598 1 26.989765647623734 5.771514342768053 4.385493588032676 0 1 0
2053 1 30.57985762643761 4.1405829145693245 4.967215889448077 -1 0 1
3200 1 36.038302567972366 2.9858594242732477 5.449924303714651 -1 1 1
1631 1 42.41067585756717 3.653305640235607 4.187217614062267 0 0 1
2885 1 45.02052439443682 4.641362074324748 4.714799226048793 0 1 2
2806 1 49.55013089314491 3.6737337038064197 5.200849226219423 0 1 0
1330 1 47.43639080945245 3.359291089400841 3.5326557998976673 -1 0 1
519 1 0.5906147326692646 8.080733172906399 4.740185988777437 1 0 0
3739 1 3.3962278088351523 7.310084110653246 5.691822142089006 0 0 1
2344 1 6.219614504451175 7.3330409050806855 3.488959276436932 0 0 0
3976 1 13.235693718718586 8.026662339101968 4.325380552009761 0 1 0
189 1 16.204681817300997 6.286219311995325 4.7823822669864695 -1 0 0
2266 1 18.802459887176656 6.940375861014582 3.6352066462583688 0 0 0
3021 1 20.88637942105174 7.883118038688137 5.140580731981135 0 1 0
527 1 23.334360591625003 7.265487604193637 4.314489306181167 0 0 0
3104 1 31.148775303985264 6.623323296943627 5.516288123961028 0 0 0
363 1 28.502097147183573 7.865531610586903 4.967805174543007 0 0 0
1856 1 34.165218679498224 6.4152454509026935 5.911026522318248 0 0 1
1091 1 34.265831677293406 9.12117665957462 6.015067861689386 1 1 0
2361 1 35.62663085056441 6.020772698858327 3.3300865650313103 0 0 0
2375 1 37.77402875397405 6.96850812599706 5.047870531299155 -1 0 0
1560 1 41.48298086910124 6.8644051263235655 5.201106437770754 1 0 1
2225 1 44.10808310350561 7.448315787080025 4.160585886431189 0 1 0
584 1 45.25123184632956 8.958247486845424 6.135504601641745 0 0 0
739 1 48.333895333426156 7.999342564615883 5.0605238581359275 -1 0 0
3480 1 0.18438951167937623 10.855308156219452 5.631256536262958 1 0 0
2159 1 3.4609908658918247 11.733871198516924 3.6552718074967343 1 1 0
321 1 3.2530993647974626 10.252918878736788 5.88292998519186 0 0 0
959 1 7.575795143262504 9.762492438190902 4.033097802570671 0 0 0
485 1 11.985573124564372 10.504015247814245 4.629049025592627 0 0 0
881 1 14.89025393742259 10.958776328130412 4.936539736398148 1 0 0
221 1 18.985966811866877 10.141964811445936 3.731680897227874 0 0 -1
2818 1 22.86131320388072 11.578189444783703 3.7930281065251803 0 1 1
517 1 24.877375630343717 9.493495910722835 3.2287671836231806 -1 0 0
4027 1 27.98481424984434 11.104076312219346 3.46330419546082 0 1 1
40 1 26.65547984916489 9.807513100664108 5.795280806973022 0 0 0
79 1 31.109790155651442 11.30699422621464 3.3636959803327415 0 0 0
4004 1 34.09376439730251 10.170374641090453 3.536953737150844 1 0 0
199 1 37.11264894934527 9.471798794946038 6.275060786437099 0 0 0
1530 1 39.21285145001475 9.935805342164366 4.012181146430601 0 0 0
2297 1 41.41863782633253 11.314491000887061 5.428548368510714 0 0 0
1566 1 45.16634943348275 10.25645712897552 3.4794384459702026 -1 0 1
3335 1 48.40625309672281 10.659663105288521 4.29280560152406 -1 1 1
4046 1 1.5689937611325757 13.833692611234428 3.8015918192274087 0 1 0
4015 1 0.5738834781630696 13.735212189996416 6.359525830583116 1 0 0
1099 1 5.984318909073953 12.626285387021582 3.3018364918247745 0 0 1
2164 1 6.0707914673386725 14.502803687591971 5.4455116468402744 1 0 0
3949 1 11.390059510007616 14.757842272967691 5.153146725268983 0 1 1
1444 1 16.25677945971542 12.998121019093883 6.300087268886973 0 0 0
1163 1 20.039443634079966 12.849129902409972 3.4636436010986515 1 0 0
2370 1 19.164251528435482 12.579546401265535 6.169644553046628 0 0 0
1851 1 23.086661961309787 14.695342948139537 5.579608303559113 1 0 2
3421 1 25.30068840526796 12.62960062353288 5.8240220906858085 0 0 0
3691 1 27.019002873409345 13.953035261356495 3.5922746947522803 1 1 0
3996 1 30.084159562638554 15.096414839718129 6.345163289266322 -1 0 1
2877 1 31.708666702591994 13.068153050800179 5.128147661038982 0 1 1
2028 1 35.766286809539835 12.75490946345205 3.66421205854439 0 0 2
2019 1 36.20344906834711 13.770124773832631 6.284908993675035 -1 0 1
689 1 39.3132681627084 14.340057450192022 4.462353972995464 -1 0 0
913 1 43.02491571899954 12.481893229687547 3.7688883213957114 -1 0 1
582 1 42.150312001025554 14.994754701951932 3.9035111495599812 0 -1 0
1610 1 45.69290091675411 12.675889082506943 4.884176075638394 -1 0 1
2788 1 48.0257654791796 14.16044065037144 3.8712555008443257 0 0 0
1051 1 1.9473482072835036 16.574773578638077 3.690361786809129 0 0 0
4011 1 4.1089171281913925 16.306019251404678 5.4778709045681095 0 0 1
514 1 8.700351149347856 15.561506347717355 5.19055386702932 1 0 0
523 1 15.06884938788728 15.747898217417909 3.1254959686555437 0 0 0
839 1 12.398615370043482 17.118819219007733 3.91245048405336 1 0 1
2000 1 16.397830649534125 15.74410313421333 5.543612783500408 0 0 1
2288 1 21.103909223314755 17.536221055402457 3.9301990350652813 0 1 0
4066 1 18.983508128851316 15.546672768680546 4.017385375789847 0 0 0
3490 1 25.675908581434047 18.14059453390738 3.5948395098153703 0 0 0
2966 1 27.788573512380005 16.287139564103597 4.904940079120028 0 0 0
1848 1 29.45823333270465 18.39538861969794 3.7574272327794995 -1 0 1
1859 1 32.44627740422223 15.70289417139741 3.8914729015982648 0 0 1
2940 1 32.07677791931276 18.525876973024733 4.513950535731441 0 1 1
2734 1 36.468950155884386 17.94160150757872 3.659737910288958 0 0 0
417 1 39.60896887993539 18.486222995171733 3.3999621341069717 0 0 0
2709 1 39.39346461595679 18.598905579921393 6.020487801613052 -1 0 1
4112 1 37.75579279087093 16.428326001623645 5.813366627737701 0 0 1
759 1 46.28971427491878 17.392923078076503 5.612577818205748 0 0 1
910 1 49.31365520958842 15.647597840887794 5.770642245136074 0 0 0
1559 1 50.24591323054244 18.33624520912637 4.312910419111884 -1 -1 1
1127 1 5.271744884521656 18.722781067316717 6.219497762408573 0 -1 1
4134 1 3.8324178241395845 21.20223881217944 4.464695977880971 1 1 1
866 1 6.680744828482025 19.060311078159046 3.820789146028469 0 -1 1
3852 1 8.892208795575273 20.645052361972002 4.609186250503119 1 0 0
441 1 12.664822709567252 19.414881821494944 5.522030063763506 1 0 0
1459 1 14.394615343594978 21.25312204407502 3.922474024429242 1 0 0
2892 1 15.999557887605604 18.85116138005767 5.130789836904403 0 1 0
2688 1 19.86784600792736 21.069636904175177 5.437572022495306 0 1 0
2622 1 22.65126042186149 20.400213508938666 6.361801136887087 0 0 1
1948 1 24.78636799464522 21.061700557437526 4.475517681682098 0 0 0
813 1 28.832234193883508 21.235621510120946 3.102098394775198 0 0 1
3857 1 35.14648810585112 19.8493442144262 4.830387451226014 0 0 0
3364 1 42.95334600164955 20.306427413348537 3.5709770255798827 0 1 0
1457 1 44.12527140340143 19.09319372146485 5.809392626779985 0 0 0
3808 1 48.36648239501908 19.011746005840347 6.147453450284568 -1 0 1
557 1 49.76951219508851 21.423410793752158 4.319910091596682 -1 0 0
456 1 -0.23452111033038842 23.344212700735977 6.279663343119878 1 0 0
3823 1 4.988153069465517 23.297842141139828 3.395356302759998 0 0 1
3033 1 6.983728183454339 22.58278134447705 5.643197454994909 0 0 0
1305 1 9.507644229850396 23.73817834033758 6.332230062632653 0 0 0
4118 1 11.576315853637961 22.664502170436883 4.360078835121914 0 1 1
1216 1 15.297222682222188 23.34283487447519 6.025504246038974 1 0 0
4086 1 17.528370470073817 24.653868907243762 5.075989961684075 0 1 1
3425 1 20.33478609550474 23.847328440610536 4.953220066101708 -1 0 1
424 1 27.20807195977115 21.89625890135275 5.19697244712755 0 -1 0
4067 1 26.114554116435404 24.57063683560226 6.349962217653308 0 0 0
1767 1 31.456713161437122 22.429433857513303 3.402722908311472 0 0 1
3274 1 32.692680495723266 23.134844018707657 5.828210125733164 0 0 1
3703 1 35.09718130400961 22.614933057924244 4.814311377421474 -1 0 0
1617 1 38.099643888129535 23.22337968724568 4.802729835534812 0 -1 1
433 1 41.30086105261876 22.61465630156669 4.444975203413331 0 -1 0
3652 1 44.58553754204321 22.708745176246094 4.059157245975527 0 0 0
1391 1 47.09504244292792 23.997903190325374 4.964335286267567 -1 -1 0
532 1 0.32519331003444363 0.34715071600614966 8.006882083476011 0 0 0
1350 1 4.925758277449109 1.9397343749185834 7.328415181783612 0 0 0
2866 1 7.7641411907307525 2.405352440034516 7.754355044157144 0 1 1
632 1 10.46508975855958 1.6722514942280875 7.355542589141754 0 0 0
2742 1 13.452842274234236 -0.27055898787874355 9.566258977982805 0 0 0
1565 1 12.655788426457551 2.1261572064667136 9.003763701180286 0 0 1
3939 1 17.54407957059883 -0.18835075204958684 7.268780484242241 0 1 0
1229 1 16.366127414813427 1.8375140460163917 8.679262900227364 0 0 1
394 1 20.907304059790334 1.7702321101192795 7.531571740989253 1 0 0
1061 1 23.164234881718095 2.0549727568687683 8.933354510686486 1 0 0
2050 1 25.36771110667318 0.412410771082122 8.501012598003976 0 0 1
1996 1 30.942166377208128 2.173803142197671 7.320387073131276 -1 1 1
826 1 28.837400782335852 2.500694292163895 9.122028259053721 0 -1 1
895 1 32.88284232609192 1.1412582795077204 9.184604755520494 0 0 1
1824 1 34.62221499944482 -0.3056265894214859 7.623541857631201 0 0 0
2104 1 36.97999270807779 1.060149585684783 7.715598223645907 0 0 1
4164 1 46.97989494084912 0.7734107324815602 7.1383765928495775 -1 1 1
3333 1 0.41223672447177717 5.258700033031059 9.608650876847024 1 0 0
1746 1 2.189161924721976 5.416478170802507 7.436278387141379 0 0 0
2910 1 4.688121733583793 4.867256254338428 8.269047316580668 0 1 0
1731 1 14.451385428364548 3.286528912074958 7.080832477184127 0 1 0
4170 1 16.594301390048255 5.14412722203009 7.505098279882338 1 1 1
1925 1 19.000550333980957 3.3755127596130743 8.602703294658943 0 1 0
3914 1 23.830845591885684 4.40843659645814 8.231336166638156 0 1 1
3804 1 26.782182527228386 3.651691907838835 7.919235174251336 0 1 1
1951 1 33.59957251916286 3.7896751645918156 6.947081026404767 0 0 1
981 1 34.228804147903276 5.391794196277599 9.16802833509175 0 0 0
789 1 36.8359517111097 5.274965138716933 6.905644125042387 0 0 0
3692 1 39.91100653511069 5.760633088271293 7.4732793686506405 -1 1 1
2293 1 40.91096244365792 3.1623614238314297 6.3964139722523985 0 0 0
423 1 42.883234315205655 3.048571197672554 8.27159350588013 0 0 0
1726 1 46.80005700801216 3.2192049953478934 8.212650393070817 0 0 1
4095 1 44.753500417255026 4.841426971595698 7.578002821618893 -1 1 1
2387 1 48.982757232382696 4.8209988528936 7.766585134681481 0 0 1
566 1 6.095901848910441 6.8127017093927815 6.487888755853968 0 1 0
892 1 7.46865842117747 8.642158534387244 8.169149691017699 0 0 1
2863 1 12.02687294905412 6.851890426425536 8.663592814525192 1 0 0
977 1 9.568796856453309 7.521173941711341 9.616539756900952 0 0 0
2317 1 15.404862524723752 8.410129156674635 6.4486742363693725 0 1 0
3188 1 17.795038920515335 8.618776267675232 8.31757109765892 0 1 0
569 1 21.616725238095658 6.031122879984593 7.093029267425268 1 0 0
1454 1 19.59135359082744 6.433416945696715 9.146527641059993 0 0 1
2779 1 22.74849541616698 8.733598830607182 8.118110552976146 0 0 0
311 1 27.262529495371474 6.285447191792313 8.149672874566141 0 0 0
2252 1 25.411737017470557 8.577854617426592 8.328777650492432 0 1 0
2850 1 29.874562893857615 6.888453373450418 7.959031361595535 0 0 0
3271 1 37.6052582975547 8.993841284035646 8.89122061731423 0 1 1
1181 1 40.39534158580476 8.426638770207335 9.293854432482288 0 0 0
3554 1 42.376192704301374 8.974367390795019 6.861900880966798 -1 0 1
4104 1 45.70676984558388 7.210064229282461 8.517816621527535 0 1 1
3276 1 48.40962060439442 7.612798005098041 7.999518651139548 0 0 1
4130 1 4.314757402683108 11.056620725559815 8.312990545898547 0 0 0
601 1 8.147695000754776 10.830796618785204 6.796176678751172 -1 0 0
92 1 11.035023229501572 11.096184279172448 7.0729237477895435 0 1 0
3522 1 13.277485522365666 9.323248022188423 8.188044858765776 0 0 0
2282 1 19.865400069266403 9.829201942441184 6.815362035681115 0 1 0
921 1 22.48266741348564 11.292920255272952 6.475439078743315 1 0 0
3625 1 28.242266441228917 10.779173995860404 8.033123915409673 0 1 0
805 1 30.671166011927557 9.457194289563505 8.792147637820955 0 0 0
2250 1 33.31918333565531 9.906855423259127 8.775488296487906 -1 -1 0
3257 1 37.84877651850182 12.043808175326562 7.7627252468514865 0 0 0
2728 1 42.67818111564527 9.871326221903775 9.649801467662227 -1 0 -1
2693 1 45.654305728351915 11.533192690543277 7.523421510260394 -1 0 0
741 1 50.348122259116415 11.939572878795762 8.537301872476768 0 -1 1
425 1 2.4128864977334152 15.339968870765974 7.528019699878594 1 0 0
1476 1 3.948871310547397 14.192039738694433 9.4601743919268 0 0 1
1188 1 6.287029086670868 12.651197875536901 7.716812646793775 1 1 1
3653 1 7.62584566102894 14.062947546749323 9.6402234724907 1 0 1
20 1 12.035329034217702 13.342524092330725 7.78447566313414 1 0 0
3786 1 9.907567311254375 15.253779028685281 8.663782342522138 0 1 1
3553 1 14.795073357361042 12.9880342469133 8.800131565352826 1 1 0
258 1 20.54422199570308 14.470878605902982 7.993769199791656 0 0 0
3389 1 22.912052279269172 12.964527043416268 8.62961257741768 1 0 1
2925 1 27.85300302597756 13.785099710925516 7.381291387523715 0 0 0
1556 1 25.076743621926752 14.961103462674732 8.019273151805377 0 0 0
77 1 33.64595276497582 14.95914037215771 8.894829636196073 0 0 0
2522 1 33.61411029261417 12.53959640571469 7.157733399631809 0 0 -1
499 1 39.93797534814942 13.14957739937001 6.770334487026115 -1 0 0
310 1 43.16291472481889 12.722593551541271 8.05382579230967 0 0 0
1011 1 42.03728605096795 15.32867325221508 6.795130963378314 0 1 0
1993 1 44.819088474922296 14.85881807345196 6.500939735440573 0 0 1
696 1 47.75232334771053 12.778020628483826 8.846633827399037 -1 1 0
2932 1 47.383670231912234 15.251970261516892 8.198087435273907 -1 0 1
4033 1 1.143227411940004 17.6683120597941 8.326099367784577 1 0 1
946 1 6.474599399787554 18.379140528666408 9.01439426044229 0 -1 0
299 1 8.592378602722734 17.33187256845821 7.268020561022612 1 0 -1
1403 1 13.925743826366254 16.086427025157295 9.679167471449814 0 0 -1
2909 1 14.033623451314524 18.319996254772295 7.811303914771635 0 1 0
4038 1 16.651316015803637 16.63403296601044 8.270610328070731 0 0 0
403 1 18.54962431953122 18.517752637255807 9.176463279238705 1 0 -1
2200 1 20.886869112717687 17.261955964631696 8.628311433447763 0 1 0
143 1 22.482166157282403 17.752903370368976 6.44251163099718 0 0 0
718 1 25.371286111539792 17.194690079297928 6.543021296953231 0 0 0
3924 1 27.354749654884596 18.199485113140945 8.396379363280005 0 0 0
3142 1 31.196297959658086 16.749304864557182 8.309001048837763 0 0 1
871 1 28.83193833077522 16.300869764599014 9.722297324095658 0 0 0
587 1 35.950699446736834 16.64271936134786 8.304295960011958 0 0 -1
2731 1 42.02500677674185 18.106964629973213 7.237303354918564 0 1 0
3471 1 49.223880738711614 18.100783210564497 8.403557624697411 0 1 1
1357 1 2.8481414687747892 19.79534253236303 7.688283904903139 0 0 0
2489 1 7.744483622966223 20.842587894239742 9.709890732737804 1 0 0
95 1 10.175337864266085 19.641583814428436 6.79000974178154 0 0 0
2464 1 14.137202053168902 20.682003044105688 9.379390561689206 1 1 1
3292 1 17.675776936823222 20.19793486159622 6.960804938916997 1 0 0
2701 1 28.564767064239835 20.548214159888047 7.485879263978926 1 0 0
870 1 32.18135409185726 18.927239001089607 7.2206636067135195 0 0 0
1087 1 31.395143720642896 21.7412267779069 7.9390642431816225 0 0 1
529 1 34.9587426244009 19.278417729267566 7.496811975249694 0 -1 0
3231 1 37.68200116313773 20.744526692313165 6.830817149123039 0 1 0
2131 1 39.09341808835357 21.05258687222932 9.065874318960244 0 0 0
1762 1 41.8388535578696 20.25837109218899 9.005659463893394 0 0 0
2864 1 44.788199717509656 21.369343387367405 6.402875288717446 -1 1 0
3078 1 47.59912921142583 21.655166082740035 6.60631134970583 -1 0 0
1882 1 2.2003019719123165 22.097343515955487 6.611512887880959 0 0 2
2527 1 3.1896610528389786 23.48667130762977 9.159566579277225 1 0 0
1160 1 5.957457663608536 22.428649129066002 8.260823123931802 1 0 0
1279 1 10.082601041718119 22.008325472581994 8.427550610587835 0 0 0
1600 1 12.505986822048486 22.90272425035877 9.10413908036267 1 0 0
1338 1 12.458465992743966 24.48551313069274 6.614679366379708 1 0 0
1247 1 16.040369921553808 22.087489439068957 7.9524232632868 0 0 0
872 1 21.370345571992726 24.60811204411932 7.376672663118195 0 0 0
803 1 22.37311892942282 22.328234564558592 8.574835312349759 0 0 0
609 1 26.374764890441273 23.901538197757354 9.073788876143636 0 0 -1
1009 1 28.755698395268592 22.65462308054754 9.729461315724008 0 0 0
1913 1 39.55164944451393 23.96072209486473 8.996712178103184 0 1 1
775 1 43.884740962106804 22.041128212848747 9.008422680047401 0 0 1
1903 1 42.319133984610886 24.109604716199183 9.619738977991787 -1 0 0
2619 1 49.238475596585516 22.718618063888645 8.668084650082209 -1 0 0
3281 1 1.2623191649511236 1.4034647936173388 10.493840095359523 0 1 1
2241 1 5.880766686180134 -0.19634176126515115 11.980389852989118 1 1 -1
2600 1 4.06139880348606 1.4817300541729195 10.050701244963863 0 1 0
3066 1 8.072116497021883 1.3266245126338203 12.415455733554882 0 1 1
347 1 14.156801339435935 2.204249601742846 12.999701786693196 0 0 0
3012 1 16.160451170825816 0.6079601233900032 11.435930824876946 0 1 0
1954 1 18.72386268813563 0.8679110916643231 11.923283184882658 1 0 1
1473 1 27.60795772882432 0.36370800531192016 10.272868011423196 1 0 1
371 1 26.085152547623775 0.39398207519379247 12.660871745991587 0 0 1
2234 1 36.693995997371175 2.4566471146708544 10.033002668565798 0 1 0
1785 1 40.717856412591516 -0.39233510706256425 10.04494089014678 0 0 0
1664 1 38.974949489611674 1.6123031511537156 11.215832631352624 0 0 1
66 1 43.39526930913125 0.40259666254185245 9.785907700615107 0 0 0
1463 1 44.31872521153642 2.4275351963406715 11.757444753864606 0 0 1
2849 1 47.11528372530927 2.473261982793966 10.8887177336322 -2 0 0
3121 1 47.87967925213643 0.06839532881459559 10.730253005052715 -1 1 0
2466 1 0.9382167255216585 3.875462510451632 11.94116851714744 1 1 0
1093 1 5.481378528436794 3.5378300780950895 11.148045312651758 1 1 1
1722 1 8.158208070219723 3.1772337710260232 10.267581991888441 1 0 0
2491 1 8.400341368987947 5.7680960108328 11.394158015595336 1 0 0
3303 1 10.536907047402588 5.168169078576523 12.915009666275564 0 1 0
1161 1 12.213697763578477 3.603460465786065 11.268796422374336 0 0 0