
# Create simulation box of size 50 x 50 x 50 Angstrom
#
lattice	            sc 1
Lattice spacing in x,y,z = 1.0000000 1.0000000 1.0000000
region 	            all block 0 50 0 50 0 50 units box
create_box          1 all
Created orthogonal box = (0.0000000 0.0000000 0.0000000) to (50.000000 50.000000 50.000000)
  1 by 2 by 3 MPI processor grid

# fill box with 4175 randomly distributed atoms
#
create_atoms        1 random 4175 63782 all
Created 4175 atoms
  create_atoms CPU = 0.001 seconds
mass                1 18.015

# Define potential
#
pair_style          sw
pair_coeff          * * ML_mW.sw mW
Reading sw potential file ML_mW.sw with DATE: 2019-02-27

# Run minimization
#
minimize            1.0e-8 1.0e-8 10000 1000
WARNING: Using 'neigh_modify every 1 delay 0 check yes' setting during minimization (../min.cpp:187)
Neighbor list info ...
  update every 1 steps, delay 0 steps, check yes
  max neighbors/atom: 2000, page size: 100000
  master list distance cutoff = 6.0032907
  ghost atom cutoff = 6.0032907
  binsize = 3.0016454, bins = 17 17 17
  1 neighbor lists, perpetual/occasional/extra = 1 0 0
  (1) pair sw, perpetual
      attributes: full, newton on
      pair build: full/bin/atomonly
      stencil: full/bin/3d
      bin: standard
Per MPI rank memory allocation (min/avg/max) = 4.255 | 4.258 | 4.261 Mbytes
Step Temp E_pair E_mol TotEng Press 
       0            0    7792709.3            0    7792709.3    5898794.3 
     630            0   -45180.336            0   -45180.336   -154.07449 
Loop time of 1.14183 on 6 procs for 630 steps with 4175 atoms

99.2% CPU use with 6 MPI tasks x no OpenMP threads

Minimization stats:
  Stopping criterion = max force evaluations
  Energy initial, next-to-last, final = 
      7792709.32924461  -45180.0188663597   -45180.336116598
  Force two-norm initial, final = 2.0191930e+08 4.9721331
  Force max component initial, final = 1.0948746e+08 0.73126211
  Final line search alpha, max atom move = 0.053306038 0.038980685
  Iterations, force evaluations = 630 1000

MPI task timing breakdown:
Section |  min time  |  avg time  |  max time  |%varavg| %total
---------------------------------------------------------------
Pair    | 0.87574    | 0.98477    | 1.0642     |   5.8 | 86.24
Neigh   | 0.02382    | 0.024403   | 0.024755   |   0.2 |  2.14
Comm    | 0.033377   | 0.11295    | 0.22307    |  17.4 |  9.89
Output  | 0          | 0          | 0          |   0.0 |  0.00
Modify  | 0          | 0          | 0          |   0.0 |  0.00
Other   |            | 0.0197     |            |       |  1.73

Nlocal:        695.833 ave         704 max         685 min
Histogram: 1 1 0 0 1 0 0 1 0 2
Nghost:        1494.17 ave        1515 max        1468 min
Histogram: 1 1 0 0 0 0 1 1 1 1
Neighs:        0.00000 ave           0 max           0 min
Histogram: 6 0 0 0 0 0 0 0 0 0
FullNghs:      19997.0 ave       20462 max       19320 min
Histogram: 1 1 0 0 0 0 0 2 0 2

Total # of neighbors = 119982
Ave neighs/atom = 28.738204
Neighbor list builds = 26
Dangerous builds = 0

# Add velocity/set timestep
#
velocity            all create ${TEMP} 120598 rot yes dist gaussian
velocity            all create 210 120598 rot yes dist gaussian
timestep            5.0

# Define output
#
compute	            1 all msd
thermo	            100
thermo_style        custom step temp press vol etotal ke pe c_1[4] density

# Neighbor lists
#
neigh_modify        delay 0 every 1 check yes

# Set fixes
#
fix                 1 all momentum 10 linear 1 1 1 rescale
fix                 2 all nve
fix                 3 all temp/csvr ${TEMP} ${TEMP} 500.0 928347
fix                 3 all temp/csvr 210 ${TEMP} 500.0 928347
fix                 3 all temp/csvr 210 210 500.0 928347
fix                 4 all press/berendsen iso ${PRES} ${PRES} 1000.0 modulus 20000
fix                 4 all press/berendsen iso -750 ${PRES} 1000.0 modulus 20000
fix                 4 all press/berendsen iso -750 -750 1000.0 modulus 20000

# Run 0.5 ns equilibration
#
dump                1 all custom 1000 eq.${NAME}.dump id type x y z vx vy vz
dump                1 all custom 1000 eq.liquid_density_MLmW.dump id type x y z vx vy vz
run                 100000
Per MPI rank memory allocation (min/avg/max) = 3.506 | 3.508 | 3.511 Mbytes
Step Temp Press Volume TotEng KinEng PotEng c_1[4] Density 
     630          210    801.42152       125000   -42567.537    2612.7992   -45180.336 2.7295415e-33   0.99914793 
     700    134.20097   -573.85307    126133.71   -41757.858    1669.7153   -43427.574   0.24562488   0.99016744 
     800     163.9748   -868.13701    126542.22   -41022.939    2040.1582   -43063.097   0.55885054   0.98697093 
     900    185.18381   -509.73943    126726.18   -40598.322    2304.0387   -42902.361   0.91024517    0.9855382 
    1000    192.07315   -627.68608    126837.92   -40335.931    2389.7551   -42725.686    1.3260234      0.98467 
    1100     203.5678   -547.03856    127214.74   -40159.928    2532.7704   -42692.699     1.714187   0.98175331 
    1200    202.50749   -323.46991    127453.78   -40201.058    2519.5782   -42720.636     2.164495   0.97991204 
    1300    204.39668   -703.63445    127751.71    -40191.43    2543.0833   -42734.513    2.5686977    0.9776268 
    1400     204.0677   -618.36551    127992.06   -40219.545    2538.9901   -42758.536    2.9209525   0.97579091 
    1500    211.02414   -516.66375    128172.65   -40194.157    2625.5414   -42819.699     3.198599   0.97441606 
    1600    212.97811   -725.23286    128482.57   -40107.678    2649.8525    -42757.53    3.5284882   0.97206564 
    1700    212.81997   -694.11319    128790.02   -40146.399     2647.885   -42794.284    3.8001266    0.9697451 
    1800    211.13995   -847.94685    128830.32   -40254.326    2626.9823   -42881.308    4.0796205   0.96944179 
    1900    209.25721   -626.28658    128891.27   -40275.858    2603.5575   -42879.415    4.2737574   0.96898331 
    2000    213.43792   -647.62244    129220.56    -40265.62    2655.5736   -42921.193    4.4637204   0.96651406 
    2100    215.83512   -736.46019    129344.76   -40245.142    2685.3992   -42930.541    4.7861999   0.96558598 
    2200    214.41658    -670.2292    129258.96    -40300.75    2667.7499     -42968.5    5.1396594   0.96622698 
    2300    213.49523   -693.93211    129529.07   -40296.614    2656.2866   -42952.901    5.3093484   0.96421208 
    2400    214.27278   -725.42678    129533.53   -40346.376    2665.9608   -43012.337    5.4562907   0.96417889 
    2500    211.95568   -654.91729    129770.82   -40331.084    2637.1317   -42968.215    5.6967838   0.96241585 
    2600    214.82868   -799.98798       129731   -40312.818    2672.8772   -42985.695    5.9849892   0.96271123 
    2700    214.35867   -653.80676    129732.98   -40369.397    2667.0294   -43036.426    6.2368416   0.96269652 
    2800    214.86554   -986.52256    129846.05   -40375.639    2673.3358   -43048.975    6.4765804   0.96185821 
    2900    212.07508   -682.70597     130071.1   -40451.598    2638.6172   -43090.215    6.6642092   0.96019401 
    3000    211.61215    -782.2333    130111.55   -40500.575    2632.8575   -43133.433     6.898108   0.95989549 
    3100    212.56294   -693.15104    130088.83   -40478.552     2644.687   -43123.239    6.9658779   0.96006314 
    3200    211.07764   -812.08569    130364.62    -40529.43    2626.2071   -43155.637    7.1259788   0.95803213 
    3300    215.19246    -628.7036    130424.55   -40543.643    2677.4033   -43221.046    7.2699974   0.95759187 
    3400    215.00623   -854.48371    130477.81   -40598.265    2675.0862   -43273.351    7.2952487   0.95720099 
    3500    211.99939   -682.89319    130623.95   -40639.177    2637.6755   -43276.852    7.4058734   0.95613007 
    3600    210.73593   -739.85647     130820.7   -40683.203    2621.9556   -43305.159    7.4374558   0.95469214 
    3700    205.38461   -631.31612    130829.48   -40751.767     2555.375   -43307.142    7.6460517   0.95462808 
    3800    207.76511   -566.29391     131056.6   -40697.534     2584.993   -43282.527    7.7904426   0.95297371 
    3900    207.83179   -790.75833    131260.65   -40729.818    2585.8226   -43315.641    7.9045578   0.95149226 
    4000    207.12944   -823.08368    131409.72   -40729.075    2577.0841   -43306.159    8.0243982   0.95041291 
    4100    210.61465   -652.18639    131444.74    -40725.16    2620.4466   -43345.607    8.1981603    0.9501597 
    4200    210.58457   -768.05723    131443.73   -40739.778    2620.0724   -43359.851    8.4275314   0.95016698 
    4300    212.22871   -565.85315    131435.11     -40757.3    2640.5286   -43397.828    8.5662092   0.95022931 
    4400    211.09077   -884.57115    131550.02   -40757.451    2626.3705   -43383.821    8.4693879   0.94939928 
    4500    206.44644   -674.97722    131592.17   -40767.033    2568.5863    -43335.62    8.6262788   0.94909518 
    4600    207.00236   -706.80294    131606.44   -40821.558    2575.5029   -43397.061    8.7536946   0.94899222 
    4700    208.27435   -934.27596    131638.14   -40747.234    2591.3288   -43338.563    8.9583904   0.94876369 
    4800    209.87553   -685.73945       131949   -40819.822    2611.2506   -43431.073    8.8700805    0.9465285 
    4900    209.66358   -705.40629    132144.52   -40711.705    2608.6135   -43320.319    9.0613649   0.94512805 
    5000    212.73474   -794.46471    132113.22   -40683.549    2646.8246   -43330.374    9.2109467   0.94535193 
    5100    210.44787   -729.03043     132362.5   -40762.798    2618.3716    -43381.17    9.4381432   0.94357153 
    5200    207.75871   -781.84941    132349.55   -40828.558    2584.9133   -43413.471    9.5673011   0.94366391 
    5300    212.89315   -792.05877     132392.5   -40802.778    2648.7955   -43451.574    9.5839025   0.94335776 
    5400     208.1828   -631.51765    132504.98   -40846.727    2590.1898   -43436.917    9.6323336   0.94255693 
    5500    211.07583   -906.72496     132446.6   -40854.136    2626.1847   -43480.321    9.6298342   0.94297243 
    5600    209.93234   -826.02739    132481.03   -40856.906    2611.9574   -43468.863    9.6213409   0.94272735 
    5700    214.69035   -719.88129    132636.52   -40874.715    2671.1561   -43545.871    9.8382722   0.94162221 
    5800    207.61103   -831.48711    132656.22   -40915.521    2583.0759   -43498.597    10.035407   0.94148233 
    5900    207.47807   -586.27725    132713.31   -40946.789    2581.4216    -43528.21    10.194423   0.94107734 
    6000    212.42519   -750.70162    132822.18   -40971.912    2642.9733   -43614.886    10.427876   0.94030601 
    6100    209.23671   -610.74011    132745.85   -40922.503    2603.3025   -43525.806    10.583707   0.94084665 
    6200    210.90953   -627.94727    132850.88   -40995.124    2624.1155   -43619.239    10.602154   0.94010284 
    6300    213.85793   -634.88122    133074.82   -40977.749    2660.7992   -43638.548    10.561106   0.93852085 
    6400    211.15095   -791.94277    133165.42   -40969.098    2627.1193   -43596.218    10.769913   0.93788233 
    6500    214.86588   -816.72914    133146.85   -40930.364      2673.34   -43603.704    10.780279    0.9380131 
    6600    210.95041   -881.35614    132834.65   -41022.928    2624.6241   -43647.553    10.773412    0.9402177 
    6700     208.0275   -767.52342    132933.48   -41090.087    2588.2576   -43678.345    10.841477   0.93951869 
    6800    209.70809   -732.42604     132810.4   -41015.832    2609.1673   -43624.999    10.873041   0.94038939 
    6900    215.30781   -639.66247    132912.36   -40975.512    2678.8385   -43654.351    10.972393   0.93966801 
    7000    214.15575   -795.35991    133063.91   -40978.131    2664.5047   -43642.635    11.046458   0.93859776 
    7100    209.50178   -746.02496    132830.96   -40998.471    2606.6004   -43605.071    11.162024   0.94024387 
    7200    208.85387   -809.32651    132784.72   -41057.438    2598.5392   -43655.977     11.27188   0.94057129 
    7300    207.28766   -727.21778    132776.33    -41109.19    2579.0526   -43688.243    11.317369   0.94063067 
    7400    202.80185   -764.74566    132941.74   -41132.478    2523.2405   -43655.719    11.338629   0.93946036 
    7500    204.95951   -686.31465    132983.45   -41096.786    2550.0859   -43646.872    11.368399   0.93916564 
    7600    205.06194   -667.53548    133124.99    -41176.18    2551.3604    -43727.54    11.462136   0.93816716 
    7700    209.86466   -880.49069    133031.88    -41095.92    2611.1154   -43707.036    11.473819   0.93882376 
    7800    207.40577   -639.57917    133000.28    -41060.63    2580.5221   -43641.152    11.510562   0.93904681 
    7900    205.94401   -554.89378    133146.76   -41123.005     2562.335    -43685.34    11.575273   0.93801376 
    8000    211.51818   -757.82706    133207.21   -41102.616    2631.6883   -43734.304    11.614112   0.93758804 
    8100    211.89262   -758.82683    133333.46   -41187.104    2636.3471   -43823.451     11.81773   0.93670032 
    8200    208.17575    -796.3289    133486.54   -41219.565    2590.1021   -43809.667    11.908427   0.93562611 
    8300     207.2493   -661.59535    133320.34   -41219.237    2578.5753   -43797.812    11.940258   0.93679247 
    8400    212.19854   -683.49856    133396.98   -41189.655    2640.1533   -43829.809    12.019379   0.93625424 
    8500    212.79501    -706.7361    133432.11   -41120.659    2647.5745   -43768.233    12.152109   0.93600776 
    8600    214.91817    -811.0038    133472.25   -41152.919    2673.9906   -43826.909    12.044274   0.93572631 
    8700    211.79437   -723.86841     133324.1   -41137.489    2635.1246   -43772.614    12.146815   0.93676607 
    8800    208.72366   -851.44826    133383.08   -41166.808    2596.9191   -43763.728    12.183824   0.93635186 
    8900    209.83184   -618.51345    133455.76   -41259.176     2610.707   -43869.883    12.205537   0.93584186 
    9000     209.6576   -658.01939    133477.79   -41221.985    2608.5391   -43830.524    12.277647   0.93568743 
    9100    208.29151   -530.78582    133477.84   -41288.413    2591.5424   -43879.955    12.435933   0.93568709 
    9200    209.92888   -575.41831    133327.41   -41192.787    2611.9144   -43804.701    12.532394   0.93674283 
    9300    209.23364   -710.50561    133481.09   -41233.716    2603.2643    -43836.98    12.572836   0.93566428 
    9400    211.57353   -775.60356    133511.05   -41199.578     2632.377   -43831.955    12.573694   0.93545437 
    9500    210.83916   -699.33283    133653.49   -41217.371      2623.24   -43840.611    12.488698   0.93445738 
    9600    211.89856   -707.80855    133542.25   -41198.313    2636.4209   -43834.734    12.459265   0.93523578 
    9700    209.92541   -706.17592    133526.09   -41145.125    2611.8712   -43756.996     12.58915   0.93534896 
    9800     207.3287   -726.09669    133725.82   -41222.828    2579.5632   -43802.391    12.689124   0.93395193 
    9900    205.10978    -706.5139    133771.67   -41281.006    2551.9556   -43832.962    12.715976   0.93363185 
   10000    206.00276   -800.34766    133591.66   -41284.654    2563.0659    -43847.72    12.760342    0.9348899 
   10100    207.67386   -770.00501    133481.29   -41259.191    2583.8576   -43843.049    12.816223   0.93566288 
   10200     207.9895   -705.81974    133435.58   -41297.318    2587.7849   -43885.103     12.76263    0.9359834 
   10300    207.52744   -809.24064    133480.72   -41278.646    2582.0359   -43860.682    12.729418   0.93566693 
   10400    208.73313   -831.48809    133779.48   -41213.727     2597.037   -43810.764    12.876368   0.93357735 
   10500    210.64905   -707.26541    133898.24   -41185.652    2620.8746   -43806.527    12.966858   0.93274932 
   10600    212.53315   -888.08768     133846.7   -41129.096    2644.3164   -43773.412    13.172219   0.93310847 
   10700    216.41846   -695.99601    133824.41   -41135.387    2692.6571   -43828.044    13.171062   0.93326389 
   10800     213.1612   -758.64887    133900.92   -41136.215    2652.1306   -43788.346    13.256171   0.93273064 
   10900    213.80704   -820.20007    133946.67   -41179.191     2660.166   -43839.357    13.320731   0.93241205 
   11000    215.18875   -769.56561    133872.26   -41185.042    2677.3572     -43862.4    13.247435   0.93293033 
   11100     209.5947   -771.19831     133943.5   -41228.363    2607.7565   -43836.119     13.32737   0.93243414 
   11200     210.8056   -730.64733    134051.96   -41223.408    2622.8225    -43846.23    13.500709   0.93167971 
   11300    210.77907    -617.7203     134031.3   -41234.848    2622.4923    -43857.34    13.565945   0.93182332 
   11400    209.28751   -805.53449    134107.01   -41247.292    2603.9346   -43851.227    13.513773   0.93129725 
   11500     209.6624   -662.11855    133999.41   -41267.633    2608.5988   -43876.232    13.530684   0.93204507 
   11600    206.96426   -785.43281    134113.81    -41264.87    2575.0289   -43839.899    13.610649   0.93125003 
   11700     213.6886   -774.67347     134137.5   -41171.986    2658.6924   -43830.678    13.610576   0.93108556 
   11800    211.30158   -898.48818    134036.57   -41262.452    2628.9934   -43891.445    13.655426   0.93178666 
   11900     209.8624   -875.53307    134042.33   -41289.975    2611.0872   -43901.062    13.679985   0.93174667 
   12000    211.44881    -681.8006    134094.08   -41297.842    2630.8252   -43928.667    13.750203   0.93138707 
   12100    211.65665   -726.64027    134239.79   -41264.265    2633.4112   -43897.676    13.773477    0.9303761 
   12200    211.94187   -778.05202    134218.14   -41287.988    2636.9598   -43924.947    13.729853   0.93052619 
   12300    209.83575   -745.19382    134250.87    -41306.39    2610.7557   -43917.146    13.838506   0.93029931 
   12400    208.51966   -757.20959    134298.27   -41284.853     2594.381   -43879.234     13.86204   0.92997099 
   12500    208.86274   -863.71813    134380.88   -41380.558    2598.6495   -43979.207    13.795521   0.92939926 
   12600    210.26134   -679.20854    134260.87   -41309.952    2616.0509   -43926.003    13.949579   0.93022999 
   12700    213.87576   -766.52895    134417.74   -41291.042    2661.0211   -43952.064    13.909067    0.9291444 
   12800    217.66054   -794.03682    134455.72   -41276.211     2708.111   -43984.322     13.95071   0.92888194 
   12900    211.66431   -748.38341    134600.26   -41334.398    2633.5064   -43967.904    13.969643   0.92788449 
   13000    216.05429   -773.30022    134587.36   -41282.332    2688.1261   -43970.458    14.011806   0.92797339 
   13100    216.14474   -736.65198     134566.6   -41289.865    2689.2515   -43979.116    13.958084   0.92811658 
   13200    217.44873   -758.98178    134442.55   -41217.916    2705.4757   -43923.392    14.088952   0.92897294 
   13300    214.45736   -803.74975    134612.57   -41255.324    2668.2573   -43923.582    14.156803   0.92779959 
   13400    214.13255   -786.36819     134587.9   -41333.819    2664.2161   -43998.035    14.201107   0.92796971 
   13500    209.18491   -775.08266    134563.29   -41372.662     2602.658    -43975.32    14.219457   0.92813943 
   13600    209.19222      -630.11    134753.46   -41395.509     2602.749   -43998.258    14.408293   0.92682957 
   13700    208.75568   -739.74344    134682.25   -41398.792    2597.3176   -43996.109    14.276378   0.92731958 
   13800    214.20536   -810.27273    134657.61   -41317.131    2665.1219   -43982.253    14.251497   0.92748932 
   13900    210.70643    -721.3892    134567.13   -41362.345    2621.5885   -43983.933    14.336793    0.9281129 
   14000    212.15134   -846.44601    134476.18   -41349.788     2639.566   -43989.354    14.352642    0.9287406 
   14100    207.54222    -914.9504    134516.78   -41342.773    2582.2198   -43924.992     14.62971   0.92846028 
   14200    212.21569   -765.07155    134499.77   -41388.941    2640.3667   -44029.308    14.632127   0.92857774 
   14300    205.41473   -890.14884    134481.08    -41432.71    2555.7498    -43988.46     14.53349   0.92870678 
   14400    205.80166   -826.55922    134266.83   -41406.864    2560.5639   -43967.428    14.541781   0.93018871 
   14500    209.82019   -711.03618    134201.93   -41356.461    2610.5621   -43967.023    14.603621   0.93063859 
   14600     210.7452   -806.91388    134126.53   -41371.407    2622.0709   -43993.478    14.486999   0.93116173 
   14700     205.6945   -674.71782    134173.99   -41418.375    2559.2306   -43977.605    14.458681   0.93083237 
   14800      207.134    -813.2634    134229.08   -41452.551    2577.1407   -44029.691    14.524175   0.93045029 
   14900    205.45571   -789.27831    134242.12   -41522.636    2556.2596   -44078.896    14.667228   0.93035992 
   15000    205.72937   -767.29745    134257.89   -41517.818    2559.6644   -44077.483     14.60613   0.93025063 
   15100    205.07202   -716.50798    134257.22    -41555.29    2551.4858   -44106.776    14.710375   0.93025532 
   15200    210.26406   -761.91977     134252.7   -41482.783    2616.0847   -44098.867     14.74062   0.93028662 
   15300    206.37647   -812.23984    134364.38   -41488.042    2567.7157   -44055.757    14.724945   0.92951342 
   15400    206.40542   -754.32866    134485.19   -41472.771    2568.0759   -44040.847    14.748599   0.92867837 
   15500    204.85665   -713.25507    134392.17   -41452.919    2548.8062   -44001.725    14.769669   0.92932119 
   15600    211.72044   -680.10455    134278.86   -41394.915    2634.2047   -44029.119    14.792769    0.9301054 
   15700    207.83372   -906.75004    134333.97   -41485.349    2585.8466   -44071.195    14.891922   0.92972382 
   15800     204.1625   -710.19031    134356.33   -41469.963    2540.1697   -44010.133    15.019754   0.92956911 
   15900    207.69406   -774.37384    134513.72   -41499.763     2584.109   -44083.872    15.034342    0.9284814 
   16000    207.82074     -677.488     134402.8   -41438.504    2585.6851   -44024.189    15.066509   0.92924771 
   16100    209.76472    -647.0032    134306.26   -41376.556    2609.8719   -43986.428    14.957893   0.92991565 
   16200    207.44035    -784.2758    134367.92   -41428.991    2580.9524   -44009.944     14.98308   0.92948893 
   16300     204.0307   -839.40848    134212.13   -41442.436    2538.5298   -43980.966     15.03423   0.93056784 
   16400    217.58711   -758.17782    134238.46   -41349.639    2707.1973   -44056.837    15.001199   0.93038533 
   16500    215.09731   -798.00445    134261.93   -41349.897    2676.2195   -44026.116    15.008099   0.93022268 
   16600    211.82181   -850.17119    134400.73    -41340.24     2635.466   -43975.706    15.108775     0.929262 
   16700    207.60458   -738.04793    134528.37   -41370.355    2582.9956    -43953.35     15.10866   0.92838034 
   16800    212.33781   -645.34791     134583.4   -41371.258    2641.8861   -44013.144    15.285994    0.9280007 
   16900    212.82768   -602.91521    134633.83    -41328.77    2647.9809   -43976.751    15.415677   0.92765313 
   17000    209.72757    -619.9145     134744.3   -41349.133    2609.4097   -43958.543    15.253996   0.92689256 
   17100    212.90181   -701.69456    134780.28   -41271.485    2648.9033   -43920.389    15.340018   0.92664514 
   17200    211.66772   -753.06695     134699.1   -41298.136    2633.5489   -43931.685    15.428819   0.92720362 
   17300    213.55598   -857.21534    134602.02   -41364.482    2657.0424   -44021.524    15.523053   0.92787234 
   17400    209.32478   -730.57141    134654.98   -41383.315    2604.3982   -43987.713    15.455005   0.92750739 
   17500    210.80904   -729.67006    134509.59   -41366.932    2622.8653   -43989.797    15.408864   0.92850997 
   17600     212.1499   -861.38172    134461.22   -41349.477    2639.5481   -43989.025    15.617469   0.92884393 
   17700    211.11751   -723.18986    134251.79   -41379.925    2626.7032   -44006.628    15.535477   0.93029295 
   17800    215.01059   -740.62365    134505.45   -41377.686    2675.1405   -44052.826    15.615931   0.92853853 
   17900    212.21119    -678.5942     134423.9   -41346.699    2640.3107    -43987.01    15.782402   0.92910183 
   18000    217.36649   -668.92932    134585.55   -41306.305    2704.4524   -44010.757    15.905101   0.92798586 
   18100    210.06344   -596.41328    134506.93   -41404.946    2613.5886   -44018.534    15.894301   0.92852833 
   18200    209.92096   -792.53098     134642.3    -41403.17    2611.8158   -44014.986     15.85308   0.92759477 
   18300    213.49271   -651.48746    134771.33   -41321.111    2656.2552   -43977.366    15.698605   0.92670667 
   18400    210.02989   -701.85027    134731.43    -41401.21    2613.1711   -44014.381    15.790156   0.92698109 
   18500    209.74853   -791.60521    134672.45   -41357.935    2609.6704   -43967.605    16.006244   0.92738706 
   18600    211.93719   -670.16694    134670.26   -41403.476    2636.9015   -44040.378    15.880773   0.92740218 
   18700    212.45232   -630.82256    134671.49   -41364.817    2643.3108   -44008.128    15.882676   0.92739371 
   18800    210.67434   -835.08472    134575.22   -41345.966    2621.1893   -43967.155    15.978075   0.92805715 
   18900     207.6332   -739.65911    134456.48    -41385.84    2583.3518   -43969.191    15.976786   0.92887671 
   19000    211.72386   -584.43708    134575.42   -41364.067    2634.2473   -43998.314     16.03167   0.92805573 
   19100    209.49104    -820.7424    134633.93   -41421.664    2606.4668   -44028.131    16.124321   0.92765244 
   19200    210.71573   -705.26642    134724.53   -41391.788    2621.7043   -44013.492    16.155286   0.92702861 
   19300    212.23878    -850.4634    134757.69   -41344.397     2640.654   -43985.051    16.139571   0.92680048 
   19400    209.32938   -835.93472    134482.46   -41363.275    2604.4555   -43967.731    16.167388   0.92869723 
   19500    213.01747   -690.32751    134494.13   -41354.395    2650.3424   -44004.737    16.212403   0.92861665 
   19600     209.4368   -649.22482    134553.14   -41387.205    2605.7919   -43992.997    16.166502   0.92820943 
   19700    212.77725    -797.4839    134573.52   -41378.607    2647.3535    -44025.96    16.257246   0.92806886 
   19800    215.60009   -647.76367    134601.32   -41420.935    2682.4751   -44103.411    16.385971   0.92787717 
   19900    210.60604   -829.35808    134579.98    -41431.52    2620.3396   -44051.859    16.288046   0.92802432 
   20000    207.05755   -855.94705     134610.9   -41481.659    2576.1896   -44057.849    16.224716   0.92781115 
   20100     209.4865   -738.71473    134522.71   -41445.047    2606.4103   -44051.458     16.22667   0.92841939 
   20200    207.53431   -582.21944    134631.22   -41490.527    2582.1213   -44072.649    16.293467   0.92767107 
   20300     209.4385   -866.06065    134631.79   -41513.635    2605.8131   -44119.448    16.323558   0.92766719 
   20400    204.48905   -687.64716    134477.93   -41512.171    2544.2325   -44056.404    16.474281   0.92872853 
   20500    208.62228   -771.59386    134402.65   -41488.588    2595.6577   -44084.246    16.446198    0.9292487 
   20600    205.94167    -744.7574    134375.08    -41516.03    2562.3058   -44078.335    16.369679   0.92943936 
   20700    211.87949   -726.83837    134444.91   -41454.608    2636.1836   -44090.792    16.443677   0.92895661 
   20800    207.84479   -651.51949    134540.39   -41451.022    2585.9843   -44037.006    16.460414   0.92829737 
   20900    208.94322   -724.49303    134478.16   -41479.633    2599.6509   -44079.284    16.454757   0.92872692 
   21000      208.305   -790.11103     134367.4   -41578.746    2591.7102   -44170.456     16.41198   0.92949251 
   21100    207.67907   -744.82717    134578.68   -41600.772    2583.9225   -44184.695    16.594819   0.92803324 
   21200    204.95121   -723.29521    134612.03   -41574.581    2549.9828   -44124.564    16.718707   0.92780333 
   21300    204.34951   -826.09692    134679.89   -41581.143    2542.4964   -44123.639    16.670987   0.92733584 
   21400    208.06774   -772.82569     134501.4   -41553.706    2588.7583   -44142.464    16.616446   0.92856648 
   21500    209.19905   -788.86088    134628.24   -41534.319    2602.8339   -44137.153    16.538094   0.92769162 
   21600    208.96857   -762.77591    134614.77   -41490.326    2599.9663   -44090.292    16.628796   0.92778444 
   21700    208.72612   -587.95191    134709.04   -41457.841    2596.9497   -44054.791    16.701457   0.92713521 
   21800    212.45699   -815.88849     134646.1   -41454.054    2643.3688   -44097.423    16.715927   0.92756861 
   21900    212.47276   -855.54791    134579.57   -41468.668    2643.5651   -44112.233    16.683749   0.92802709 
   22000    211.22967   -780.08685    134451.73   -41511.957    2628.0987   -44140.055    16.714903   0.92890953 
   22100    213.34416   -705.67372    134662.21   -41460.286    2654.4069   -44114.693    16.898845   0.92745761 
   22200    211.47741   -734.64977    134957.32   -41508.628    2631.1811   -44139.809    16.813608   0.92542958 
   22300    213.85531   -704.91825    134915.53   -41497.539    2660.7667   -44158.305    16.764879   0.92571619 
   22400    212.72932   -758.96129       134941   -41464.715    2646.7572   -44111.473     16.90698   0.92554144 
   22500    210.24152   -887.99825    134902.51   -41481.178    2615.8042   -44096.982    16.899972   0.92580552 
   22600    212.60475   -751.46096    134933.83   -41461.743    2645.2073    -44106.95    17.007999   0.92559066 
   22700    211.90049   -704.39809    134952.13   -41466.032    2636.4449   -44102.477     16.99215    0.9254651 
   22800    209.05454    -899.2663    134925.57   -41438.969    2601.0359   -44040.005    16.935645   0.92564734 
   22900     211.8072   -797.15425    134645.96   -41477.553    2635.2842   -44112.838    16.882552   0.92756953 
   23000    212.79272   -846.01708    134679.97   -41476.212     2647.546   -44123.758    16.978066   0.92733532 
   23100    207.03516   -820.04312    134800.98   -41576.718     2575.911   -44152.629    16.984031   0.92650284 
   23200    209.76546   -695.54188    134687.27   -41534.042    2609.8812   -44143.923     17.12241   0.92728505 
   23300    208.46559   -801.90557    134795.58   -41570.864    2593.7082   -44164.572    17.017628   0.92653999 
   23400    211.55156    -748.5224    134758.42   -41499.524    2632.1035   -44131.627     17.09446   0.92679549 
   23500    209.72331   -769.15202    134791.57   -41535.505    2609.3566   -44144.862    17.215444   0.92656754 
   23600    208.71346   -804.00268    134879.03   -41508.994    2596.7923   -44105.787    17.102372   0.92596668 
   23700    212.04489   -767.85829    134982.71   -41533.636    2638.2415   -44171.878    17.170593   0.92525548 
   23800     203.6218   -748.35622     135048.4   -41574.065    2533.4423   -44107.507    17.187137   0.92480538 
   23900    206.50328   -755.34284    135002.71   -41597.499    2569.2934   -44166.792     17.15278   0.92511841 
   24000    209.21521   -695.01689    134837.79   -41526.662     2603.035   -44129.697    17.203774   0.92624993 
   24100    208.47539    -745.2897    134699.27   -41532.285    2593.8302   -44126.115     17.21435   0.92720246 
   24200    206.34836   -692.27439    134855.75   -41581.635    2567.3659   -44149.001    17.369309   0.92612659 
   24300    208.58669   -766.02057    134843.98   -41548.113     2595.215   -44143.328    17.435659   0.92620737 
   24400    204.19873   -611.12449    134879.83   -41576.147    2540.6204   -44116.767    17.421133    0.9259612 
   24500    207.27042   -814.62773    134849.96   -41540.879    2578.8381   -44119.717    17.304415    0.9261663 
   24600    209.27203    -857.6908     134906.9    -41535.91    2603.7419   -44139.652    17.544249   0.92577542 
   24700    214.68018   -733.43555    134969.49   -41564.753    2671.0296   -44235.782    17.578563   0.92534611 
   24800    209.70766   -885.12552    134894.08     -41566.2     2609.162   -44175.362    17.506001   0.92586339 
   24900    210.55715   -764.31932    134827.77   -41531.655    2619.7312   -44151.387    17.560425   0.92631872 
   25000    213.93299   -746.93243    134825.08   -41524.373    2661.7331   -44186.106    17.513935   0.92633725 
   25100    213.11512   -680.07884    134873.29   -41531.165    2651.5572   -44182.722    17.525385   0.92600609 
   25200    211.89847   -665.56937    134787.75   -41585.544    2636.4198   -44221.964    17.614974   0.92659376 
   25300    213.95854   -681.02268    134912.52   -41595.025    2662.0511   -44257.076    17.552714   0.92573687 
   25400    210.49052   -822.89772    134951.29   -41586.546    2618.9023   -44205.448    17.622121   0.92547088 
   25500    210.46185   -589.94878    134874.38   -41553.628    2618.5455   -44172.173    17.665078   0.92599863 
   25600    208.71303   -621.19719     134997.9   -41633.311    2596.7868   -44230.098    17.780887   0.92515135 
   25700    208.67608   -730.98122    134973.87   -41660.568    2596.3271   -44256.895    17.729375   0.92531607 
   25800    207.79605   -758.76229    134852.29   -41642.389    2585.3779   -44227.767    17.558155   0.92615029 
   25900    210.02235   -702.13588    134858.18   -41595.437    2613.0773   -44208.514    17.748325    0.9261099 
   26000    213.87567   -736.46785    134779.67   -41539.907    2661.0199   -44200.927     17.76189   0.92664935 
   26100    213.40302   -729.84041    134875.19   -41617.686    2655.1393   -44272.825    17.648596   0.92599304 
   26200    209.56612   -667.56095    134944.13   -41604.734     2607.401   -44212.135    17.806511   0.92552002 
   26300    210.39785   -756.02484    134873.24   -41576.163    2617.7492   -44193.913    17.742694   0.92600643 
   26400    213.21638   -779.36399    134818.17   -41569.493    2652.8171    -44222.31    17.711468   0.92638474 
   26500    209.13141   -678.91147    134818.94   -41619.909    2601.9923   -44221.901    17.729725   0.92637939 
   26600    205.88839   -681.62469    134747.57   -41666.231     2561.643   -44227.874    17.733087   0.92687011 
   26700    207.89043   -701.71069    134820.83   -41686.105    2586.5522   -44272.658    17.797532   0.92636641 
   26800    210.33905   -623.55139    134872.89   -41616.516    2617.0177   -44233.533    17.935782   0.92600886 
   26900    210.67617   -924.68042    134818.04   -41622.794    2621.2121   -44244.006    17.896034   0.92638557 
   27000    207.79018   -742.79339    134622.42     -41671.6    2585.3049   -44256.905    17.836851   0.92773176 
   27100    208.32758   -791.18884    134824.27   -41672.055    2591.9911   -44264.046    17.968097   0.92634282 
   27200    210.15822   -821.40014     134950.7   -41682.807    2614.7678   -44297.575    17.906008   0.92547496 
   27300    206.65753   -796.81653    134996.91   -41711.137    2571.2126    -44282.35    17.996722   0.92515816 
   27400    208.42773   -849.34568    134997.41    -41656.65    2593.2372   -44249.887    17.966864   0.92515472 
   27500    214.82609   -765.85546    134936.85   -41579.488     2672.845   -44252.333    18.076881   0.92556991 
   27600    205.71439    -771.4201    134767.96   -41617.136    2559.4781   -44176.614    17.935305   0.92672986 
   27700    210.24824   -673.43222    134822.13   -41622.089    2615.8878   -44237.976    17.949117   0.92635747 
   27800    212.40161   -678.17626    135055.24   -41552.777    2642.6798   -44195.457    18.195184   0.92475854 
   27900    209.02605    -909.9633    135012.58   -41578.408    2600.6814    -44179.09    18.097718   0.92505079 
   28000    212.14973   -611.71668     135113.2   -41611.281    2639.5459   -44250.827    18.008653    0.9243619 
   28100    209.83514   -760.60738     135146.8   -41605.301    2610.7481   -44216.049    18.079701   0.92413207 
   28200    209.13297   -741.66688    135195.95   -41661.372    2602.0117   -44263.384    18.174265   0.92379613 
   28300    215.35299   -868.16212    135236.06   -41666.088    2679.4007   -44345.488    18.215775    0.9235221 
   28400    211.59367   -717.24219    135217.51    -41697.61    2632.6275   -44330.237     18.34091   0.92364881 
   28500    210.34193   -783.19398    135301.62    -41721.16    2617.0536   -44338.214    18.285626   0.92307465 
   28600    208.68874    -787.2995    135210.26   -41677.771    2596.4847   -44274.256    18.227782   0.92369833 
   28700    208.84611   -726.93412    135001.93    -41685.35    2598.4427   -44283.793    18.190587   0.92512373 
   28800     209.1152   -857.46845    135105.36   -41635.726    2601.7906   -44237.516     18.16193   0.92441551 
   28900    211.21631   -795.76793    135163.96   -41598.188    2627.9325    -44226.12    18.264242   0.92401471 
   29000    208.00753   -739.08474    135211.19   -41674.875    2588.0091   -44262.884    18.293577   0.92369198 
   29100    211.60946   -842.11024    135147.89   -41622.078    2632.8239   -44254.902    18.473952   0.92412462 
   29200    209.96662   -685.10524    135068.62   -41588.053    2612.3839   -44200.437    18.403065     0.924667 
   29300    210.31034   -714.30471     135122.3     -41650.3    2616.6604   -44266.961    18.370178   0.92429961 
   29400    211.89959    -744.7977    135012.16   -41703.978    2636.4338   -44340.412    18.282702   0.92505368 
   29500    205.92793   -731.17018     135137.3   -41730.636    2562.1349   -44292.771    18.265235   0.92419706 
   29600    209.44607   -669.34515    135095.99   -41652.261    2605.9073   -44258.168    18.414059   0.92447962 
   29700    208.10263   -687.95845    135103.77   -41695.473    2589.1923   -44284.665    18.483742   0.92442639 
   29800    209.57628   -742.22762    135232.72     -41671.7    2607.5274   -44279.228     18.51076   0.92354493 
   29900    209.00072   -661.29496    135132.36     -41698.3    2600.3663   -44298.667    18.455872    0.9242308 
   30000    209.51321    -665.5057    135146.49   -41674.732    2606.7427   -44281.475    18.536645   0.92413416 
   30100    212.03085   -646.34775    135105.87   -41677.589    2638.0669   -44315.656    18.516317   0.92441203 
   30200    208.62832    -699.7241    135120.32   -41681.876     2595.733   -44277.609       18.662   0.92431316 
   30300    211.30019   -763.24843    135144.46   -41664.519     2628.976   -44293.495    18.609688   0.92414806 
   30400    211.60189   -798.27178    135114.81   -41644.637    2632.7298   -44277.367    18.545093   0.92435087 
   30500    210.70637   -952.14046    135092.96   -41646.249    2621.5878   -44267.837    18.441513   0.92450035 
   30600    214.51916   -798.72944    134955.04   -41640.781    2669.0262   -44309.807     18.48675   0.92544521 
   30700    209.47348   -797.77075    135156.63   -41661.784    2606.2483   -44268.033    18.735659   0.92406487 
   30800    209.05731   -758.02694    135239.04   -41613.408    2601.0704   -44214.479    18.646622   0.92350177 
   30900    206.68265   -707.18295    135418.16   -41716.695    2571.5251    -44288.22    18.697059   0.92228022 
   31000    206.33468   -727.18671    135357.44   -41757.841    2567.1956   -44325.037    18.699552   0.92269393 
   31100    208.96467   -645.14202    135282.39   -41762.053    2599.9178   -44361.971    18.596814   0.92320584 
   31200    207.25175    -638.1065    135514.22   -41767.221    2578.6057   -44345.827    18.679284   0.92162647 
   31300    209.96514   -725.01193     135451.9   -41735.624    2612.3655   -44347.989    18.780733    0.9220505 
   31400    209.52819   -799.49177    135519.49   -41710.198     2606.929   -44317.127     18.75096   0.92159059 
   31500    206.48737   -818.24985    135443.36    -41757.56    2569.0954   -44326.655    18.695442   0.92210861 
   31600    210.56067   -772.15575    135433.68   -41693.512     2619.775   -44313.287    18.670089   0.92217454 
   31700    207.28728   -737.17677     135484.9   -41720.582    2579.0478    -44299.63    18.760227    0.9218259 
   31800    211.95754   -666.50652    135463.38   -41657.247    2637.1547   -44294.402    18.744717   0.92197235 
   31900    213.09207    -539.4234    135659.01   -41647.779    2651.2704    -44299.05    18.817628    0.9206428 
   32000    214.66572   -823.28424    135709.58   -41648.099    2670.8496   -44318.948    18.780367   0.92029971 
   32100    212.98761   -623.51206    135669.06   -41664.202    2649.9708   -44314.173     18.75095   0.92057461 
   32200    213.00052   -659.46041    135676.93   -41660.446    2650.1314   -44310.577    18.795463   0.92052118 
   32300    212.42156   -822.81068    135770.93   -41649.964     2642.928   -44292.892    18.803846   0.91988392 
   32400    210.59293   -778.42724    135612.73   -41713.025    2620.1764   -44333.201    18.823987   0.92095695 
   32500    210.96123   -808.62005    135693.56   -41741.563    2624.7587   -44366.322    18.969986   0.92040839 
   32600    211.60333   -700.13762    135627.28   -41689.629    2632.7478   -44322.376    18.944314   0.92085821 
   32700    206.96912   -803.86483    135674.67   -41749.913    2575.0894   -44325.003    18.917331   0.92053656 
   32800    209.85606   -724.93815    135653.28   -41789.234    2611.0084   -44400.242    18.966991   0.92068172 
   32900    208.93416    -734.9264     135787.8   -41790.632    2599.5382    -44390.17    18.986729   0.91976963 
   33000    206.59409   -836.51314    135789.79     -41847.4    2570.4233   -44417.823    19.045297   0.91975614 
   33100    212.64952   -720.68598    135764.37   -41776.641    2645.7643   -44422.405    18.939508   0.91992836 
   33200    209.52941   -752.26213    135733.24   -41813.439    2606.9442   -44420.383    18.902013   0.92013931 
   33300    211.31084   -688.00045    135715.94   -41738.445    2629.1086   -44367.553    18.863743    0.9202566 
   33400    209.59158   -737.44722    135827.94   -41819.969    2607.7178   -44427.686    18.998007   0.91949781 
   33500     208.5883   -836.79953    135749.74   -41776.904     2595.235   -44372.139     19.04332   0.92002747 
   33600    213.66729   -931.39886    135742.18   -41754.017    2658.4273   -44412.444    18.941008   0.92007873 
   33700    209.69796   -903.26633    135696.48   -41748.509    2609.0413    -44357.55    19.017142   0.92038862 
   33800    212.93483   -762.44965    135627.26   -41756.436    2649.3141    -44405.75    19.032008   0.92085835 
   33900    209.92404   -835.38042    135557.32   -41760.439    2611.8542   -44372.293    18.998345   0.92133344 
   34000    213.14354    -771.0071    135656.04   -41718.904    2651.9109   -44370.815    19.046625   0.92066297 
   34100      211.299   -798.20272    135686.48   -41753.217    2628.9613   -44382.178    19.036739   0.92045642 
   34200    208.58835   -739.55132    135590.71   -41764.322    2595.2356   -44359.558    19.081463   0.92110653 
   34300    206.23811   -700.27761    135544.05   -41820.976    2565.9942    -44386.97    19.079018   0.92142365 
   34400     210.8337   -737.76112    135580.05   -41751.684    2623.1721   -44374.856    19.111912   0.92117896 
   34500    208.31593   -696.03501    135689.55   -41776.368    2591.8462   -44368.214    19.130202   0.92043557 
   34600    210.71377   -753.01648       135749    -41765.88    2621.6799    -44387.56    19.169059   0.92003251 
   34700    207.50874   -722.42036    135694.95   -41842.012    2581.8032   -44423.815    19.192173   0.92039896 
   34800    204.49078   -743.53716    135694.92   -41833.526     2544.254    -44377.78    19.089914   0.92039914 
   34900    206.70653   -732.55161    135577.72   -41838.414    2571.8222   -44410.236    19.244703   0.92119483 
   35000    203.10884   -671.40968    135592.43    -41898.75    2527.0601    -44425.81    19.210672   0.92109484 
   35100    206.41641   -858.66451    135630.65   -41824.019    2568.2126   -44392.231    19.313839   0.92083531 
   35200    207.07517   -738.58266     135719.9   -41817.138    2576.4088   -44393.547    19.221306   0.92022977 
   35300     208.9059   -746.35941    135832.83   -41793.563    2599.1866    -44392.75    19.326674   0.91946472 
   35400    209.95296   -730.37229    135787.98   -41815.514     2612.214   -44427.728    19.271011   0.91976837 
   35500    211.22985   -705.33105     135837.5   -41713.809    2628.1009    -44341.91    19.384458   0.91943309 
   35600    211.80752   -830.49567    135627.95   -41749.775    2635.2882   -44385.063    19.366555   0.92085366 
   35700    209.64488   -703.14128    135707.37   -41716.917    2608.3809   -44325.298    19.351868   0.92031474 
   35800    208.84881   -819.14723    135595.44   -41753.682    2598.4763   -44352.159    19.178705    0.9210744 
   35900    213.96397   -772.26121    135678.56    -41697.89    2662.1186   -44360.009    19.264533   0.92051012 
   36000     213.9914   -795.72353    135683.53   -41668.148    2662.4598   -44330.607     19.32145   0.92047644 
   36100    212.81407   -660.35661    135704.37   -41702.517    2647.8117   -44350.329     19.27596   0.92033506 
   36200    209.21186    -687.3964    135756.67   -41743.127    2602.9933    -44346.12    19.408553   0.91998051 
   36300    210.80607   -772.53118    135776.03   -41804.279    2622.8283   -44427.107    19.230843   0.91984933 
   36400    209.99929   -877.67056     135665.8   -41753.625    2612.7905   -44366.415    19.216136    0.9205967 
   36500    208.88395   -621.04221    135620.54    -41726.21    2598.9135   -44325.123    19.169224   0.92090394 
   36600    205.61676   -729.81813     135725.3   -41839.938    2558.2635   -44398.202    19.354501   0.92019316 
   36700    207.99048   -619.71788    135755.82   -41784.956    2587.7971   -44372.753    19.301157   0.91998625 
   36800    207.76918   -745.32149    135736.02   -41778.701    2585.0436   -44363.745       19.224   0.92012046 
   36900    207.10306   -808.38188    135744.23   -41799.432    2576.7558   -44376.188    19.374203    0.9200648 
   37000    211.70251    -633.0463    135898.48   -41748.249    2633.9818   -44382.231    19.455447   0.91902052 
   37100    210.41552   -755.10576    135990.12   -41732.203    2617.9691   -44350.172    19.404961   0.91840119 
   37200    208.63603   -820.98983    135919.32   -41792.053    2595.8288   -44387.882     19.32315   0.91887958 
   37300    211.06826   -828.20951    135934.86   -41813.563    2626.0904   -44439.654    19.323677   0.91877459 
   37400    207.89835   -720.67594    135840.07   -41851.993    2586.6507   -44438.643    19.450628   0.91941567 
   37500    209.62891   -746.47173    135842.32   -41858.773    2608.1822   -44466.955    19.430046   0.91940048 
   37600    207.89219   -801.50716    135969.51    -41815.34    2586.5741   -44401.914    19.451056   0.91854039 
   37700    208.60464   -825.90968    135845.28   -41829.379    2595.4383   -44424.817    19.530075    0.9193804 
   37800    206.45007   -843.23413    135760.91   -41922.013    2568.6314   -44490.644    19.523283   0.91995178 
   37900    208.32244   -723.25503    135801.71   -41883.302    2591.9272   -44475.229    19.379658   0.91967538 
   38000    207.47699   -774.38626    135799.12   -41853.818    2581.4082   -44435.226    19.373984   0.91969291 
   38100    210.93106   -792.91707    135896.55   -41809.673    2624.3834   -44434.056    19.484234   0.91903359 
   38200    206.90329    -799.5823    135751.12   -41825.803    2574.2703   -44400.073    19.467105    0.9200181 
   38300    209.47008   -707.54432    135794.22   -41759.648    2606.2061   -44365.854    19.522059   0.91972612 
   38400    210.58563   -810.89478    135619.68   -41822.704    2620.0856    -44442.79    19.360906   0.92090976 
   38500    206.23261   -683.00969    135697.27   -41833.373    2565.9257   -44399.299    19.521928   0.92038324 
   38600     210.6859   -836.66501    135746.65   -41797.504    2621.3331   -44418.837    19.594573   0.92004844 
   38700    206.13801   -679.85428    136026.96   -41797.423    2564.7487   -44362.171    19.579969    0.9181525 
   38800    209.79588   -754.69405    135979.84   -41826.881    2610.2595    -44437.14    19.529407   0.91847064 
   38900    209.12503   -768.26917    136114.96   -41786.609     2601.913   -44388.522    19.576713   0.91755887 
   39000    205.80228   -781.10728    135928.66    -41824.93    2560.5716   -44385.501    19.618297   0.91881648 
   39100    209.31942   -721.55605    135823.53   -41802.103    2604.3315   -44406.435    19.544848   0.91952765 
   39200    210.97973   -654.50898    135735.09   -41826.743    2624.9889   -44451.732     19.56816   0.92012681 
   39300    207.51301   -797.16398    135712.73   -41812.385    2581.8563   -44394.241     19.68005   0.92027839 
   39400    211.44162   -694.17323     135756.1   -41772.688    2630.7357   -44403.424    19.734734   0.91998439 
   39500    215.59719   -651.86762    135864.16   -41753.985     2682.439   -44436.424    19.612504   0.91925267 
   39600    211.50319   -682.72347    135769.58   -41796.879    2631.5018   -44428.381    19.635617   0.91989306 
   39700    212.32485   -781.23166     135758.1   -41734.687    2641.7248   -44376.412    19.618333   0.91997082 
   39800    211.08201   -765.79279     135791.7   -41796.659    2626.2615   -44422.921    19.737014   0.91974318 
   39900    207.75527   -746.06814    135668.45   -41832.775    2584.8705   -44417.646    19.687976   0.92057872 
   40000    207.45481   -724.67694    135821.55   -41851.822    2581.1323   -44432.955    19.718191   0.91954105 
   40100    210.98286   -803.22505    135758.43    -41759.05    2625.0279   -44384.078    19.726135   0.91996856 
   40200    209.91171   -779.73954    135852.92   -41781.875    2611.7008   -44393.576    19.807113   0.91932875 
   40300    211.28033    -692.1178    135822.47   -41761.078     2628.729   -44389.807    19.794737   0.91953481 
   40400     212.3735   -690.28181    135995.66    -41665.82    2642.3301    -44308.15    19.812883   0.91836383 
   40500      213.331   -751.20014    135917.86   -41687.453    2654.2432   -44341.696    19.706207    0.9188895 
   40600    211.75704   -649.78572    135921.34   -41735.043    2634.6602   -44369.703    19.706371   0.91886597 
   40700    210.78985   -769.24307    135898.63   -41793.009    2622.6264   -44415.636    19.700824    0.9190195 
   40800    208.70664   -817.54309    135942.73    -41844.35    2596.7074   -44441.057     19.90888   0.91872138 
   40900    209.77406   -724.02275    136081.37   -41868.996    2609.9882   -44478.985    19.893232    0.9177854 
   41000    208.86747   -834.21038       135856   -41792.726    2598.7084   -44391.434    19.825022   0.91930786 
   41100    210.26717   -613.83402    136072.53   -41774.683    2616.1233   -44390.806    19.724033     0.917845 
   41200    210.41297   -845.28641    135993.94   -41785.681    2617.9374   -44403.619    19.712137   0.91837544 
   41300    204.14088   -820.92558    136038.62   -41933.038    2539.9007   -44472.938    19.762743   0.91807382 
   41400    206.04447    -795.2638    136030.46   -41874.574    2563.5849   -44438.159    19.820575   0.91812887 
   41500    204.82433   -923.99756    135849.81   -41881.144    2548.4041   -44429.548    19.884694   0.91934979 
   41600    208.29773   -820.50524    135809.44   -41848.527    2591.6198   -44440.147    19.886478   0.91962302 
   41700    208.21721   -651.88171     136077.1   -41824.756     2590.618   -44415.373     19.80401   0.91781416 
   41800    208.49514   -848.60625    135975.38   -41835.579    2594.0759   -44429.655    19.848006   0.91850075 
   41900    208.93851   -730.48307       135909   -41807.884    2599.5923   -44407.477    19.908084   0.91894938 
   42000     210.1419   -803.81539    135956.73   -41800.905    2614.5647    -44415.47    19.907318   0.91862676 
   42100    208.85069   -810.74798    136070.48   -41797.053    2598.4997   -44395.553    19.714766    0.9178588 
   42200    210.48563   -735.70109       136275   -41750.855    2618.8414   -44369.696    19.889316   0.91648134 
   42300    211.79205   -659.58223    136227.15   -41729.129    2635.0957   -44364.225    19.955026   0.91680321 
   42400    210.91776   -816.38185    136183.59   -41780.122    2624.2179    -44404.34    20.036984   0.91709648 
   42500     209.8789   -802.94423    136215.32   -41788.136    2611.2925   -44399.429    20.016014   0.91688282 
   42600    208.58986   -657.88019    136060.51   -41793.292    2595.2544   -44388.547    19.948672   0.91792609 
   42700    212.77082   -824.91447    135999.35    -41805.98    2647.2735   -44453.253    19.875739   0.91833891 
   42800     213.0807   -772.89561    136101.15   -41758.316     2651.129   -44409.445    19.965912     0.917652 
   42900    209.04568   -703.80059    136143.31    -41834.98    2600.9257   -44435.906    20.013892   0.91736781 
   43000    211.37637   -701.31519     136061.9   -41862.435    2629.9239   -44492.359    19.924752   0.91791672 
   43100     210.7879   -805.42888     135940.8   -41852.022    2622.6023   -44474.624    19.930669   0.91873442 
   43200    208.03186   -657.32918    135995.16   -41808.245    2588.3119   -44396.557    19.902113    0.9183672 
   43300    208.65922   -769.31152    136107.92   -41821.482    2596.1174   -44417.599    20.086977   0.91760637 
   43400    214.62756   -742.63704    136193.92   -41777.467    2670.3749   -44447.842    20.101577   0.91702695 
   43500    213.21373   -770.72972    136247.31   -41785.915    2652.7842     -44438.7    20.066325   0.91666759 
   43600    212.38161   -692.94617    136216.49   -41693.877    2642.4311   -44336.308    20.058756   0.91687499 
   43700    214.12472   -639.54262    136298.83   -41715.259    2664.1186   -44379.377    20.156934   0.91632106 
   43800    213.27855   -705.38437    136256.21   -41726.219    2653.5906   -44379.809    20.154684   0.91660773 
   43900    211.55525   -734.06313    136183.98   -41769.537    2632.1494   -44401.687    20.098778   0.91709383 
   44000    207.35645   -739.46233    136103.61   -41797.683    2579.9084   -44377.591    19.976451   0.91763539 
   44100    207.26388   -746.45957    135972.53   -41811.513    2578.7567    -44390.27    20.038399   0.91852002 
   44200    205.40734   -761.47474    136032.03   -41842.044    2555.6578   -44397.702    20.163097   0.91811825 
   44300    208.82667    -734.3721    136111.29   -41845.285    2598.2007   -44443.486    20.128785   0.91758365 
   44400    209.92588   -755.68021    136022.23   -41809.631     2611.877   -44421.508    20.109734   0.91818439 
   44500    208.56911      -769.69    135923.15   -41841.202    2594.9962   -44436.198    20.239762   0.91885374 
   44600     202.1836   -745.20554    136079.94   -41897.315    2515.5483   -44412.863    20.136378   0.91779499 
   44700    214.05631   -680.03536     136154.7   -41865.134    2663.2675   -44528.402    20.189063   0.91729107 
   44800     209.7738   -704.55093    136106.97   -41834.298    2609.9848   -44444.282    20.215414   0.91761278 
   44900    211.80489   -846.36985    135927.36    -41797.18    2635.2556   -44432.435    20.061786   0.91882525 
   45000    207.04112   -778.31544    135811.87   -41811.017    2575.9851   -44387.002    20.106478   0.91960657 
   45100    215.21174   -633.12954    135924.01   -41752.415    2677.6432   -44430.058    20.133952   0.91884788 
   45200     212.1864   -765.61322    136023.95   -41803.282    2640.0022   -44443.285    20.119103   0.91817283 
   45300    209.56093   -800.65348    136010.77   -41817.847    2607.3363   -44425.183    20.246425   0.91826175 
   45400    210.20654   -689.09497     136092.1    -41796.35     2615.369   -44411.719    20.241378   0.91771298 
   45500    214.11586    -671.8518    136205.32   -41808.487    2664.0083   -44472.495    20.118501   0.91695019 
   45600    213.85395   -766.51682    136143.25   -41808.753    2660.7497   -44469.503    20.325395   0.91736821 
   45700    205.76596   -726.89129     135998.1   -41822.042    2560.1197   -44382.161    20.263377   0.91834732 
   45800    215.46715   -662.42033    136084.17   -41765.384     2680.821   -44446.205    20.173724   0.91776649 
   45900    213.98581   -725.19594    136080.17   -41711.029    2662.3903   -44373.419    20.195343   0.91779345 
   46000    213.58224   -826.39059    136004.99   -41700.422    2657.3691   -44357.791    20.190088    0.9183008 
   46100    215.92473   -947.19081    135893.25     -41665.9    2686.5142   -44352.415        20.25   0.91905587 
   46200    216.41555   -557.87024    135804.88   -41667.951    2692.6209   -44360.572     20.20088   0.91965389 
   46300    216.54635   -676.63419     135896.5   -41685.699    2694.2483   -44379.947     20.11173   0.91903389 
   46400    212.37108   -780.25549    135880.15   -41716.981    2642.2999   -44359.281    20.195013   0.91914448 
   46500    213.01556   -703.67528    135996.91   -41735.167    2650.3185   -44385.486    20.179955   0.91835534 
   46600    211.91707   -924.14714    135859.69   -41727.882    2636.6512   -44364.533     20.35467   0.91928292 
   46700    206.41126   -766.26896    135873.04   -41815.525    2568.1486   -44383.673    20.320506   0.91919257 
   46800    208.07414   -702.48179    135939.84   -41854.993    2588.8379   -44443.831    20.255737   0.91874093 
   46900    211.40827   -777.83928    135963.84   -41782.714    2630.3208   -44413.035    20.256494   0.91857874 
   47000    210.93727   -689.14946    135899.45   -41769.826    2624.4607   -44394.287    20.276012   0.91901398 
   47100    214.90549   -549.20913    135982.24   -41748.873    2673.8328   -44422.706    20.404243   0.91845442 
   47200    208.18508   -698.53048    135926.67   -41804.114    2590.2182   -44394.332    20.317508   0.91882993 
   47300    211.33524    -659.4153    135905.03   -41828.116    2629.4122   -44457.529    20.444497   0.91897619 
   47400    207.69306   -854.43109     136063.5   -41781.192    2584.0966   -44365.288     20.50699   0.91790589 
   47500    215.68194   -759.10443    136008.73   -41728.404    2683.4934   -44411.897    20.314686   0.91827554 
   47600    217.15317   -770.44192    135996.15   -41698.123    2701.7983   -44399.921    20.305728   0.91836047 
   47700    215.28108   -645.35668    136032.26   -41746.066    2678.5059   -44424.572    20.368473    0.9181167 
   47800    210.53782   -758.41157    136037.54   -41754.037    2619.4907   -44373.528    20.404053   0.91808111 
   47900    207.70395   -848.08756    135911.52   -41833.058     2584.232    -44417.29    20.449812   0.91893234 
   48000    208.06915   -709.87507    135944.37   -41846.297    2588.7757   -44435.073    20.542318   0.91871031 
   48100    205.60055   -758.50692    136029.39   -41805.129    2558.0617    -44363.19    20.570768   0.91813609 
   48200    211.51771   -715.85659    136058.37   -41828.952    2631.6824   -44460.634    20.640424   0.91794053 
   48300      209.895   -793.09756    136023.32   -41822.236    2611.4928   -44433.729    20.532694   0.91817706 
   48400    211.81196   -743.14256    135929.59   -41748.363    2635.3435   -44383.707    20.598067   0.91881019 
   48500    211.78826   -880.86432    136010.82   -41804.017    2635.0486   -44439.066    20.544189   0.91826145 
   48600     212.0146   -780.31492    136040.86   -41799.249    2637.8647   -44437.114    20.576002   0.91805865 
   48700    209.79432   -706.37733     136157.8   -41761.811    2610.2402   -44372.051    20.615208   0.91727019 
   48800    207.62155   -744.92471    136047.09   -41787.325    2583.2069   -44370.532    20.680227   0.91801666 
   48900    212.70114   -719.17128    136103.38   -41787.963    2646.4065   -44434.369    20.702194   0.91763696 
   49000    210.44672   -798.72999    135943.01   -41835.112    2618.3573   -44453.469    20.688711   0.91871945 
   49100     210.0014    -668.5075    135980.36   -41831.335    2612.8167   -44444.152     20.62177   0.91846713 
   49200    209.36459   -755.04103    135987.78   -41851.348    2604.8935   -44456.241    20.626132   0.91841701 
   49300    206.63293   -833.48903    135959.78   -41798.391    2570.9065   -44369.298    20.629812   0.91860617 
   49400    211.24627   -731.47204    136061.64   -41778.313    2628.3052   -44406.619    20.719566   0.91791843 
   49500    210.12975   -836.64762    136033.23   -41791.946    2614.4136   -44406.359     20.68698   0.91811016 
   49600    213.06855   -651.57867    135914.96   -41795.575    2650.9779   -44446.553    20.773863   0.91890908 
   49700    209.21214   -673.80587    135971.28   -41808.865    2602.9968   -44411.861    20.771441   0.91852844 
   49800    208.20579   -786.86177    136007.71   -41857.838    2590.4758   -44448.314    20.620307   0.91828245 
   49900    211.13166   -743.70201    135996.45   -41748.065    2626.8792   -44374.944    20.622811   0.91835845 
   50000    210.52102   -823.97738    136136.09    -41779.42    2619.2817   -44398.702    20.705358   0.91741649 
   50100    209.51774   -776.30307    136072.21   -41795.523     2606.799   -44402.322    20.641124   0.91784713 
   50200    207.63565   -687.60242    135996.06   -41847.929    2583.3822   -44431.311    20.657264   0.91836113 
   50300    212.14242   -732.39541    136082.19   -41810.928    2639.4551   -44450.383    20.756228   0.91777985 
   50400    210.19319   -803.03372     136045.8    -41830.22    2615.2029   -44445.423    20.690508   0.91802535 
   50500    209.02187   -671.12198    135869.37   -41874.798    2600.6294   -44475.428    20.631918   0.91921743 
   50600    207.62292   -866.13592    135819.73   -41890.495    2583.2238   -44473.719    20.566309   0.91955337 
   50700    208.11194   -795.69695    135890.92   -41892.391    2589.3082   -44481.699    20.590464   0.91907162 
   50800    207.55375   -594.99313    136100.86   -41876.432    2582.3632   -44458.795    20.610532   0.91765392 
   50900    209.94287    -712.2296       136011   -41797.863    2612.0884   -44409.951    20.766911   0.91826021 
   51000    210.25892   -687.28086    136100.47   -41830.972    2616.0206   -44446.993    20.830879   0.91765659 
   51100    209.42861   -709.22322    136071.82   -41871.005    2605.6901   -44476.695    20.731285    0.9178498 
   51200    205.28657   -824.75622     136059.7   -41858.323    2554.1552   -44412.478    20.803254   0.91793153 
   51300    208.68996   -708.60943    136079.28   -41914.853    2596.4999   -44511.353    20.866138   0.91779944 
   51400    204.63302   -761.12624    136048.95   -41915.985    2546.0237   -44462.009    20.759922    0.9180041 
   51500    205.85715   -787.63414    136215.32    -41912.54    2561.2543   -44473.794    20.783889   0.91688284 
   51600    209.13079   -735.26793    136233.01   -41853.227    2601.9846   -44455.212    20.910066   0.91676381 
   51700    204.87718   -810.10338    136131.76   -41835.815    2549.0616   -44384.876    20.895557   0.91744565 
   51800    208.41636   -754.65287     136270.8    -41872.09    2593.0957   -44465.185    20.830166   0.91650955 
   51900    207.92438   -831.58287    136314.36   -41911.414    2586.9746   -44498.388    20.963593    0.9162167 
   52000    209.90991    -842.2846    136283.15    -41932.19    2611.6783   -44543.868    20.895204   0.91642648 
   52100     206.6177   -738.80652    136273.91   -41894.911     2570.717   -44465.628    20.849503   0.91648865 
   52200     205.8798   -788.23487    136260.85    -41909.82    2561.5361   -44471.356    20.922781   0.91657651 
   52300    209.19187   -714.47908    136368.63   -41898.989    2602.7446   -44501.733    20.871178   0.91585207 
   52400    213.41193    -809.2096    136411.75   -41854.326    2655.2501   -44509.576    20.863132   0.91556256 
   52500    210.73579   -707.11878    136271.05   -41857.995    2621.9538   -44479.949    20.807397   0.91650786 
   52600    207.16455   -633.92029    136252.55   -41886.361    2577.5208   -44463.882    20.863464   0.91663231 
   52700    207.44047   -825.57242    136273.77   -41907.046    2580.9538       -44488    20.904315    0.9164896 
   52800    212.43394   -805.64526    136284.04   -41865.154    2643.0821   -44508.236    21.040124   0.91642053 
   52900    209.88374   -723.12859    136297.34   -41852.476    2611.3527   -44463.829    20.977343   0.91633111 
   53000    208.96842   -846.27922    136293.77   -41835.257    2599.9644   -44435.221    20.981347    0.9163551 
   53100    211.25263   -685.83747    136283.34   -41884.672    2628.3843   -44513.056    20.976385   0.91642521 
   53200    211.41725   -787.23358    136195.46   -41871.256    2630.4326   -44501.688    20.944121   0.91701657 
   53300    212.42468   -739.70301     136162.8   -41865.188    2642.9669   -44508.155    20.991867   0.91723652 
   53400     208.7865   -829.21789    136167.32   -41940.799     2597.701     -44538.5    20.909339   0.91720606 
   53500    211.03836   -784.97173       136125   -41950.247    2625.7184   -44575.966    20.936167   0.91749121 
   53600    211.67537    -661.1164    136198.98   -41951.972     2633.644   -44585.616    20.989332   0.91699285 
   53700    204.66324   -817.37669       136039   -41984.344    2546.3998   -44530.744    20.982906   0.91807119 
   53800    208.12901   -823.05234    136126.43   -41874.348    2589.5205   -44463.868    21.042682   0.91748156 
   53900    206.51929   -807.57097    136054.79    -41917.26    2569.4926   -44486.753    20.907904   0.91796467 
   54000    212.23507   -815.53536    135995.06   -41892.838    2640.6078   -44533.446    20.842483   0.91836788 
   54100    208.00489   -712.04282     136109.4   -41911.305    2587.9763   -44499.282    20.937423   0.91759635 
   54200    206.46865   -850.99014    136054.22   -41889.192    2568.8625   -44458.054    21.017383   0.91796849 
   54300    208.92232    -716.2765    136090.49   -41863.285    2599.3909   -44462.676    21.107442   0.91772387 
   54400     208.5972   -693.38287    136196.71   -41887.297    2595.3457   -44482.642    21.056057   0.91700811 
   54500    208.98376   -725.56262    136239.63   -41879.447    2600.1553   -44479.602    21.129652   0.91671927 
   54600    214.41563   -755.02324    136252.02   -41789.336    2667.7381   -44457.074    21.069829   0.91663585 
   54700    211.76023   -716.49933     136235.9   -41806.866    2634.6999   -44441.565    21.044955   0.91674433 
   54800    212.17672   -719.28586    136206.89   -41869.789    2639.8818    -44509.67    20.986904   0.91693962 
   54900     210.5371   -733.86661    136140.75    -41916.35    2619.4818   -44535.831     21.12787   0.91738506 
   55000    205.97047   -824.76086    136147.44   -41968.992    2562.6642   -44531.656    21.093833   0.91734001 
   55100    204.36591   -730.33676    136123.56   -41927.844    2542.7005   -44470.545    21.200218   0.91750089 
   55200    206.55486   -878.71777    136081.06   -41936.766    2569.9352   -44506.701    21.009564   0.91778749 
   55300    207.25568    -764.9945    136056.31   -41896.768    2578.6547   -44475.422     21.04362   0.91795439 
   55400    211.10162   -830.16803    136254.46   -41868.801    2626.5055   -44495.307    21.057031   0.91661949 
   55500    211.62295   -729.89026    136226.41   -41820.941    2632.9919   -44453.933    21.068805   0.91680823 
   55600    207.10591   -802.95819    136133.02   -41860.664    2576.7913   -44437.455    21.064478   0.91743714 
   55700    208.92279   -825.23027    136043.87   -41854.413    2599.3966    -44453.81    21.220946   0.91803835 
   55800    209.38851   -797.45848    136013.74   -41857.269    2605.1911    -44462.46    21.114458   0.91824171 
   55900    210.07002   -724.13065    136087.49   -41826.762    2613.6704   -44440.432    21.067089   0.91774411 
   56000    213.20883   -745.70708    136210.78   -41826.869    2652.7232   -44479.592    21.035941    0.9169134 
   56100     212.4354   -806.84571    136138.94   -41801.778    2643.1002   -44444.879    21.130033   0.91739728 
   56200    212.84124   -768.51674    136191.13   -41808.955    2648.1496   -44457.105     21.14657   0.91704569 
   56300    209.35531    -720.8349    136257.04   -41842.242    2604.7781    -44447.02     21.18218   0.91660209 
   56400    211.16917   -689.90893    136305.59   -41838.487     2627.346   -44465.833    21.313275   0.91627562 
   56500    209.36907   -774.68721    136352.69   -41919.799    2604.9493   -44524.748    21.207174   0.91595914 
   56600    211.04891   -756.99374    136465.55   -41935.406    2625.8497   -44561.256    21.123167   0.91520161 
   56700    203.70329    -730.9639    136368.07   -41957.403    2534.4563    -44491.86    21.186515   0.91585582 
   56800    208.98147   -748.02107    136427.17   -41889.919    2600.1269   -44490.046    21.132294   0.91545909 
   56900    209.86258   -722.46366    136399.42   -41876.266    2611.0894   -44487.355    21.143512    0.9156453 
   57000    207.99701   -660.12428    136290.84   -41817.152    2587.8782    -44405.03    21.288776   0.91637482 
   57100    212.98403   -680.15596    136344.51   -41870.471    2649.9263   -44520.398    21.313528   0.91601406 
   57200    207.28491   -693.64506    136291.67   -41913.433    2579.0183   -44492.451    21.251006   0.91636919 
   57300    205.31224   -734.14774    136379.73   -41957.888    2554.4745   -44512.362    21.247389   0.91577755 
   57400    207.68997   -697.97868    136361.79    -41966.42    2584.0581   -44550.478     21.23191   0.91589798 
   57500    203.56435    -924.0156     136283.4   -42009.854    2532.7276   -44542.582    21.246056   0.91642482 
   57600    209.74016    -744.8057    136147.31   -41973.992    2609.5664   -44583.558     21.17563    0.9173409 
   57700    203.68715   -756.95554    136185.83   -42013.119    2534.2554   -44547.375    21.233813    0.9170814 
   57800    201.37517   -703.27288    136273.08   -42029.299      2505.49   -44534.789    21.304249    0.9164942 
   57900    205.58868   -657.35624    136221.18   -42000.347     2557.914   -44558.261    21.293703    0.9168434 
   58000    204.59218   -873.29239    136147.91   -42001.128    2545.5156   -44546.644    21.281173    0.9173368 
   58100    205.73281   -764.19562    136208.47   -41936.214    2559.7073   -44495.921    21.264865   0.91692894 
   58200    210.04609   -716.55252    136311.44   -41892.285    2613.3727   -44505.658    21.269704    0.9162363 
   58300     214.1143   -773.59667    136411.73   -41836.929     2663.989   -44500.918    21.130603    0.9155627 
   58400    211.56431   -764.66256    136404.24    -41846.63    2632.2622   -44478.892    21.244489   0.91561294 
   58500    209.64423   -747.57715    136429.44   -41854.796    2608.3728   -44463.169    21.132689   0.91544384 
   58600    214.98034   -674.34215    136506.46   -41824.888    2674.7642   -44499.652    21.258018   0.91492731 
   58700    213.81299   -677.65711    136482.72   -41824.951      2660.24   -44485.191    21.247667   0.91508647 
   58800    211.78908   -742.19356    136403.45   -41870.683    2635.0588   -44505.741    21.199661    0.9156183 
   58900    208.94873    -867.9514    136382.71   -41912.326    2599.7195   -44512.046    21.168868   0.91575749 
   59000    208.54296   -803.96166    136243.96   -41895.724    2594.6709   -44490.395    21.285858    0.9166901 
   59100    210.40863   -709.08003    136273.85   -41902.365    2617.8834   -44520.249    21.193925   0.91648904 
   59200    208.83361   -853.39131    136156.42   -41916.409    2598.2872   -44514.696     21.13653   0.91727948 
   59300    208.01483   -720.24495    136088.52   -41906.717       2588.1   -44494.817    21.180842   0.91773719 
   59400    209.66989    -850.4621    136088.04   -41953.877     2608.692   -44562.569    21.160775   0.91774039 
   59500    205.34718   -831.70257       136206   -41914.461    2554.9094    -44469.37    21.284856   0.91694557 
   59600     207.9346   -825.08453     136138.8   -41900.176    2587.1017   -44487.278     21.18924   0.91739823 
   59700     208.7853     -728.167    135967.96   -41927.929     2597.686   -44525.615    21.088215   0.91855091 
   59800    203.87439   -635.99656    136134.74   -41922.036    2536.5851   -44458.621    21.092172   0.91742554 
   59900     211.3723    -656.6227    136255.14   -41898.252    2629.8733   -44528.126    21.265578   0.91661492 
   60000     207.6081   -799.30716    136290.25   -41941.091    2583.0394    -44524.13    21.281641   0.91637876 
   60100    208.66138   -834.06765    136243.22   -41904.761    2596.1443   -44500.905    21.362652   0.91669508 
   60200    210.23019   -839.10765    136121.61   -41885.221    2615.6632   -44500.884    21.397321   0.91751409 
   60300    207.04058   -747.67828    136026.14   -41843.531    2575.9784   -44419.509     21.33678   0.91815799 
   60400    215.60777   -613.20523    136093.53   -41805.189    2682.5705   -44487.759    21.345113   0.91770338 
   60500    210.33056   -759.42566    136146.64   -41835.927    2616.9121   -44452.839    21.354977   0.91734541 
   60600    211.38582   -795.61455     136269.3   -41884.199    2630.0415   -44514.241     21.41457   0.91651962 
   60700    209.43021   -704.75503    136205.89   -41899.156      2605.71   -44504.866    21.326588    0.9169463 
   60800    211.23256   -665.60578    136325.58   -41847.579    2628.1347   -44475.714    21.350888   0.91614129 
   60900    214.23765   -682.24332    136321.05   -41842.208    2665.5236   -44507.732    21.360999   0.91617175 
   61000    207.43726   -785.15986    136336.39   -41876.458    2580.9139   -44457.372    21.419847   0.91606867 
   61100    210.85762   -719.42152    136290.45   -41909.789    2623.4697   -44533.259    21.409184   0.91637742 
   61200    208.97664   -710.67699    136375.09   -41903.408    2600.0667   -44503.474    21.499607    0.9158087 
   61300    209.91481   -850.70104    136283.69   -41891.337    2611.7394   -44503.077    21.477025   0.91642285 
   61400    205.28782   -848.71646    136187.52   -41920.545    2554.1707   -44474.716    21.372185      0.91707 
   61500    208.11942    -677.1086    136113.77   -41920.364    2589.4013   -44509.765    21.467007   0.91756691 
   61600    210.20239   -884.36371    136084.77   -41878.954    2615.3174   -44494.271    21.377772   0.91776244 
   61700    209.31043   -727.49734    136197.08   -41952.848    2604.2196   -44557.068    21.539632   0.91700563 
   61800    201.06328   -862.90734    136255.36   -42021.696    2501.6094   -44523.305    21.585103   0.91661342 
   61900      209.392   -879.94786    136188.66   -41957.064    2605.2345   -44562.299    21.518658   0.91706236 
   62000    208.75523   -797.73685    136241.22   -41919.272     2597.312   -44516.584     21.50265   0.91670855 
   62100    210.18072   -744.23676    136248.56   -41940.263    2615.0477   -44555.311    21.477557   0.91665914 
   62200     209.6099   -773.08832    136204.47   -41893.042    2607.9456   -44500.987     21.44284   0.91695589 
   62300    206.85963   -768.70016    136227.41    -41924.35     2573.727   -44498.077    21.447039   0.91680149 
   62400    212.59648   -777.05561    136212.31   -41861.772    2645.1043   -44506.876    21.548904    0.9169031 
   62500    206.53148   -649.02043    136124.87   -41875.602    2569.6442   -44445.246    21.420732   0.91749207 
   62600    206.75986   -731.72167    136085.94   -41883.948    2572.4857   -44456.434    21.434329   0.91775457 
   62700    211.44966   -677.92608    136063.18   -41905.384    2630.8358    -44536.22    21.454762    0.9179081 
   62800    210.57322   -816.62261    136141.74   -41891.617    2619.9312   -44511.548    21.420713   0.91737837 
   62900    210.79726   -810.88981    136245.08   -41840.116    2622.7187   -44462.834    21.644996    0.9166826 
   63000     213.5929   -764.71416    136253.21   -41807.761    2657.5018   -44465.263    21.520068   0.91662791 
   63100    214.36924   -779.68391    136054.09   -41797.363    2667.1609   -44464.524    21.534965   0.91796937 
   63200    209.34212   -723.84719    136180.52   -41828.122    2604.6139   -44432.736    21.541628   0.91711718 
   63300     208.3925   -642.96138    136275.51   -41854.062    2592.7989   -44446.861    21.560524   0.91647792 
   63400    212.05208   -768.08089    136348.94   -41782.257    2638.3311   -44420.588    21.632861   0.91598434 
   63500    210.65613   -773.40259    136304.82     -41869.9    2620.9628   -44490.863    21.752139   0.91628079 
   63600    209.30073   -833.39479    136290.77   -41878.118     2604.099   -44482.217    21.752011   0.91637527 
   63700    210.83795   -718.35493    136378.52   -41874.541    2623.2249   -44497.766    21.694506   0.91578562 
   63800     206.3402   -734.25028    136238.56   -41974.566    2567.2644    -44541.83    21.709169   0.91672644 
   63900    204.53187   -799.26984    136205.55   -41959.547    2544.7653   -44504.312    21.641329   0.91694859 
   64000    206.93734   -675.05919    136251.94   -41942.417    2574.6939    -44517.11    21.754128   0.91663645 
   64100    212.29593   -692.66008     136190.5   -41864.973     2641.365   -44506.338    21.703253   0.91704994 
   64200    211.25774   -753.77096    136222.23   -41862.045     2628.448   -44490.493    21.582321   0.91683637 
   64300     213.6009   -773.42164     136197.9    -41775.88    2657.6013   -44433.482    21.690053   0.91700012 
   64400    212.62754   -686.43087    136097.26   -41801.374    2645.4909   -44446.864    21.725502   0.91767822 
   64500    215.13475   -779.39149    136102.19   -41802.597    2676.6853   -44479.283    21.688645   0.91764499 
   64600    209.14833   -801.21114    136202.25    -41857.58    2602.2028   -44459.783    21.646461   0.91697083 
   64700    210.54892   -754.26225    136102.37   -41878.942    2619.6288   -44498.571    21.759143   0.91764377 
   64800    209.41507   -821.15051    136107.33   -41895.948    2605.5216    -44501.47    21.640265   0.91761035 
   64900     211.8191   -767.67931    136081.94   -41877.005    2635.4323   -44512.437    21.630971   0.91778152 
   65000    211.01261   -754.33569    136097.14   -41839.124     2625.398   -44464.522    21.767283   0.91767901 
   65100    208.14211    -834.1134     136266.1   -41856.401    2589.6836   -44446.084    21.827646   0.91654115 
   65200    207.48947   -628.58978    136287.68   -41852.002    2581.5635   -44433.565    21.887089   0.91639607 
   65300    212.83805   -765.63914    136196.98    -41861.22      2648.11    -44509.33     21.69104   0.91700631 
   65400    210.23264   -892.66127    136373.74    -41799.51    2615.6938   -44415.204    21.786887   0.91581774 
   65500    210.67967   -652.32604    136365.53   -41870.639    2621.2556   -44491.895     21.88029   0.91587286 
   65600    209.81816   -838.02851    136291.05   -41901.258    2610.5368   -44511.795    21.822046   0.91637338 
   65700    208.38757    -798.7844    136304.41   -41941.408    2592.7375   -44534.145    21.890187   0.91628355 
   65800    204.10609   -714.58868    136342.19   -41937.714    2539.4678   -44477.182    21.922941   0.91602967 
   65900    210.53484   -608.71273    136376.02   -41906.678    2619.4537   -44526.131    21.735618   0.91580242 
   66000    207.97181   -730.51026    136407.97   -41810.651    2587.5647   -44398.216    21.842719   0.91558792 
   66100    213.85256   -738.40546    136354.81   -41760.559    2660.7324   -44421.291    21.853432   0.91594486 
   66200    216.27993   -824.80045    136355.51   -41737.783    2690.9335   -44428.716    21.865777   0.91594017 
   66300    213.90378   -764.41022    136380.06   -41781.165    2661.3697   -44442.535    21.814156   0.91577532 
   66400    212.61744   -801.87215    136384.77   -41830.282    2645.3652   -44475.647    21.913965   0.91574365 
   66500    212.05919   -912.55276    136329.66   -41846.461    2638.4195   -44484.881    21.849482   0.91611385 
   66600    209.20221    -863.8001    136208.35   -41870.051    2602.8732   -44472.924    21.747339   0.91692974 
   66700    212.47782   -709.20972    136110.94   -41898.913     2643.628   -44542.541    21.888731     0.917586 
   66800    210.17879   -749.51498    136172.38   -41839.633    2615.0238   -44454.656    21.899724   0.91717195 
[...]
   84600    207.31441   -783.06445    136777.22   -42040.617    2579.3854   -44620.002    23.546028   0.91311617 
   84700    207.71103   -831.14023     136632.2   -42066.501    2584.3201   -44650.821    23.445226   0.91408536 
   84800    207.29132   -641.09783    136626.75     -42031.7    2579.0981   -44610.798    23.486688   0.91412182 
   84900     208.2913   -689.20567    136623.53   -42011.884    2591.5398   -44603.423    23.529827   0.91414334 
   85000    211.77209   -709.39557    136601.57   -41968.326    2634.8475   -44603.174     23.42051   0.91429033 
   85100    205.74866   -794.92912    136590.27   -41963.513    2559.9044   -44523.417    23.489507   0.91436591 
   85200    211.52144   -677.77275    136761.69   -41968.296    2631.7288   -44600.025    23.530754   0.91321985 
   85300    211.17686   -627.51661    136762.72   -42001.211    2627.4416   -44628.653     23.56662   0.91321295 
   85400    205.19076   -883.61151    136683.25   -41988.401    2552.9632   -44541.364     23.67619   0.91374391 
   85500     208.2541   -887.93272    136754.44   -41951.251    2591.0769   -44542.327    23.594681   0.91326828 
   85600     212.8175   -769.14775    136527.18   -41927.639    2647.8543   -44575.493    23.611037   0.91478849 
   85700    212.18489   -611.40695    136638.16   -41957.489    2639.9834   -44597.473    23.601828   0.91404549 
   85800    208.25253   -801.05386    136581.95   -41962.294    2591.0574   -44553.352    23.589744   0.91442164 
   85900    213.41788   -670.41024    136594.65   -41860.618    2655.3241   -44515.942    23.640473   0.91433665 
   86000    207.29432   -741.77914    136685.56   -41920.881    2579.1354   -44500.016    23.633823   0.91372849 
   86100    212.24778   -774.99195    136658.47   -41925.569    2640.7659   -44566.335    23.592206   0.91390964 
   86200    210.82646   -713.65732    136721.45    -41893.39     2623.082   -44516.472    23.749916   0.91348861 
   86300    210.39661   -712.30275    136866.25   -41930.293    2617.7338   -44548.027    23.702401    0.9125222 
   86400    208.92092   -730.21013    136835.31   -41959.935    2599.3735   -44559.309    23.642362   0.91272851 
   86500     207.5665   -776.18517    136728.62   -41954.172    2582.5219   -44536.694     23.56269    0.9134407 
   86600    211.68065   -686.63111    136790.18   -41904.489    2633.7097   -44538.199    23.613286   0.91302966 
   86700    215.70104   -730.53723    136851.85   -41891.599     2683.731    -44575.33    23.687619   0.91261819 
   86800    207.20868   -602.45644    136675.59   -41959.853    2578.0699   -44537.923    23.650806   0.91379517 
   86900    210.32612    -807.1665    136581.96   -41925.337    2616.8568   -44542.194    23.761303    0.9144216 
   87000    212.28474   -542.66754    136602.38   -41933.801    2641.2257   -44575.026    23.756283   0.91428485 
   87100    207.98923   -772.25613    136636.98   -41970.399    2587.7815    -44558.18    23.664867   0.91405333 
   87200    209.30094   -784.57024    136747.67   -41959.069    2604.1016   -44563.171    23.670437    0.9133135 
   87300    212.43975   -884.00406    136782.59   -41966.648    2643.1543   -44609.802    23.784556    0.9130803 
   87400    214.22695   -738.72679     136847.9   -41977.569    2665.3906    -44642.96      23.7685   0.91264456 
   87500    209.17093   -750.32758    136924.55    -41990.96     2602.484   -44593.444    23.914389   0.91213367 
   87600    207.49433   -706.89197    136956.69   -41994.747     2581.624   -44576.371    23.900009   0.91191962 
   87700    211.70542   -757.26838    136955.48   -42000.938     2634.018   -44634.956    23.861228   0.91192764 
   87800    211.22728   -797.30471    136863.75   -41979.408     2628.069   -44607.477    23.780315   0.91253888 
   87900    208.18638   -745.53448    136976.73   -41993.184    2590.2343   -44583.418    23.848406   0.91178617 
   88000    204.21293   -789.82147    136873.66   -42016.066    2540.7971   -44556.863    23.922132   0.91247279 
   88100    212.31272   -700.26076    136773.12   -41954.792    2641.5739   -44596.366    23.870762   0.91314357 
   88200    210.69212   -703.50957    136927.83   -41930.963    2621.4106   -44552.374    23.839349   0.91211184 
   88300    210.64833   -668.01796    136988.71   -41974.305    2620.8657    -44595.17     23.80215   0.91170646 
   88400    204.03822   -618.25643    136842.43    -42078.27    2538.6233   -44616.894    23.855025   0.91268101 
   88500    212.54294   -731.56633    136937.69   -41987.816    2644.4383   -44632.254    23.989046   0.91204613 
   88600    207.69779   -876.14138    136724.16   -41947.696    2584.1554   -44531.851    23.862988   0.91347055 
   88700     212.7776   -840.13923    136733.65   -41932.809    2647.3578   -44580.167    23.950585   0.91340711 
   88800    212.22261   -811.86959    136762.04   -41879.544    2640.4527   -44519.996    23.802388   0.91321749 
   88900    211.14176   -611.17698    136737.67   -41921.755    2627.0049    -44548.76    23.911858   0.91338028 
   89000    214.47204   -814.97844     136774.1   -41905.681    2668.4399   -44574.121    24.008968   0.91313703 
   89100    209.35478   -706.80471    136833.55   -42005.327    2604.7714   -44610.098    23.871385   0.91274024 
   89200    210.01848   -756.21575    136666.98   -42030.908    2613.0292   -44643.937     23.91437    0.9138527 
   89300    211.29893   -699.37834    136658.96   -42044.989    2628.9605    -44673.95    24.136518   0.91390632 
   89400    206.58858   -720.97394    136676.09   -42069.879    2570.3547   -44640.234    23.997959   0.91379182 
   89500    205.63101   -701.84065    136719.94   -42093.071    2558.4407   -44651.511    23.915657   0.91349875 
   89600    201.75513   -661.46801    136666.82   -42124.215    2510.2173   -44634.432    23.880738   0.91385382 
   89700    206.55408   -756.17359     136681.2   -42077.015    2569.9255    -44646.94    23.926301   0.91375764 
   89800    205.45805   -751.05716    136822.45   -42028.599    2556.2888   -44584.888    24.021797   0.91281433 
   89900    206.86683   -774.86027    136842.23   -42081.629    2573.8167   -44655.445    23.940649    0.9126824 
   90000    208.94706   -733.83804    136787.29   -41991.423    2599.6986   -44591.122      23.9718   0.91304897 
   90100    208.66275   -762.28919    136805.13   -42003.196    2596.1613   -44599.357    23.973846   0.91292986 
   90200    206.26846   -824.25967    136747.59   -42040.978    2566.3717   -44607.349    23.965943   0.91331404 
   90300    203.31972   -789.02347    136585.33   -42046.197    2529.6839   -44575.881     23.81417   0.91439901 
   90400    204.30271   -874.07491    136602.27   -42026.437    2541.9141   -44568.352     23.97392   0.91428564 
   90500    208.26157   -656.55702    136635.59   -41991.208    2591.1699   -44582.378    24.009801   0.91406264 
   90600    213.19098   -683.76605    136707.03   -41908.177    2652.5011   -44560.679    24.123994   0.91358499 
   90700    210.56529   -657.37235    136723.42   -41909.183    2619.8325   -44529.015    24.036222   0.91347549 
   90800     207.4537   -883.48331    136698.23   -41941.421    2581.1185   -44522.539    23.884311   0.91364383 
   90900    206.05146   -723.66673    136723.95   -42025.511    2563.6718   -44589.183    24.008735   0.91347196 
   91000    211.45675    -646.0662    136770.52   -42042.185    2630.9239   -44673.109    24.128129    0.9131609 
   91100    209.64897   -685.88514    136790.55   -42028.739    2608.4318    -44637.17    24.058751   0.91302721 
   91200    207.32759   -848.74557    136774.67   -41985.864    2579.5493   -44565.413    24.125186   0.91313317 
   91300     210.4224   -736.06548    136642.25   -41889.384    2618.0546   -44507.438    23.992685   0.91401813 
   91400    214.12581   -833.33241    136777.38   -41879.996    2664.1322   -44544.128    24.039209   0.91311508 
   91500    215.18886   -762.72333    136743.57   -41896.037    2677.3586   -44573.395    24.185788   0.91334089 
   91600    209.85726   -740.15415    136740.66   -41941.555    2611.0233   -44552.579    24.176696   0.91336028 
   91700    211.02186   -649.79447    136694.88    -42008.09    2625.5131   -44633.603    24.122531   0.91366619 
   91800    210.32164   -646.99095    136689.68   -41978.714     2616.801   -44595.515    24.161555   0.91370096 
   91900    209.46209   -732.69198    136761.09   -41984.426    2606.1066   -44590.533    24.150772   0.91322388 
   92000    208.22459    -774.4031    136685.44   -42006.014    2590.7098   -44596.724    24.226453    0.9137293 
   92100    207.27975   -755.70463    136788.93    -42042.07    2578.9541   -44621.025    24.155494   0.91303799 
   92200    209.87639   -671.27101    136916.15    -41985.08    2611.2613   -44596.342    23.990505   0.91218961 
   92300    209.02512   -756.33726    136827.87   -41908.358    2600.6699   -44509.028    24.139951   0.91277819 
   92400    207.90726   -779.72694    136797.46   -41909.814    2586.7616   -44496.575    24.261464   0.91298104 
   92500    210.95264   -745.51257    136857.92   -41958.734    2624.6519   -44583.386     24.22779   0.91257775 
   92600    211.13308   -723.17069    136704.22    -41931.92    2626.8969   -44558.817    24.026978   0.91360377 
   92700    210.99844   -662.35811    136665.92   -41926.898    2625.2217    -44552.12    24.065751    0.9138598 
   92800    208.03064    -840.4769    136738.96   -41967.289    2588.2967   -44555.586    23.946276   0.91337163 
   92900    210.13109   -725.10352    136791.96     -41935.4    2614.4302    -44549.83    24.190662   0.91301777 
   93000    205.84857   -845.81179    136809.36   -41962.635    2561.1475   -44523.783    24.220591   0.91290167 
   93100      210.228   -774.77948    136821.95   -41905.139    2615.6361   -44520.775    24.185542   0.91281764 
   93200    215.86809   -739.69185    136703.91   -41922.607    2685.8095   -44608.417    24.209033   0.91360587 
   93300    213.10846   -626.59526    136784.91   -41946.902    2651.4744   -44598.376    24.299061   0.91306486 
   93400    208.41818    -759.0705    136727.61   -41985.105    2593.1184   -44578.223    24.167134   0.91344751 
   93500    209.66557   -759.81899    136717.61   -42029.796    2608.6383   -44638.434    24.173002   0.91351431 
   93600    205.12329   -715.64376    136759.99   -42097.383    2552.1237   -44649.507    24.192887   0.91323123 
   93700    212.00588   -692.22751    136936.66     -42056.8    2637.7562   -44694.556    24.160689     0.912053 
   93800     209.4476   -680.31204    136980.53   -42022.341    2605.9264   -44628.267    24.225733   0.91176093 
   93900    210.76695   -716.40996    136928.46   -42008.456    2622.3415   -44630.797    24.191941   0.91210761 
   94000     209.4085    -652.3723    137017.77   -42016.214    2605.4399   -44621.654    24.330299   0.91151307 
   94100    211.86217    -733.8058    136942.69   -42020.133    2635.9681   -44656.101    24.142453   0.91201285 
   94200    208.89983   -762.82022    136799.86   -42019.874     2599.111   -44618.985    24.131862   0.91296502 
   94300    208.85637   -822.39679    136751.05    -41976.14    2598.5704    -44574.71    24.234466   0.91329094 
   94400    213.33455   -824.11063    136615.66   -41967.303    2654.2874    -44621.59    24.174509   0.91419602 
   94500    214.13573   -798.49782    136497.53   -41906.657    2664.2556   -44570.913    24.230128   0.91498722 
   94600    212.54724   -762.48156    136630.38   -41950.683    2644.4918   -44595.175    24.299743   0.91409755 
   94700    208.02305   -742.47053    136621.77    -41992.22    2588.2023   -44580.422    24.157271    0.9141551 
   94800    207.35997   -697.50887    136672.67   -41988.276    2579.9523   -44568.229    24.179509   0.91381468 
   94900    208.34874    -793.4531    136557.06   -41957.014    2592.2545   -44549.269     24.26868   0.91458829 
   95000    211.48048   -768.42915     136634.7   -41936.768    2631.2192   -44567.987    24.215684   0.91406865 
   95100    214.40185   -762.83067    136500.29   -41938.752    2667.5666   -44606.318    24.362101   0.91496868 
   95200    208.31344   -795.37915    136630.29   -41957.423    2591.8152   -44549.238    24.337265   0.91409813 
   95300    216.13365   -637.39833    136651.43   -41867.374    2689.1135   -44556.488    24.346353   0.91395671 
   95400    213.54511   -867.39073    136701.58   -41933.693    2656.9072     -44590.6    24.228197   0.91362141 
   95500    212.33946   -727.54572    136631.83   -41944.459    2641.9066   -44586.365    24.235601   0.91408779 
   95600    210.27406   -819.60489    136709.75   -41934.341     2616.209    -44550.55    24.366067   0.91356681 
   95700    208.09897    -670.9098    136567.68   -41984.533    2589.1468    -44573.68    24.367056   0.91451722 
   95800    209.19417   -917.89788    136650.69   -42033.758    2602.7731   -44636.531    24.312484   0.91396165 
   95900    213.95824   -712.67956    136689.34     -41982.6    2662.0473   -44644.647    24.157517   0.91370319 
   96000    207.54453   -738.31744     136545.8   -42057.361    2582.2485    -44639.61    24.230823   0.91466371 
   96100    212.39712   -741.70324    136614.04   -42003.424    2642.6239   -44646.048    24.379674   0.91420687 
   96200    206.57467   -778.08405     136602.1   -42038.922    2570.1817   -44609.104    24.270782   0.91428674 
   96300    206.69539   -648.86879    136703.91    -41976.96    2571.6836   -44548.643    24.257131   0.91360585 
   96400    209.20047   -688.16041    136761.88   -41952.793    2602.8515   -44555.645    24.341472   0.91321856 
   96500    209.39641   -673.27083    136640.58   -42004.771    2605.2894    -44610.06    24.309512   0.91402927 
   96600    211.28149   -790.15271     136654.7   -42010.206    2628.7434   -44638.949    24.256645   0.91393484 
   96700    210.63896   -786.87218    136657.84   -42086.499    2620.7491   -44707.248    24.313789   0.91391381 
   96800    204.59042      -825.46    136604.32   -42145.045    2545.4938   -44690.539    24.288126   0.91427188 
   96900    204.91044   -704.29014    136566.64   -42093.578    2549.4754   -44643.054    24.346719   0.91452414 
   97000    206.68722   -725.75405    136719.76   -42086.936    2571.5819   -44658.518    24.359722   0.91349993 
   97100    210.72701   -732.57873    136610.33   -42076.377    2621.8446   -44698.221    24.218698   0.91423168 
   97200    208.28327   -664.56034    136609.96    -42087.04    2591.4398    -44678.48    24.298268   0.91423413 
   97300    206.94986   -783.79933    136629.17    -42081.42    2574.8496   -44656.269    24.341839   0.91410563 
   97400    208.45407   -793.51505       136505   -42092.943     2593.565   -44686.508    24.270639   0.91493713 
   97500    210.41118   -807.52164    136572.75   -42003.605    2617.9151    -44621.52    24.466695   0.91448327 
   97600    212.17415    -805.3531    136496.48   -42065.011    2639.8498   -44704.861    24.330016   0.91499422 
   97700    212.89998   -637.42164    136568.95   -41996.361    2648.8805   -44645.241    24.355827   0.91450868 
   97800    213.65498   -853.07252    136682.56   -41975.018    2658.2742   -44633.292    24.281473   0.91374858 
   97900    212.88158    -658.0306    136750.05   -41935.521    2648.6516   -44584.172    24.304623   0.91329762 
   98000    214.57305   -733.52085    136926.58   -41959.922    2669.6967   -44629.618    24.307397   0.91212015 
   98100    208.38707   -664.67699    136869.07   -42040.404    2592.7314   -44633.135    24.395634   0.91250339 
   98200    210.21689   -666.15633     136846.9   -42015.251    2615.4978   -44630.749    24.430002   0.91265123 
   98300    211.90317   -775.57187     136921.9   -42037.864    2636.4783   -44674.342    24.413646   0.91215131 
   98400    210.50919   -765.34032    136849.56   -42050.375    2619.1345   -44669.509    24.258778   0.91263352 
   98500    208.08356   -700.54297    136886.12   -42044.805    2588.9551    -44633.76    24.387039   0.91238973 
   98600    208.36551   -783.26256       136872   -42067.885    2592.4631   -44660.348    24.378327   0.91248387 
   98700    207.57737   -751.92943    136880.96   -42114.378    2582.6571   -44697.035    24.360707   0.91242414 
   98800    208.76562   -686.47545    136927.58   -42088.924    2597.4412   -44686.366    24.366625   0.91211345 
   98900    206.26921   -874.57111    136862.19   -42093.387    2566.3811   -44659.768     24.52105   0.91254926 
   99000    203.47002   -651.95105     136759.2   -42124.181    2531.5539   -44655.735    24.506663    0.9132365 
   99100     211.0404   -896.32958    136876.33   -42053.927    2625.7438   -44679.671    24.503621   0.91245496 
   99200    211.03637   -807.55592    136860.56   -42038.602    2625.6937   -44664.295    24.625424   0.91256011 
   99300    211.51875    -872.3858     136783.1   -41995.113    2631.6954   -44626.809     24.43549   0.91307689 
   99400    210.68454    -784.6829    136793.53   -41966.014    2621.3162    -44587.33    24.473153   0.91300731 
   99500     213.1849   -727.37391    136799.41   -41844.466    2652.4254   -44496.891    24.678285   0.91296806 
   99600    214.60353   -816.49132    136860.19   -41877.231    2670.0759   -44547.307    24.585721   0.91256257 
   99700    209.21749   -727.95574    136763.25   -41884.556    2603.0633   -44487.619     24.57866   0.91320942 
   99800    210.51636   -752.56552    136893.26   -41906.728    2619.2237   -44525.952    24.559763   0.91234216 
   99900    212.38453   -800.35976    136735.05   -41974.892    2642.4673   -44617.359    24.607454   0.91339777 
  100000    212.84983    -803.0714    136744.12     -41982.5    2648.2566   -44630.756    24.521803   0.91333718 
  100100    212.67087   -718.18782    136833.98   -41914.506    2646.0299   -44560.536    24.583027   0.91273742 
  100200    215.27228   -728.43292    136755.14   -41928.029    2678.3964   -44606.426    24.607222   0.91326362 
  100300    213.11063   -739.99273    136638.14   -41912.654    2651.5014   -44564.155    24.639699   0.91404559 
  100400    212.08371   -765.02216    136746.07   -41955.012    2638.7245   -44593.736    24.600169   0.91332419 
  100500    214.56454   -653.16622    136687.48   -41878.838    2669.5908   -44548.429    24.528925   0.91371564 
  100600    213.61974   -735.09549    136705.07   -41959.151    2657.8356   -44616.986    24.606635   0.91359806 
  100630    210.26919   -811.56494    136662.02   -41943.008    2616.1485   -44559.157    24.506428   0.91388588 
Loop time of 67.7223 on 6 procs for 100000 steps with 4175 atoms

Performance: 637.899 ns/day, 0.038 hours/ns, 1476.619 timesteps/s
98.2% CPU use with 6 MPI tasks x no OpenMP threads

MPI task timing breakdown:
Section |  min time  |  avg time  |  max time  |%varavg| %total
---------------------------------------------------------------
Pair    | 52.852     | 54.627     | 55.97      |  12.9 | 80.66
Neigh   | 4.7006     | 4.7234     | 4.7415     |   0.7 |  6.97
Comm    | 4.4333     | 5.8371     | 7.6256     |  40.1 |  8.62
Output  | 0.15874    | 0.15958    | 0.16321    |   0.4 |  0.24
Modify  | 1.7334     | 1.7652     | 1.7983     |   1.7 |  2.61
Other   |            | 0.6098     |            |       |  0.90

Nlocal:        695.833 ave         704 max         684 min
Histogram: 1 0 0 0 1 0 1 1 1 1
Nghost:        1433.17 ave        1450 max        1414 min
Histogram: 2 0 0 0 1 0 0 1 0 2
Neighs:        0.00000 ave           0 max           0 min
Histogram: 6 0 0 0 0 0 0 0 0 0
FullNghs:      18582.7 ave       18995 max       18065 min
Histogram: 1 0 0 0 1 2 0 0 1 1

Total # of neighbors = 111496
Ave neighs/atom = 26.705629
Neighbor list builds = 5162
Dangerous builds = 0

undump              1
unfix               2
unfix               3
unfix               4


################################################
#######         Run Simulation         #########
################################################

reset_timestep      0
log                 log.run_${NAME}
log                 log.run_liquid_density_MLmW
