LAMMPS data file via write_data, version 29 Oct 2020, timestep = 800000

4175 atoms
1 atom types

-0.6314258025391943 50.63142580253465 xlo xhi
-0.6314258025391943 50.63142580253465 ylo yhi
-0.6314258025391943 50.63142580253465 zlo zhi

Masses

1 18.015

Atoms # atomic

245 1 3.594282888479367 0.6082739049693291 1.1476354894197807 0 0 0
4053 1 6.251690979705777 1.1443690954334038 1.0751435443285862 0 1 1
1766 1 27.878903983740432 7.985827660142636 -0.0011748802810894743 0 0 1
1484 1 13.806575463636634 0.1452168613836251 0.060409374858619636 0 0 1
330 1 13.4299887042228 1.4601501573855633 2.3539137331399154 0 0 0
2057 1 18.409885842417996 0.9767158028372049 0.38080591915954276 0 0 1
3840 1 20.439411327786694 2.8886148097784545 0.3757570238497061 0 1 1
3698 1 23.85745466862504 0.2674602859444509 1.8410313485305156 0 1 1
1489 1 45.07770733869417 23.378523941518885 -0.469023523675453 0 0 1
3960 1 30.245128156149377 2.2285009549560058 0.1891560140352655 0 1 1
3080 1 27.231804676216477 24.95406393697727 9.234685482695221 0 0 0
76 1 34.57127798244552 -0.06404391473540594 0.5494015744328156 0 0 0
654 1 37.71740557374848 1.7289849020703016 2.1686873729500755 0 0 0
2298 1 41.88135795416042 0.44813100566806874 1.9706751682881816 0 1 0
2807 1 33.83896442999304 -0.18348278421912473 9.570243807534885 0 1 0
2020 1 47.22353265352423 1.0573492516610992 1.347982788358723 -1 0 1
216 1 49.745851447221625 1.7607472221350435 0.39167731057716626 -1 0 0
380 1 2.493098213898712 3.0758478521299017 1.9907254881451069 0 0 0
268 1 2.7263833174427625 4.906636425266588 0.13342792474336918 1 0 0
2032 1 7.809962318471369 5.231923615215132 1.7298223479148915 0 0 1
526 1 10.357263975707882 -0.20331349149667444 7.641976749066393 0 0 0
2603 1 11.538957051558533 3.616950985067456 1.7503055103055 0 1 0
2702 1 16.32422388228445 4.742060682415888 1.062587818508499 0 1 0
2233 1 19.17127114637386 4.960240278486603 1.5972480535254152 0 1 0
3702 1 22.79867082541792 2.7107650010434403 2.131881714532375 0 1 1
106 1 24.144677656479153 4.544656021087501 0.9501947226425871 0 0 0
253 1 26.82588439875459 3.625647572706807 1.4582814418955392 0 0 0
625 1 30.962003234032586 3.486306735149558 2.5113404997483793 0 0 0
4059 1 43.12480182020008 0.08942505683683077 4.330352026772714 0 1 1
3768 1 40.13607083243626 5.389437548467259 0.45497669782178574 0 1 1
2638 1 41.52485131518351 3.1449292677803635 1.415428874582223 0 1 0
293 1 44.04577900458817 3.9828753046770426 0.6965793647529674 0 0 0
2564 1 45.65818337089017 3.215993276838716 2.538456396360226 -1 1 0
61 1 20.91170889330889 -0.40364550039044234 5.067612996951113 0 0 0
1644 1 50.29960215227084 8.285898381001738 1.3397515933511093 0 0 1
493 1 3.785816453556679 7.0199150233999275 1.5582783567101015 0 0 0
1961 1 9.559586153506528 7.334782156284409 1.267054804924278 0 0 1
13 1 12.079915206274574 6.269219476196836 2.2225186024667987 0 0 0
370 1 13.372608259545657 7.843378012045292 0.044867963234566544 0 0 0
3815 1 15.938934625441824 7.4544397596609695 0.7627192801879756 0 1 1
114 1 20.6191238225935 7.225141576520759 1.1204643833756627 0 0 0
1716 1 19.102924373731422 8.751884959553395 2.703467089728915 0 0 1
1446 1 23.287286484597196 6.933785466834905 1.9513523741799514 0 0 1
363 1 27.762808584971896 6.2204640325575244 2.177831298976868 0 0 0
2427 1 4.95525207417459 24.9813656678307 4.519808144383987 0 0 0
1704 1 30.541839866640622 6.008274650599163 1.9864077253908432 0 0 1
2029 1 37.95116091622718 9.198646042987559 -0.4122978686975207 0 0 1
102 1 34.29130738883234 6.586624102085084 0.1535204503489188 0 0 0
1486 1 34.07708790990215 6.002153572568182 2.651534470309612 0 0 1
456 1 38.65095422494133 7.60656048859618 1.6396446987807702 0 0 0
366 1 44.01486776554124 6.657538857502613 0.6502215193808212 0 0 0
3668 1 46.66128261674983 8.075353115373803 0.04476994646584276 0 1 1
1976 1 48.64833163793605 6.388635275077471 1.0746669343531787 -1 0 1
154 1 4.402962216567776 9.201791137397063 0.07731038693023884 0 0 0
254 1 5.286887265642193 11.401070402454637 1.379160102824473 0 0 0
213 1 7.701731725349687 11.397678365160042 2.920220801611662 0 0 0
1718 1 12.30889043589284 10.35404747794844 1.0569313814778811 0 0 1
459 1 20.326394651022444 11.229544291190248 2.830537067097006 0 0 0
2021 1 23.993622852285128 9.337887980904629 1.3817708605260637 0 0 1
299 1 26.45516597151806 9.882922240924925 1.2354630373820612 0 0 0
1968 1 31.612732343912096 9.915591708885954 1.3152515525492288 0 0 1
1533 1 10.57017994853974 22.632817082294704 -0.09927039263690696 0 0 1
646 1 33.945684077724934 11.025828350404975 0.6802418854643526 0 0 0
653 1 31.84514416798049 6.107818360584578 -0.38060692691963616 0 0 0
1874 1 38.060732002418774 3.904380183061768 -0.04480857726400389 0 0 1
383 1 42.103023964567456 10.381314411323775 1.1613993918366563 0 0 0
7 1 45.98650542349989 12.141302163119466 0.836562510417227 0 0 0
1510 1 48.06708948326093 10.514378605320797 -0.22225036549074317 -1 0 1
1407 1 49.74957866574472 10.93324743917378 1.9733936477945622 0 0 1
1487 1 0.6764015229730254 12.446589337552806 1.8232507839605439 1 0 1
564 1 -0.03496668409382886 14.865815818367212 2.533178689065292 0 0 0
1543 1 5.687102054955939 13.723833918890412 -0.3090343189868176 0 0 1
1429 1 8.98999015092179 12.804387591162914 0.8213835334825583 0 0 1
1969 1 10.896399581347346 14.367006651234863 1.9736680871218408 0 0 1
708 1 13.42848298721756 15.333832305141366 0.9885615158994778 0 0 0
423 1 14.960977616932057 12.928297180573363 1.1224413810272287 0 0 0
533 1 20.03130947539308 13.191352325966529 0.9738238381372841 0 0 0
3643 1 13.391900464128394 24.297343889487 0.4829877120356252 0 0 1
1480 1 24.446642307460337 14.163077635987468 0.4316035940037646 0 0 1
2081 1 29.654841341612375 14.3054300879218 1.3882485260361674 0 0 1
660 1 30.151874824223043 11.743578593885392 2.5616251780548636 0 0 0
474 1 34.050971100589365 15.514464075964682 1.0625396205844335 0 0 0
353 1 45.41952678218985 -0.4117891627985088 10.689029393540936 0 0 0
587 1 40.99290485516889 12.657484019606715 1.2239173190375952 0 0 0
320 1 47.840602501048934 23.26107448342126 16.21605038490744 0 0 0
675 1 46.99558850613481 14.427807106568135 1.7301050563947524 0 0 0
402 1 38.06045418898931 24.321580131397386 10.271607707349467 0 0 0
1424 1 -0.034258184231966804 16.661633319327443 0.3846103992241927 1 0 1
1680 1 4.485066842173257 17.703335894346843 1.2973248284140049 0 0 1
633 1 6.2677637046160966 15.594740303045228 1.6038680320988994 0 0 0
38 1 9.125328882467077 16.481854437743916 1.6265853370782954 0 0 0
78 1 14.266319596420539 17.28061691543301 2.993571041226311 0 0 0
1512 1 16.704762871833474 17.858057230082526 1.805731021342723 0 0 1
1667 1 6.546858894058403 3.484923788438623 -0.4285738558323181 0 0 1
239 1 20.543068524154194 15.548149147510593 2.5426132494302123 0 0 0
155 1 21.939655004315533 17.57782868150587 0.9728047696009097 0 0 0
1783 1 24.583580554800054 17.18259139446808 0.4376457695905245 0 0 1
2105 1 26.47298552575508 17.903687600883437 2.3622551320442144 0 0 1
1538 1 27.726632837318757 15.572352200051863 2.951884248675719 0 0 1
4081 1 31.543571300773078 16.516525529909742 1.1392328433879961 0 0 1
10 1 35.89512421011443 17.955039646299003 0.5152526002610052 0 0 0
1482 1 38.18444362525594 16.29579688490774 0.22771815254917716 0 0 1
1806 1 40.808204774575515 16.79114984685034 0.18046919699229835 -1 0 1
2171 1 44.59066279629384 15.664407513107122 2.5424850740518674 0 0 0
71 1 44.9454093807484 18.397223453263486 1.585437788257377 0 0 0
177 1 35.05093234520416 24.78948094425855 3.1603553711694072 0 0 0
2 1 21.27111620192749 23.463820821915515 15.124328755315574 0 0 0
547 1 5.758957743117185 20.15603136956346 0.6620852719921344 0 0 0
1815 1 7.359791030028406 20.893887427769076 2.6015425989758953 0 0 1
1779 1 11.926417325669401 19.382631904158906 2.8861577447075706 0 0 1
622 1 16.61535816597607 20.622574610658937 1.7797407616698924 0 0 0
378 1 18.139704402504925 24.731818895465164 3.6078283406259226 0 0 0
1786 1 19.041914605330803 21.15562900860299 0.6692660180779302 0 0 1
422 1 21.05323872679499 19.904859469569935 1.9962646312432737 0 0 0
1794 1 22.687679722937695 22.15590946347985 2.342689431940089 0 0 1
3725 1 28.361941047453048 19.54278600233909 0.7982143098449039 0 0 1
2461 1 29.953748265863947 20.303924266777358 2.7971207634557853 0 0 0
2582 1 34.38145058684162 20.90988224033913 0.9376815397788238 0 0 0
1497 1 40.72316529362817 18.703257411426154 2.1026699529304236 0 0 1
1936 1 39.46613035668571 21.033564468498 1.9284672373758767 0 0 1
545 1 42.83058320766385 20.33669614415609 1.607380900904308 0 0 0
458 1 49.772458163009574 18.688496774187534 1.7430143330812484 -1 0 0
63 1 48.68667452845969 19.983598661712563 -0.3827636136867085 0 0 0
1902 1 2.13791729011928 23.70023257683944 0.7102196307515245 0 0 1
2453 1 8.820442231787142 22.987317841540293 1.9494426655430508 0 0 0
2824 1 30.75580582752298 0.10110705132248021 9.15424862698405 0 1 0
710 1 49.02235563568338 23.05950304667152 13.7313098078446 0 0 0
4146 1 19.16511980887573 23.802518236872555 1.0983901947365502 0 0 1
275 1 45.40775595773816 9.482627102093451 16.292195120455972 0 0 0
369 1 2.908508613299029 -0.013825975575649574 16.162061560096543 0 0 0
2265 1 28.445903231022815 24.236973698430152 0.6068313173869957 0 0 0
2442 1 34.82528911780872 24.274357568418637 7.69782534872332 0 0 0
77 1 18.78587800090134 22.067881958450723 14.70058723883189 0 0 0
417 1 31.875405095246844 22.00134901825122 2.0505216080013646 0 0 0
1807 1 35.37563748706842 24.922085861945977 0.2994029094935472 0 0 1
2231 1 40.785898223521755 23.13258222564847 3.1427419939676087 0 0 0
257 1 -0.38296360189605394 0.1490280934421384 4.005487354778983 0 0 0
1423 1 47.410367160532516 22.31281520533783 0.5512249573795915 0 0 1
2686 1 48.90294255575756 24.288359471684107 1.0579389100355294 0 0 0
2795 1 39.49699985606509 24.550871515219633 5.057824036879426 0 0 0
701 1 -0.1749902463214703 2.35120121730776 2.714407058463849 0 0 0
150 1 5.718092500339109 1.6501689804279227 5.151245769156748 0 0 0
2126 1 7.688036858571557 1.3618499699072726 3.3133012293731796 0 1 0
3707 1 21.108127215628357 24.291733101370752 3.713649329992924 0 0 1
1877 1 16.98757590599989 0.6416995815773843 2.9217096222462287 0 0 1
324 1 19.19620166889221 1.756797597702771 4.416988519478191 0 0 0
709 1 14.959228864052548 21.6588538866724 -0.16182813463289014 0 0 0
4121 1 26.135816934049373 0.06266406785811995 3.887476532608539 0 1 1
328 1 11.474225522644803 -0.2313635753797879 10.158385385164003 0 0 0
2756 1 29.584915549706086 2.340198729953933 4.883802246536722 0 1 0
1939 1 35.04256119708241 1.3326989551048807 2.99602409236333 0 0 1
2729 1 28.199819568371673 24.513440792481916 3.1018270865028277 0 0 0
1997 1 39.259221512063405 -0.2863124732834917 2.2072300981525577 0 0 1
2390 1 29.480138710560244 24.168967636392004 6.396921201993187 0 0 0
594 1 44.693494557752985 2.2394509775260945 5.082727685212463 0 0 0
73 1 0.721107126399938 6.119107070070565 4.829132615096174 1 0 0
1740 1 4.283882141603897 3.777582862950381 4.199051314450624 0 0 1
3946 1 9.144788989532742 3.4374283426386576 3.209077187875419 0 1 1
2003 1 9.485913938896921 4.187344281251785 5.929885906490837 0 0 1
3693 1 15.684287125179914 2.8916102477753785 3.309454102593788 0 1 1
195 1 16.119986313636954 3.627732713697874 5.870459525157335 0 0 0
1947 1 20.870338326953235 3.77636083386737 3.765078386743885 0 0 1
3416 1 25.61371472945889 6.093622785653935 5.938001652856672 0 1 0
898 1 26.811429343297497 2.6165870332399863 3.9677046215342813 0 0 0
350 1 33.52519666254416 3.536394721863287 3.7331372451261577 0 0 0
2752 1 33.49386549807511 3.2134484302467765 6.526762837337718 0 1 0
2398 1 38.20970277184668 3.9359277426123445 4.045876896715609 0 1 0
438 1 41.06787073623518 4.81340343904989 3.9623725889956996 0 0 0
616 1 47.388173644491445 5.3859963983530115 3.422260269724813 -1 0 0
539 1 49.757363100042014 4.347482493849752 4.2183589019043755 0 0 0
167 1 1.4793264742899601 7.841873686823181 2.8035321692260604 0 0 0
432 1 5.609946016438278 5.847403725955529 3.234750400515066 1 0 0
626 1 6.830938679723054 7.5689544763201315 4.936125549703016 0 0 0
610 1 8.673051466937372 8.840548534070386 3.509584486755978 0 0 0
591 1 12.685272752161351 7.094509474803661 4.698233760563182 0 0 0
109 1 15.013499550324099 8.448737362965915 5.666581122231283 0 0 0
592 1 18.98025445406557 7.625637088045529 5.29829637698131 0 0 0
116 1 21.15253336429047 5.812969719370285 5.573599478602436 0 0 0
600 1 23.562644091006096 7.123183380125721 4.635559077424915 0 0 0
608 1 27.86590606632741 6.948513927120654 4.980376311628067 0 0 0
95 1 32.341056484689204 8.185901720218855 3.129375638810561 0 0 0
556 1 33.66882074056858 8.495703602645264 5.518430223219631 0 0 0
1955 1 36.744051830054744 6.4471125956454225 3.4237701793757394 0 0 1
504 1 40.38226155047123 9.19158731078479 2.9411600273687157 0 0 0
108 1 41.939951417514635 7.624246864844357 4.6281650597683095 0 0 0
1598 1 44.27041903885005 8.086238568132025 3.3113994192996796 0 0 1
2129 1 46.14109455151032 7.1819359899576085 5.031981777856979 0 1 0
187 1 0.07411665143412771 10.024788490882386 6.110264708545777 1 0 0
343 1 2.6664740048217057 9.46250156702655 4.696914724622319 0 0 0
341 1 3.0210001149521157 11.997139579648493 3.221023525282275 1 0 0
32 1 10.824082395957815 8.955078348597771 5.096381085864772 0 0 0
687 1 11.903192568418262 11.03114033263325 3.7487353177940737 0 0 0
540 1 16.40301809018856 8.81670531938714 3.239342658612981 0 0 0
333 1 14.672578598369977 11.191128978816087 3.3478680604801903 0 0 0
1115 1 16.180129397150854 12.455333884226789 5.337657997427839 0 0 0
465 1 18.921698012332005 11.834918396444055 5.169201143038412 0 0 0
427 1 22.78615391382257 11.049891744283409 3.3096130404188973 0 0 0
682 1 23.386781281216535 9.742612902169615 5.59187705451061 0 0 0
1534 1 27.799122661579048 9.572912428703104 5.494498373052512 0 0 1
1901 1 27.55139186457506 11.259227042385422 3.3162092768862337 0 0 1
1764 1 35.26589731541431 11.769221015244627 2.9657639860170786 0 0 1
128 1 33.75654015442596 11.051778489399256 5.13430988362657 0 0 0
348 1 37.10544084761983 9.861087704943914 3.8544265843475944 0 0 0
1416 1 39.72797943309743 11.391364221287686 4.915722153201426 0 0 1
463 1 44.322913350876675 10.764286452149422 2.8330007919865747 0 0 0
281 1 43.96968003245375 12.276148205326189 5.405528338531544 0 0 0
388 1 49.11829611993576 10.930081851166062 4.633698415355998 0 0 0
62 1 1.925705084278798 15.906536793428778 4.252380205130467 0 0 0
409 1 3.6008806312667563 13.84801320096249 5.095171822850455 0 0 0
127 1 5.854657466140052 14.973103006291106 4.256379329057341 0 0 0
607 1 7.979250854842528 13.242672075716962 4.998856911159459 0 0 0
439 1 10.651773951191156 13.365505202052134 4.2491872326335995 0 0 0
543 1 20.145437650720172 14.109059551733148 6.413463173227244 0 0 0
302 1 22.29522453088803 14.931174322374138 4.817759624119498 0 0 0
705 1 24.113774030101908 13.607710669893844 3.160359250933332 0 0 0
338 1 26.598377558447478 13.615469179666766 4.1935351417647615 0 0 0
50 1 31.0786317403735 12.004298146582652 5.10432585788696 0 0 0
249 1 30.816336364938902 14.668194258896627 6.135253950619114 0 0 0
119 1 35.07027126552029 14.888075964050726 5.827415998388727 0 0 0
51 1 35.4296233056787 14.328064279007302 3.201522787317427 0 0 0
1835 1 38.07075484985171 15.002181155859027 2.7239312598121628 0 0 1
9 1 40.162523200975755 13.702083575401655 3.5322506929741717 0 0 0
645 1 42.884998693542244 14.64545052174795 4.485590593290249 0 0 0
267 1 48.20701255543291 13.382863128491119 5.704300464035435 0 0 0
575 1 48.82783825371693 15.08179038261362 3.830076870515538 0 0 0
215 1 3.021275511276299 18.311814865900512 3.5697349004066163 0 0 0
81 1 4.595298546006464 18.9782391465783 5.782408036094255 0 0 0
297 1 6.37942013370949 17.17092497981064 6.204966653968998 0 0 0
311 1 9.211014539064411 17.66649067559227 5.804437433023216 0 0 0
142 1 11.347088325299847 15.662847412543751 6.014091199408915 0 0 0
376 1 13.824912358134227 16.50912922849934 5.76653836113614 0 0 0
1869 1 18.824171821820336 17.299421973478065 3.7224970744239316 0 0 1
3 1 18.197129825338322 15.923043641123947 6.161058530511429 0 0 0
501 1 23.622913142236413 17.423309695056332 5.630587427884468 0 0 0
2355 1 29.050002873756323 16.863142756593742 4.860025997400928 0 0 0
1485 1 31.260949190127995 17.936026548458027 3.561178979966752 0 0 1
2596 1 37.69007893036617 17.385587038378116 4.188487568867583 0 0 0
1425 1 40.199859346453394 17.96815721900156 4.9537925110927254 0 0 1
514 1 47.845669175355624 17.736405440616945 3.3792088345761346 0 0 0
139 1 0.7069405005092646 19.940843041848726 3.268892903307397 0 0 0
2316 1 -0.37807927575138733 20.463816025928733 5.5872541491872845 0 0 0
340 1 5.50952447488654 21.320185095964177 4.676551320145972 0 0 0
136 1 9.258850297355737 18.895005191922277 3.066961589248775 0 0 0
286 1 12.70648437778117 20.75220920325589 5.184592096816024 0 0 0
352 1 20.249760587024436 19.379599554145617 4.577248520689379 0 0 0
28 1 18.314642206291573 21.07174250364966 5.594783627814786 0 0 0
2633 1 21.90716760910713 19.09435974364453 6.867947947755085 0 0 0
678 1 25.773399780927274 18.860186068283905 4.764939751973252 0 0 0
1430 1 24.387410447531643 21.418833158316012 4.462986590122911 0 0 1
303 1 27.777131646405607 18.912546179070823 6.451713291467231 0 0 0
448 1 28.979937608220247 21.147938156196687 5.327712836830961 0 0 0
508 1 32.73103278010727 18.50161239009737 6.090663632777034 0 0 0
2327 1 37.10873961386481 19.603337845013815 2.491290929061095 0 0 0
2567 1 35.85200962246928 20.9485664053205 4.63963082557288 0 0 0
1899 1 45.55819868491071 19.656845243141035 4.155064655843009 0 0 1
1849 1 46.92280002000413 22.027350708315932 3.3100585586038758 0 0 1
344 1 1.2087208869762727 22.73140665010229 3.1872618618680817 0 0 0
2559 1 3.333681594025947 22.893282276742706 4.7686662405379066 0 0 0
99 1 13.285013397920492 22.708826256778146 14.839805387500537 0 0 0
238 1 7.456254356397423 24.29013458220555 5.482204826598023 0 0 0
1925 1 9.859059048106582 23.913520204875116 4.368109797244595 0 0 1
170 1 10.91479407949748 22.255756437718215 6.410290618769664 0 0 0
2504 1 14.107497773999041 23.06014038322005 4.785750581034144 0 0 0
4071 1 12.494076272610291 24.405157402388465 2.94294075844518 0 0 1
1544 1 16.6064821263295 22.41071995989599 3.8346033448012555 0 0 1
751 1 44.393697778280014 22.798513743005305 14.179637775833088 0 0 0
337 1 41.436615312303175 22.529960016878302 15.39708032260268 0 0 0
2626 1 26.84537702583524 22.687538648078302 4.727508062020662 0 0 0
296 1 26.101619865188148 12.335663820878185 -0.4033593290265556 0 0 0
2118 1 33.87782202444413 22.417260042949653 3.9188166168845466 0 0 0
111 1 4.639852603792228 15.00105905373696 16.200010579066575 0 0 0
3915 1 38.3054647915862 22.22429008837213 5.881215892574526 0 0 1
3313 1 10.764593496099685 0.2798772151853246 16.127869074770917 0 1 0
2141 1 43.26300280851558 21.90015629551806 3.972123109515379 0 0 0
2553 1 45.14463256021321 23.995446801686807 4.050551084143104 0 0 0
2241 1 50.38827469276556 24.233912162352258 3.3906222489054922 0 0 0
631 1 49.025850118300696 22.317977425110655 5.0911641029886665 0 0 0
2726 1 1.485055859420855 0.06822379949531954 6.034956030224789 1 1 0
2784 1 1.5719619634560629 2.377793817145906 7.619017274449462 0 1 0
2674 1 5.928991812338623 2.393749034479942 7.652164613840203 0 1 0
1618 1 24.232084114192492 22.502478575773335 0.2238292649698479 0 0 1
53 1 8.673551494993578 2.0963656431744817 7.990467692967183 0 0 0
3679 1 12.800198799714929 0.44151862232022143 6.518891528713836 0 1 1
2324 1 32.83986353892695 22.517444381804268 14.315443567228789 0 0 0
97 1 14.316656865215153 3.005275780866014 9.805413040661367 0 0 0
630 1 17.12193357176856 0.06607753024205087 8.603516152348737 0 0 0
2750 1 22.290959412978548 0.5803209550125101 7.351352179307582 0 1 0
1693 1 30.963005922504504 24.105760710656273 3.8834854735000155 0 0 1
1426 1 31.11125727878613 -0.2639594333885764 4.728745995763108 0 0 1
2174 1 27.863232191485054 2.9611809640207807 7.723413151013613 0 1 0
1067 1 26.044436697841352 24.755766700253552 13.924778400624652 0 0 0
451 1 34.620619585988095 0.7511019860654118 7.106585219320778 0 0 0
1567 1 37.23490780438503 1.1146258055835057 6.868712211181795 0 0 1
285 1 38.610167899773344 0.30133822655570863 9.169962997910558 0 0 0
2481 1 41.32310659972836 0.8414685499323482 8.457125357833602 0 1 0
435 1 46.852035193337215 0.90024493493292 6.1856503678569705 0 0 0
671 1 50.322319900802185 2.79288532374451 8.554886498558403 0 0 0
1911 1 2.473124456783064 4.374374387115598 6.077389492922549 0 0 1
686 1 5.781110193637907 5.070112009451452 8.237015643758895 0 0 0
55 1 7.86729267409414 6.250787448112046 7.01803298260799 0 0 0
100 1 13.757035588283427 2.9254156949822456 7.086714398858456 0 0 0
321 1 12.128528632758783 4.996534639855774 6.391532837869759 0 0 0
2300 1 18.269555485641224 2.0775807563123796 6.951381754715074 0 1 0
1262 1 18.932831925308378 4.04282487303445 8.660820483279318 0 0 0
389 1 21.628617989432797 4.983075273625353 8.09298568118352 0 0 0
580 1 25.423980377636145 3.3779330361995106 6.572018283479547 0 0 0
534 1 23.37770017346956 2.859373877158794 8.352562863432553 0 0 0
21 1 30.806737240715265 3.386438949366534 7.1546617839882165 0 0 0
2069 1 35.250651992178305 5.283694762367468 6.878875709181363 0 0 1
425 1 37.610319898407596 3.6385367831015687 6.643036327843388 0 0 0
255 1 39.33125197578872 4.749397788346277 8.360428103540366 0 0 0
123 1 43.02860732620444 4.409821788836853 5.9425128384758645 0 0 0
290 1 41.64890991660495 3.594776422121745 8.351008806887508 0 0 0
256 1 45.93408101507828 3.903213106356728 7.53303816573932 0 0 0
553 1 48.46847044177177 3.372831804099933 6.66874242150591 0 0 0
502 1 -0.34988448215258705 7.488553970628116 7.3340341275278496 0 0 0
496 1 4.6710427715142036 8.543367926038995 6.166934648697184 0 0 0
222 1 3.6345662133472922 6.38227614208586 7.352192463497074 1 0 0
48 1 9.214662982202327 7.784889310728998 8.79741876703025 0 0 0
198 1 11.48811500812911 5.996705178921259 8.915055512340725 0 0 0
558 1 16.580985037842456 6.38667428308998 6.203515502275531 0 0 0
639 1 17.13938680259719 5.888524038151547 8.844395174103235 0 0 0
2431 1 21.70786080143833 7.596163405638691 9.448370327554814 0 1 0
113 1 25.813690473865062 7.315990288636896 8.376284545833952 0 0 0
620 1 28.189734145371393 6.529573174371194 9.307241650094138 0 0 0
576 1 29.727521191410172 6.109007596167281 6.995582795759974 0 0 0
206 1 31.731617867388845 8.229253775317726 7.467624422347546 0 0 0
202 1 36.211084973138654 7.840464101943933 5.777562726352954 0 0 0
322 1 37.272885477909384 8.768484130290245 8.130271148938363 0 0 0
2532 1 39.74431439586108 7.489971334409901 8.49498436659489 0 1 0
393 1 44.31645063912444 6.635784900050893 7.116271311033107 0 0 0
570 1 41.836486896558924 8.648560767826671 7.222290935348822 0 0 0
401 1 47.846387749108786 8.906851139235933 6.265784111757195 0 0 0
394 1 48.35800440460801 6.34187076300665 7.586450426693823 0 0 0
609 1 0.5454771948992694 11.86147319376806 8.035350242164503 1 0 0
447 1 5.315384313784617 10.623515021782456 7.708609202518618 0 0 0
476 1 7.931925063933294 11.762266363197407 7.384578809438233 0 0 0
316 1 10.36039532134021 9.93443567383323 7.592775091089306 0 0 0
563 1 12.818664782373196 10.924191514117972 8.524594998626904 0 0 0
373 1 15.128630078919281 10.57282452455543 7.089992084133878 0 0 0
70 1 17.389744813250964 10.33764574467036 8.488598174491248 0 0 0
561 1 19.312868812362087 9.534935108963273 6.877013995044266 0 0 0
317 1 21.94543278174094 9.832436228666971 7.84986645279001 0 0 0
2162 1 21.888150876505474 11.744050696633973 9.7902799830175 0 1 0
413 1 25.690919798679406 9.87711960167268 7.173098043398728 0 0 0
452 1 26.13798329638726 12.021570140049192 8.710074158570002 0 0 0
650 1 29.20343467484992 11.892052671664668 9.194813701398878 0 0 0
2000 1 30.185341153703334 10.288029184388895 6.948845449499321 0 0 1
52 1 37.36954114175279 11.200357856383498 6.700591090594213 0 0 0
273 1 41.73687106985051 11.274285722985514 6.878313327653279 0 0 0
703 1 44.00634369946059 9.507899106905926 8.995267845676484 0 0 0
339 1 46.46706363380315 10.557165073266955 8.005751306884358 0 0 0
263 1 3.371855969267946 12.797268171976818 7.64609957033047 0 0 0
398 1 3.7174877514896654 15.032627411842329 9.29224080420045 0 0 0
615 1 8.199342899364936 13.90383577994755 9.052008075171097 0 0 0
706 1 10.49117364617321 15.310323158338399 8.80658994650414 0 0 0
31 1 15.704506972017029 14.672920955749243 6.78269110256969 0 0 0
135 1 15.498538329079135 14.534762783326197 9.333100188824204 0 0 0
424 1 20.010088094163123 13.663854922925934 9.142533924265503 0 0 0
272 1 17.364886545837816 12.688515399684407 10.004873116374691 0 0 0
60 1 26.546247827305564 13.955283970655291 6.950580838049248 0 0 0
1632 1 28.881294746478492 14.757236864230107 8.149369220313762 0 0 1
266 1 34.99181244657238 12.38125312050651 7.093824191789538 0 0 0
16 1 39.726499921183276 12.282173207779593 8.807586596824407 0 0 0
500 1 39.621158679436974 15.047014339235835 8.312462566414787 0 0 0
294 1 45.954005676129285 13.052918914409073 7.150124636299637 0 0 0
332 1 45.01713025563855 15.681139679274139 8.043598538450773 0 0 0
637 1 49.99627792610492 13.926083466835316 7.552947080192139 0 0 0
278 1 0.23688912242014493 16.28563630058275 6.536392853064515 0 0 0
602 1 1.6145554794192116 16.791252361594786 9.019369003463874 0 0 0
429 1 6.149736556106036 15.887982988058575 8.717555467975906 0 0 0
449 1 13.493738015195754 18.63073395687081 9.44462471456422 0 0 0
548 1 19.68391339814797 17.54014927715862 8.119835408910397 0 0 0
554 1 20.642658357727534 16.02167554622518 10.321292504281667 0 0 0
153 1 24.871743177941074 16.044633214700053 7.680184097341256 0 0 0
1637 1 26.285932012439144 17.831165344859887 8.68954084182162 0 0 1
480 1 32.79120659213599 15.962296769050983 7.119816155871345 0 0 0
2253 1 36.3614285202505 16.94994452575999 6.676001517508886 0 0 0
531 1 37.64311019757449 16.763268045477272 9.302270934939841 0 0 0
529 1 41.416533743070644 16.007317489447505 6.190424578539148 0 0 0
669 1 43.254856896281694 17.674423422847998 7.578557419988909 0 0 0
214 1 49.402771379965074 18.064160404947074 5.979091087900932 -1 0 0
284 1 48.43450292377911 18.247815444488847 8.552566617248976 -1 0 0
647 1 0.983414013485572 21.256366721256438 7.851152785673284 0 0 0
648 1 2.9109178120961112 19.234119496916314 8.26700422519858 0 0 0
2310 1 9.304657030417594 20.101370704534187 7.168581925083896 0 0 0
251 1 14.16517592882055 19.171111760269643 6.811313064318864 0 0 0
205 1 16.37590034819733 20.74054562768092 7.512327879420338 0 0 0
421 1 17.6496508759014 19.21464658463047 9.09682048128744 0 0 0
2558 1 22.771511961130408 21.768981458081235 6.6389993140408965 0 0 0
2338 1 25.994798327119934 20.43050713937657 9.98215653360856 0 0 0
192 1 31.354049689607837 20.818706978779822 7.041359266194587 0 0 0
636 1 35.121942871200105 19.235122088874594 6.568377467501639 0 0 0
907 1 35.805381616892404 20.384163514907684 8.89871923857774 0 0 0
191 1 40.16213471478176 20.336586693132865 6.636614517693828 -1 0 0
232 1 40.04352796665661 19.846190859542293 9.332125882311361 0 0 0
661 1 42.85126492880683 21.599013485537977 6.6960346645142605 0 0 0
1437 1 44.46948922873099 19.751777929817855 6.4962128103432715 0 0 1
485 1 46.463075693186795 20.458569678609194 8.395451917312082 0 0 0
186 1 2.2216387992788866 23.737428956135325 7.180546405681054 0 0 0
331 1 4.032202163029663 24.683936654500574 8.993004800430816 0 0 0
1577 1 7.253808132790389 21.899026893773307 6.8663588756645675 0 0 1
528 1 5.559976738589469 22.33447200691465 8.99214016040586 0 0 0
2685 1 10.803977824323367 24.384775782956506 8.414690811729566 0 0 0
2604 1 13.755926154284085 24.535264486165172 7.237089088005629 0 0 0
549 1 15.253631322061583 22.776586698855077 8.859938955059503 0 0 0
454 1 20.274017033022197 23.092957743454498 6.67316775583626 0 0 0
2745 1 20.429071949988902 23.36960773951312 9.625880201015727 0 0 0
1602 1 24.372544591558082 22.35069843749306 8.838087615869307 0 0 1
2569 1 26.13873150511011 23.882626079407693 7.1282426043328195 0 0 0
683 1 12.388184269434634 -0.45758895527868926 4.008385618298807 0 0 0
2565 1 29.79052944273271 23.207613306677704 8.888050525122775 0 0 0
2351 1 32.618921147286784 23.013066049092327 6.425256802537593 0 0 0
46 1 42.78702315194603 14.734951045601779 0.35162078565725063 0 0 0
361 1 37.125402404921005 22.939585042948497 8.283501624679973 0 0 0
2683 1 43.40753875169527 24.13776203926842 7.558370805646604 0 0 0
377 1 47.6280897984649 22.881761918864832 7.313866014701235 -1 0 0
2451 1 45.97685601401733 24.984032503881096 6.621749554987961 0 0 0
2455 1 49.14273509694813 24.093935403903917 9.624870595203399 0 0 0
2225 1 -0.00038547519222498217 0.9557491903706639 12.233835383809847 1 1 0
578 1 2.5116980812184444 0.18413218051987001 11.309744060584677 0 0 0
193 1 3.4142156737203235 2.12075688039412 9.821870703637906 0 0 0
375 1 7.709526474248555 0.1658003903826445 11.638287716682555 0 0 0
18 1 5.793588247119438 0.1725502271999284 9.58906323032414 0 0 0
2678 1 31.71179651383736 -0.0647097796728977 0.5643379498530059 0 1 0
2583 1 11.931823832539001 2.715695493881151 11.072498893863836 0 1 0
66 1 15.656119119098967 0.7931913124095551 10.695969253260897 0 0 0
461 1 20.318233624861605 0.6662969141773227 8.942381961951881 0 0 0
3326 1 22.71947336442657 1.7126360277058281 12.403940632468293 0 1 0
2778 1 26.529029547665804 0.4870711828189267 10.80635262240817 0 1 0
89 1 28.286226028730983 -0.1252915568072449 12.581259769482795 0 0 0
2681 1 34.593627762787136 1.319901666425599 11.583511866753 0 1 0
241 1 37.30193535320156 1.5723081986235456 11.21368619170315 0 0 0
489 1 42.76170091845161 0.28462375245259286 10.899451013436565 0 0 0
567 1 42.41086094631136 2.5328006720395684 12.27201962541519 0 0 0
314 1 47.0501473769707 1.729952299263437 11.3977397968298 0 0 0
137 1 33.760884565717944 20.042235536698925 15.616090705016916 0 0 0
313 1 49.3062094668673 0.6430046040974355 10.314083867557098 0 0 0