
# Create simulation box of size 50 x 50 x 50 Angstrom
#
lattice	            sc 1
Lattice spacing in x,y,z = 1.0000000 1.0000000 1.0000000
region 	            all block 0 50 0 50 0 50 units box
create_box          1 all
Created orthogonal box = (0.0000000 0.0000000 0.0000000) to (50.000000 50.000000 50.000000)
  1 by 2 by 3 MPI processor grid

# fill box with 4175 randomly distributed atoms
#
create_atoms        1 random 4175 63782 all
Created 4175 atoms
  create_atoms CPU = 0.001 seconds
mass                1 18.015

# Define potential
#
pair_style          sw
pair_coeff          * * ML_mW.sw mW
Reading sw potential file ML_mW.sw with DATE: 2019-02-27

# Run minimization
#
minimize            1.0e-8 1.0e-8 10000 1000
WARNING: Using 'neigh_modify every 1 delay 0 check yes' setting during minimization (../min.cpp:187)
Neighbor list info ...
  update every 1 steps, delay 0 steps, check yes
  max neighbors/atom: 2000, page size: 100000
  master list distance cutoff = 6.0032907
  ghost atom cutoff = 6.0032907
  binsize = 3.0016454, bins = 17 17 17
  1 neighbor lists, perpetual/occasional/extra = 1 0 0
  (1) pair sw, perpetual
      attributes: full, newton on
      pair build: full/bin/atomonly
      stencil: full/bin/3d
      bin: standard
Per MPI rank memory allocation (min/avg/max) = 4.255 | 4.258 | 4.261 Mbytes
Step Temp E_pair E_mol TotEng Press 
       0            0    7792709.3            0    7792709.3    5898794.3 
     630            0   -45180.336            0   -45180.336   -154.07449 
Loop time of 1.14688 on 6 procs for 630 steps with 4175 atoms

97.8% CPU use with 6 MPI tasks x no OpenMP threads

Minimization stats:
  Stopping criterion = max force evaluations
  Energy initial, next-to-last, final = 
      7792709.32924461  -45180.0188663597   -45180.336116598
  Force two-norm initial, final = 2.0191930e+08 4.9721331
  Force max component initial, final = 1.0948746e+08 0.73126211
  Final line search alpha, max atom move = 0.053306038 0.038980685
  Iterations, force evaluations = 630 1000

MPI task timing breakdown:
Section |  min time  |  avg time  |  max time  |%varavg| %total
---------------------------------------------------------------
Pair    | 0.90468    | 0.98598    | 1.0496     |   4.6 | 85.97
Neigh   | 0.024156   | 0.024595   | 0.024985   |   0.2 |  2.14
Comm    | 0.052737   | 0.11626    | 0.19789    |  13.5 | 10.14
Output  | 0          | 0          | 0          |   0.0 |  0.00
Modify  | 0          | 0          | 0          |   0.0 |  0.00
Other   |            | 0.02005    |            |       |  1.75

Nlocal:        695.833 ave         704 max         685 min
Histogram: 1 1 0 0 1 0 0 1 0 2
Nghost:        1494.17 ave        1515 max        1468 min
Histogram: 1 1 0 0 0 0 1 1 1 1
Neighs:        0.00000 ave           0 max           0 min
Histogram: 6 0 0 0 0 0 0 0 0 0
FullNghs:      19997.0 ave       20462 max       19320 min
Histogram: 1 1 0 0 0 0 0 2 0 2

Total # of neighbors = 119982
Ave neighs/atom = 28.738204
Neighbor list builds = 26
Dangerous builds = 0

# Add velocity/set timestep
#
velocity            all create ${TEMP} 120598 rot yes dist gaussian
velocity            all create 205 120598 rot yes dist gaussian
timestep            5.0

# Define output
#
compute	            1 all msd
thermo	            100
thermo_style        custom step temp press vol etotal ke pe c_1[4] density

# Neighbor lists
#
neigh_modify        delay 0 every 1 check yes

# Set fixes
#
fix                 1 all momentum 10 linear 1 1 1 rescale
fix                 2 all nve
fix                 3 all temp/csvr ${TEMP} ${TEMP} 500.0 928347
fix                 3 all temp/csvr 205 ${TEMP} 500.0 928347
fix                 3 all temp/csvr 205 205 500.0 928347
fix                 4 all press/berendsen iso ${PRES} ${PRES} 1000.0 modulus 20000
fix                 4 all press/berendsen iso 300 ${PRES} 1000.0 modulus 20000
fix                 4 all press/berendsen iso 300 300 1000.0 modulus 20000

# Run 0.5 ns equilibration
#
dump                1 all custom 1000 eq.${NAME}.dump id type x y z vx vy vz
dump                1 all custom 1000 eq.liquid_density_MLmW.dump id type x y z vx vy vz
run                 100000
Per MPI rank memory allocation (min/avg/max) = 3.506 | 3.508 | 3.511 Mbytes
Step Temp Press Volume TotEng KinEng PotEng c_1[4] Density 
     630          205    778.67162       125000   -42629.746    2550.5897   -45180.336 2.7295415e-33   0.99914793 
     700    131.29954    234.38096    125188.19   -41848.722    1633.6159   -43482.338   0.23490181   0.99764598 
     800    164.24014    125.51587    125109.07       -41149    2043.4596    -43192.46   0.55337385   0.99827688 
     900    182.00091    500.52189    124925.78   -40756.617    2264.4373   -43021.054    0.9356433   0.99974152 
    1000    192.16141    396.21082     125024.4    -40515.27    2390.8533   -42906.124    1.2816912   0.99895292 
    1100    198.53605    457.71526    124860.95   -40356.689     2470.166   -42826.855     1.647124    1.0002606 
    1200    197.33981    395.77824    124920.93   -40394.361    2455.2824   -42849.644    1.8976787   0.99978033 
    1300    198.38314    178.99566    125044.64    -40372.44    2468.2634   -42840.704     2.167931   0.99879123 
    1400    198.80901    220.07961    124910.67   -40398.982     2473.562   -42872.544    2.5069331   0.99986249 
    1500    200.47433    190.77404    124847.52   -40365.551    2494.2818   -42859.833    2.7656105    1.0003683 
    1600    204.09621    89.334776    124735.46    -40285.42    2539.3448   -42824.765    3.1269176    1.0012669 
    1700    204.23099    369.14484     124720.6   -40319.789    2541.0218   -42860.811    3.4609417    1.0013862 
    1800    203.23336     381.7349    124498.69   -40414.822    2528.6093   -42943.431    3.7407036    1.0031711 
    1900    202.90949    239.00798    124512.06   -40423.155    2524.5798   -42947.735    3.9429917    1.0030634 
    2000     202.8607    258.33877    124762.68   -40393.692    2523.9727   -42917.665    4.2424452    1.0010485 
    2100    207.59772    411.23331    124841.19   -40366.349    2582.9103   -42949.259    4.6525597    1.0004189 
    2200    210.56396    421.97465    124937.01   -40411.239     2619.816   -43031.055    4.8945389   0.99965167 
    2300     207.3553    421.93974    125090.73   -40418.926    2579.8941   -42998.821    5.2712434   0.99842324 
    2400    205.00337    485.46461       125341    -40440.05    2550.6317   -42990.682    5.4577904   0.99642968 
    2500    205.66829    443.49539    125415.73   -40409.868    2558.9046   -42968.772    5.7233112   0.99583595 
    2600    211.18795     191.4672    125494.48   -40370.903    2627.5796   -42998.483    6.0297994   0.99521105 
    2700    209.25615    332.48661    125681.87    -40401.79    2603.5443   -43005.334      6.39767   0.99372718 
    2800    207.36399    276.18533    125856.18   -40390.153    2580.0023   -42970.155     6.561489   0.99235088 
    2900     210.6406    267.55157    125829.21   -40463.677    2620.7695   -43084.447    6.7561831    0.9925636 
    3000    207.08135    404.30822    125753.95   -40509.505    2576.4857    -43085.99    6.8938097   0.99315759 
    3100     208.5841    292.02767    125765.24   -40491.043    2595.1827   -43086.225    7.0016529   0.99306846 
    3200    205.82303    297.20221    125932.48   -40539.605    2560.8297   -43100.435    7.2585223   0.99174963 
    3300    206.04215    340.18854    126048.29     -40541.2    2563.5561   -43104.756    7.6115883   0.99083841 
    3400    205.16462    329.73699    126113.57   -40569.387     2552.638   -43122.025    7.8732502   0.99032556 
    3500    205.25508    388.89129    126146.84   -40615.521    2553.7634   -43169.284    8.1764878   0.99006438 
    3600    202.97724     481.4047    126461.07   -40665.219    2525.4228   -43190.641    8.3474076   0.98760425 
    3700    200.92651    296.11092    126493.79   -40736.292    2499.9077     -43236.2    8.5340195   0.98734881 
    3800    200.48234    265.24904    126507.81   -40690.419    2494.3814   -43184.801    8.6624511   0.98723941 
    3900    201.30664    262.54951    126385.66   -40724.206    2504.6374   -43228.844    8.8376935   0.98819349 
    4000     206.8272    209.60085    126495.87   -40727.528    2573.3235   -43300.851    9.0142616   0.98733259 
    4100    202.43776    209.16418    126687.24   -40712.881    2518.7106   -43231.592    9.3317105    0.9858411 
    4200    208.74259    289.40057    126666.52   -40747.167    2597.1546   -43344.322    9.5365396    0.9860024 
    4300     206.2692    259.49514    126485.88    -40765.95     2566.381   -43332.331    9.7301611   0.98741055 
    4400    205.17171    351.69066    126650.72   -40763.871    2552.7261   -43316.597    9.8236195   0.98612536 
    4500    201.86551     255.9887    126704.17   -40775.142    2511.5907   -43286.733    10.011886   0.98570943 
    4600    200.97389    357.49052    126825.47   -40823.515    2500.4973   -43324.013     10.16954   0.98476661 
    4700     208.4261    385.19191    126986.41   -40756.384    2593.2169     -43349.6    10.248452    0.9835186 
    4800    203.84265    153.82573    126985.93    -40824.63      2536.19    -43360.82    10.414571   0.98352229 
    4900    209.22751    251.76518    127037.96    -40705.61     2603.188   -43308.798    10.660056   0.98311947 
    5000    209.58463    354.99827    127215.12   -40665.556    2607.6312   -43273.187    10.789742   0.98175038 
    5100    208.85156    300.24996    127156.43   -40747.939    2598.5104   -43346.449    10.810887   0.98220349 
    5200    208.60452    283.26965    127303.24    -40807.73    2595.4369   -43403.167    10.937718   0.98107083 
    5300    205.55778      428.646    127438.92   -40798.429    2557.5295   -43355.959    11.219696    0.9800263 
    5400     208.4863    353.00364    127344.71   -40852.274    2593.9659    -43446.24    11.212874   0.98075135 
    5500     202.0477     199.5846    127283.03   -40865.837    2513.8575   -43379.694    11.360279   0.98122658 
    5600    206.23893    389.05264    127316.02   -40866.555    2566.0044   -43432.559    11.374778    0.9809723 
    5700    204.50053    334.89638    127511.38   -40873.199    2544.3754   -43417.575    11.546124   0.97946937 
    5800    201.92488    290.11553    127501.02   -40901.756    2512.3295   -43414.086    11.645651   0.97954892 
    5900    203.81694    356.31599    127624.38   -40919.747    2535.8703   -43455.617    11.815053   0.97860212 
    6000    205.23134    196.91636     127545.8   -40920.936     2553.468   -43474.404    12.037809   0.97920506 
    6100    205.07748    285.22223    127644.16   -40882.648    2551.5537   -43434.201    12.288389   0.97845049 
    6200    207.03703    390.67843    127626.83   -40954.388    2575.9343   -43530.322    12.318935   0.97858337 
    6300    205.20065    470.41873     127639.4   -40945.888    2553.0862   -43498.974    12.444494   0.97848698 
    6400    206.66771     453.1517     127828.6   -40936.158    2571.3392   -43507.498    12.572902   0.97703869 
    6500    208.15486    239.16686    128041.33   -40903.807    2589.8422    -43493.65    12.759073   0.97541548 
    6600    203.33072    297.87043    128054.83   -40984.177    2529.8207   -43513.998     12.83657    0.9753126 
    6700    202.10309    297.08444    128212.96   -41055.625    2514.5467   -43570.171    12.912904   0.97410974 
    6800    202.75853    364.80441    128291.92   -40993.497    2522.7016   -43516.199    13.031876   0.97351015 
    6900     210.7219    426.07235    128144.76   -40955.838     2621.781   -43577.619    13.165246   0.97462818 
    7000    207.51266    390.98544    128186.91   -40962.178     2581.852    -43544.03    13.275476   0.97430766 
    7100    207.83291    408.76164    128126.12   -40996.327    2585.8365   -43582.163    13.467158   0.97476998 
    7200    206.82548    372.28759    128123.63   -41054.262    2573.3021   -43627.564    13.592787    0.9747889 
    7300    201.67135    409.49001    128410.91   -41106.114    2509.1751   -43615.289    13.605407   0.97260809 
    7400    202.56528    276.79951    128307.94   -41138.881    2520.2972   -43659.179    13.751471   0.97338865 
    7500    203.24615    230.64079    128296.12   -41102.206    2528.7685   -43630.975    13.917662   0.97347834 
    7600    200.70346    140.39207    128348.59   -41177.663    2497.1326   -43674.796    13.945943   0.97308035 
    7700    198.72766    266.73538    128100.93   -41076.943    2472.5499   -43549.493    13.991139   0.97496166 
    7800    206.29333    327.20044     128226.4   -41059.958    2566.6812   -43626.639    13.936863   0.97400762 
    7900    204.97687    430.59287    128271.15   -41129.066     2550.302   -43679.368    14.157318   0.97366784 
    8000    205.91273    227.07603     128102.2   -41107.767    2561.9458   -43669.712     14.27606   0.97495197 
    8100    200.73733     173.1433    127879.31   -41178.416    2497.5541    -43675.97    14.260991   0.97665126 
    8200    202.34385    302.21259    127963.57   -41200.904    2517.5421   -43718.446    14.328249    0.9760082 
    8300    200.91737    418.62264    128130.94   -41183.921     2499.794   -43683.715    14.413926   0.97473324 
    8400    205.29208    302.03913    128164.42   -41144.284    2554.2237   -43698.508    14.416237   0.97447862 
    8500    206.05638    422.02996       127999   -41078.781    2563.7331   -43642.514    14.686899   0.97573806 
    8600    203.70326    128.00987    128235.88   -41096.375    2534.4559   -43630.831     14.80087   0.97393565 
    8700     207.3679    223.81672    128338.71   -41082.379     2580.051    -43662.43    14.946436   0.97315525 
    8800    204.29767    224.43883    128429.56   -41128.234    2541.8515   -43670.085    15.107655   0.97246686 
    8900    198.74658    471.76757    128414.42   -41209.028    2472.7853   -43681.813    15.088659   0.97258155 
    9000    203.29473     375.5025     128581.3   -41150.958     2529.373   -43680.331    15.199634   0.97131925 
    9100    202.28833    263.49589    128655.47   -41207.728    2516.8514    -43724.58    15.247845    0.9707593 
    9200    200.08304    260.57483    128397.44    -41119.96    2489.4133   -43609.374    15.322702   0.97271016 
    9300    204.46225    428.33666    128312.13   -41150.468    2543.8991   -43694.367    15.371348   0.97335688 
    9400    204.11421    355.03671    128300.62   -41097.714    2539.5688   -43637.283    15.493867   0.97344421 
    9500    205.79675    115.02441     128506.6   -41124.719    2560.5029   -43685.222    15.727689    0.9718839 
    9600      204.584    271.73207    128593.29   -41113.118    2545.4139   -43658.532    15.848356   0.97122869 
    9700    205.83953    181.72084    128720.55   -41064.721    2561.0351   -43625.756    15.915268   0.97026847 
    9800    203.55449    304.12825    128735.48   -41142.427    2532.6048   -43675.032     16.06273   0.97015594 
    9900    198.96594    308.09754    128554.25   -41205.852    2475.5146   -43681.367    16.296218   0.97152365 
   10000    202.92238    242.20276    128466.86   -41189.904    2524.7402   -43714.644    16.279976    0.9721845 
   10100    204.24972    295.05245    128416.04   -41155.054    2541.2548   -43696.309    16.117141   0.97256924 
   10200    202.47611    417.08557    128583.62   -41195.542    2519.1877    -43714.73      16.0185   0.97130169 
   10300    199.90515     204.3021    128603.33   -41186.409    2487.2002   -43673.609    16.135225   0.97115284 
   10400    209.56675    443.91086    128775.32   -41129.711    2607.4088    -43737.12    16.262629   0.96985577 
   10500    202.97818    438.39467    129050.64   -41122.975    2525.4344   -43648.409    16.477079   0.96778665 
   10600    209.85165    454.90651    129053.43   -41065.502    2610.9534   -43676.456    16.495981   0.96776576 
   10700    207.99437    370.13776    129285.15   -41064.382    2587.8454   -43652.228    16.758969   0.96603124 
   10800    208.72193    355.10683    129419.09   -41061.799    2596.8976   -43658.696    16.935304   0.96503144 
   10900    206.73222    348.47794    129384.65   -41096.559    2572.1418   -43668.701    16.875541   0.96528833 
   11000     206.5088    175.82547    129151.04   -41083.084    2569.3621   -43652.447    16.730249   0.96703437 
   11100    203.15733    374.89522     129132.5   -41124.104    2527.6634   -43651.767    16.769318   0.96717321 
   11200    206.78893    350.12406    129102.44    -41123.92    2572.8475   -43696.767    16.800609   0.96739838 
   11300     209.3318    353.89521     129139.4   -41128.228    2604.4856   -43732.714    16.863176   0.96712148 
   11400    203.10327     357.9283    129168.66   -41141.731    2526.9908   -43668.721    16.962495   0.96690246 
   11500    205.31978      192.142    129095.73   -41168.051    2554.5684    -43722.62    17.046542   0.96744868 
   11600    202.18144    347.21666    129316.34   -41172.595    2515.5215   -43688.116    17.221784    0.9657982 
   11700    215.42164    372.46076    129447.44   -41082.925    2680.2547   -43763.179    17.402987   0.96482008 
   11800    202.86037     85.42767    129365.59   -41159.338    2523.9687   -43683.306    17.494768   0.96543053 
   11900    205.87554    240.97404    129326.95   -41189.227    2561.4831    -43750.71    17.639351   0.96571899 
   12000    206.03313    379.12347     129272.3   -41198.385    2563.4438   -43761.829    17.788482   0.96612725 
   12100    204.59081    416.17304    129296.29   -41151.077    2545.4986   -43696.576    17.863967   0.96594798 
   12200    202.96274    246.13964    129308.72   -41142.101    2525.2424   -43667.343    17.923189   0.96585512 
   12300    203.79759    275.11587    129256.64   -41161.157    2535.6294   -43696.787    18.056523   0.96624428 
   12400    204.58367    282.98579    129315.37   -41150.034    2545.4098   -43695.443    18.088513   0.96580545 
   12500    204.63744    320.53364    129453.78   -41233.442    2546.0788   -43779.521    18.187612   0.96477284 
   12600    205.42876    323.72793    129601.08   -41151.707    2555.9244   -43707.631    18.137358    0.9636763 
   12700     209.8301    301.85771       129701   -41135.421    2610.6854   -43746.106    18.388537   0.96293393 
   12800    210.43335    252.70195    129698.92   -41110.849    2618.1909    -43729.04    18.484319   0.96294937 
   12900    207.51708    224.88126    129708.72   -41176.643     2581.907    -43758.55     18.57186   0.96287657 
   13000    204.25883    318.77988     129667.4   -41111.311    2541.3681    -43652.68    18.614153   0.96318341 
   13100    210.41487    212.50171    129468.42   -41110.257     2617.961   -43728.218    18.636863   0.96466375 
   13200    210.83492    374.97699    129377.47   -41047.874    2623.1873   -43671.061     18.53564   0.96534191 
   13300    206.15306    286.02749    129489.86   -41101.859     2564.936   -43666.795    18.732056   0.96450406 
   13400     208.4214    357.81409    129371.72   -41185.891    2593.1584    -43779.05    18.809926   0.96538476 
   13500    205.47314    275.83097    129539.88   -41220.318    2556.4765   -43776.794    18.929854   0.96413162 
   13600    203.29207     401.6472    129452.05   -41241.437    2529.3398   -43770.777    19.015058    0.9647857 
   13700    203.52628    89.283084    129568.19   -41233.619    2532.2539   -43765.872    19.104387   0.96392092 
   13800    208.09782    417.57065    129614.59   -41146.519    2589.1325   -43735.652    19.069278   0.96357585 
   13900    201.22196    283.13044    129808.19   -41183.016    2503.5837     -43686.6    19.163056   0.96213877 
   14000    210.64214    377.83577    129707.85   -41180.251    2620.7887    -43801.04    19.388748   0.96288306 
   14100    207.91081    232.98969    129828.07   -41210.082    2586.8057   -43796.887    19.589355   0.96199145 
   14200    205.69186     355.6612    129605.04   -41246.573    2559.1978   -43805.771     19.53443    0.9636469 
   14300    201.59247    265.08429     129825.4   -41309.585    2508.1936   -43817.778    19.671205    0.9620112 
   14400    205.77947    346.66759    129818.09   -41287.426    2560.2878   -43847.714    19.842331   0.96206539 
   14500    204.59238    387.02372    129901.97   -41237.591    2545.5182   -43783.109    19.877009   0.96144413 
   14600    205.10927    261.45112    129874.48   -41245.739    2551.9493   -43797.689    19.955453   0.96164766 
   14700    200.63214    428.58497    129822.81   -41288.156    2496.2452   -43784.401    20.039914   0.96203039 
   14800    204.22238    340.87468    129774.19   -41324.629    2540.9147   -43865.544    20.131225   0.96239086 
   14900    199.81576    173.81538    129827.32   -41387.973    2486.0879    -43874.06    20.204025   0.96199701 
   15000    199.76376     348.5554    129941.18   -41386.936     2485.441   -43872.377    20.282005   0.96115406 
   15100    197.77647    156.61958    129981.14   -41406.811    2460.7153   -43867.526    20.223071   0.96085859 
   15200     203.2214    249.81683    129838.88   -41327.488    2528.4606   -43855.949    20.279646   0.96191135 
   15300    207.66864    454.77031    129756.34   -41343.538    2583.7927   -43927.331    20.313447   0.96252326 
   15400    205.13577    393.04864    130168.08   -41348.845     2552.279   -43901.124    20.648416   0.95947862 
   15500    203.71067    377.64685     130234.2   -41341.999    2534.5481   -43876.547    20.664592   0.95899148 
   15600    206.03642    328.09548    130134.97    -41292.33    2563.4847   -43855.814    20.679733   0.95972276 
   15700    200.24983    76.901887    130189.44   -41384.622    2491.4886    -43876.11    20.703685   0.95932122 
   15800    203.48726    327.84853    130202.94   -41382.698    2531.7684   -43914.466    20.659582   0.95922175 
   15900    203.44242    182.62585    130088.65   -41414.345    2531.2105   -43945.556    20.586218   0.96006448 
   16000    201.24822    313.70432    130041.33   -41358.397    2503.9105   -43862.308    20.733727   0.96041384 
   16100    204.58336    363.80747    130081.34   -41318.417     2545.406   -43863.823    20.857301   0.96011846 
   16200    203.41204    387.80224    130183.26   -41370.516    2530.8324   -43901.349    21.012227   0.95936676 
   16300    201.97883    288.04668    130094.21   -41382.239    2513.0006    -43895.24    20.979219   0.96002343 
   16400    206.57878    228.71176    130154.13   -41293.484    2570.2328   -43863.717    20.907505    0.9595815 
   16500    208.42222    344.28263    130282.19   -41285.162    2593.1687   -43878.331    21.083351   0.95863827 
   16600    204.18144    192.48875    130268.45   -41280.213    2540.4053   -43820.618    21.204581   0.95873935 
   16700    205.51364    218.77526    130214.65   -41312.419    2556.9804     -43869.4    21.225712   0.95913545 
   16800     203.2748    194.40581     130060.2   -41312.806    2529.1249   -43841.931    21.207027   0.96027446 
   16900    208.85682    245.17413     130077.9   -41282.422    2598.5758   -43880.998    21.215011   0.96014379 
   17000    206.17222    306.65971    130217.21   -41316.203    2565.1744   -43881.377     21.53818   0.95911665 
   17100    209.50656    170.88459     130332.6   -41239.735    2606.6599   -43846.395    21.518943    0.9582675 
   17200    208.69693    325.69607    130371.64   -41261.528    2596.5866   -43858.115    21.436216   0.95798049 
   17300    207.58479    210.05588    130458.23   -41330.197    2582.7494   -43912.946     21.44381   0.95734464 
   17400    208.06386    385.00165    130230.23   -41357.908    2588.7099   -43946.618    21.460887   0.95902076 
   17500    206.31309    366.50507    130412.71   -41344.907     2566.927   -43911.834    21.658549   0.95767883 
   17600    209.36575    387.74403     130582.6   -41334.328     2604.908   -43939.236    21.665698   0.95643287 
   17700     202.1807    194.53573    130410.79   -41360.005    2515.5123   -43875.517    21.641811   0.95769291 
   17800    205.44131    184.20616    130467.38   -41366.289    2556.0804   -43922.369    21.611732   0.95727754 
   17900    206.76436    345.13991    130466.69    -41336.31    2572.5418   -43908.852    21.719821    0.9572826 
   18000    209.03618    374.69824    130550.99   -41296.111    2600.8075   -43896.918    21.842806   0.95666443 
   18100    202.69889    376.89121    130551.34   -41397.606    2521.9596   -43919.566    21.890332   0.95666189 
   18200    208.69695    265.97951    130281.96   -41404.968    2596.5868   -44001.555    21.950876   0.95863996 
   18300    207.40148    317.49445    130293.26   -41324.436    2580.4687   -43904.905    22.036242   0.95855678 
   18400    208.18729    320.49796    130338.58   -41387.488    2590.2457   -43977.733    22.012004   0.95822353 
   18500    209.10074    206.61345    130506.54   -41341.219    2601.6108    -43942.83    22.154721   0.95699028 
   18600    203.37583    300.86502    130469.85   -41387.622     2530.382   -43918.004     22.21243   0.95725944 
   18700    208.56296    112.17826    130562.26   -41364.016    2594.9198   -43958.936    22.286823   0.95658188 
   18800    204.60704    249.15154    130547.63   -41348.761    2545.7006   -43894.462    22.362119   0.95668907 
   18900    204.49714    211.57772    130436.47   -41378.178    2544.3332   -43922.512    22.406931   0.95750436 
   19000    206.69103    265.46115    130256.56   -41364.816    2571.6294   -43936.446    22.471324    0.9588269 
   19100    200.88623    365.24846    130339.74   -41426.583    2499.4067    -43925.99    22.604774     0.958215 
   19200    207.73031    345.69457    130517.75   -41401.742      2584.56   -43986.302     22.56284    0.9569081 
   19300    208.40023      229.532    130537.16   -41354.675     2592.895    -43947.57    22.435348   0.95676583 
   19400    208.44597    282.13953    130394.19   -41371.449    2593.4642   -43964.914    22.719229   0.95781481 
   19500    208.19261    241.00613    130528.49   -41374.746    2590.3119   -43965.058    22.759163   0.95682933 
   19600    208.02527     347.5726    130501.24   -41413.092    2588.2299   -44001.322    22.722192   0.95702916 
   19700     208.9978    402.19304    130505.54   -41390.345    2600.3299   -43990.675    22.656295   0.95699762 
   19800    205.90719     253.8762    130603.52   -41426.191    2561.8769   -43988.068    22.679515   0.95627966 
   19900    202.11501    368.18952    130609.68   -41435.537    2514.6949   -43950.232     22.72562   0.95623457 
   20000    204.31489    267.22982    130800.31   -41486.196    2542.0657   -44028.261    22.907725   0.95484096 
   20100     204.6831    182.02758    130738.15   -41456.616    2546.6468   -44003.262    22.932416   0.95529489 
   20200    201.66195    299.99855    130714.68    -41488.25     2509.058   -43997.308    23.111161   0.95546648 
   20300    203.81416    308.09917    130569.28   -41516.093    2535.8356   -44051.929    23.019937   0.95653041 
   20400    204.72885    238.21544    130542.58   -41516.794    2547.2161    -44064.01     23.02394   0.95672608 
   20500    205.19434    280.06735    130595.99   -41480.708    2553.0077   -44033.716    22.997405   0.95633481 
   20600    204.66202     383.6321    130592.95   -41518.939    2546.3847   -44065.324    23.130104    0.9563571 
   20700    208.35137    321.10509    130759.73   -41477.574    2592.2871   -44069.861    23.291272   0.95513727 
   20800    204.87876    410.41921    130715.03   -41491.811    2549.0813   -44040.892    23.420477   0.95546388 
   20900    203.98309    269.61221    130574.51   -41531.161    2537.9374   -44069.098     23.38975   0.95649211 
   21000    203.07928    297.90045    130701.69   -41616.418    2526.6923    -44143.11    23.344317   0.95556142 
   21100    199.53559    328.07918    130814.41    -41628.31    2482.6021   -44110.912    23.331797   0.95473804 
   21200    202.55519    317.24571    130681.78   -41600.424    2520.1716   -44120.596    23.464526   0.95570696 
   21300    198.27231    212.13841    130685.84   -41606.807    2466.8845   -44073.692    23.507276   0.95567729 
   21400    207.32123    380.20178    130840.28   -41573.706    2579.4703   -44153.176    23.592797   0.95454926 
   21500    207.85466    251.14603    130930.15   -41568.268    2586.1071   -44154.375    23.511718   0.95389402 
   21600    205.61077     428.1214    130877.09   -41525.702    2558.1889   -44083.891    23.649003   0.95428077 
   21700    203.48014    197.88254    130862.77   -41504.687    2531.6798   -44036.366    23.889844   0.95438523 
   21800    204.20451    292.92785    130930.54   -41483.995    2540.6923   -44024.688    23.955819   0.95389119 
   21900    207.92755    199.93998    130735.67   -41511.824     2587.014   -44098.838    24.020355   0.95531304 
   22000    204.90339    254.94941    130644.41   -41544.158    2549.3878   -44093.546    23.907127   0.95598037 
   22100    206.11413    212.19415    130690.63   -41484.283    2564.4517   -44048.734    23.928714   0.95564228 
   22200    202.73508    379.58044    130644.76   -41502.294    2522.4098   -44024.704    23.960914   0.95597779 
   22300    206.52265     290.2526    130610.39   -41474.355    2569.5344   -44043.889    24.021918   0.95622935 
   22400    206.93962    327.62601    130573.79   -41450.306    2574.7223   -44025.028    23.966137   0.95649743 
   22500    207.17401    358.13917    130512.51   -41453.212    2577.6386   -44030.851    24.120701   0.95694655 
   22600    208.07152    292.43307    130583.44   -41426.312    2588.8053   -44015.118    24.193157   0.95642671 
   22700    206.26222    305.35905    130664.47   -41423.952    2566.2941   -43990.246    24.200933   0.95583359 
   22800    208.63009    245.59042    130776.39   -41404.726     2595.755   -44000.481    24.325104   0.95501557 
   22900    205.76424    407.27104    130700.49   -41436.906    2560.0984   -43997.004    24.232526   0.95557021 
   23000    208.64924    292.09791    130782.77   -41427.701    2595.9932   -44023.694    24.346134   0.95496899 
   23100    202.41699    168.54085    130909.68     -41533.3    2518.4522   -44051.752    24.642144   0.95404317 
   23200    205.91263     326.3974    130762.39   -41487.817    2561.9446   -44049.762     24.47073   0.95511785 
   23300    203.71696     354.2584    130913.39   -41528.497    2534.6263   -44063.123    24.436361   0.95401621 
   23400    206.17114     307.6801    130981.24   -41465.703    2565.1609   -44030.864    24.474833   0.95352198 
   23500    205.23264    302.02545    131097.81   -41508.365    2553.4842   -44061.849    24.717441   0.95267415 
   23600    208.83287    375.90261    131121.41   -41489.026     2598.278   -44087.304    24.753126   0.95250267 
   23700    204.33804    189.83178    131041.03   -41527.093    2542.3537   -44069.446    24.870122   0.95308691 
   23800    201.30145    189.00176    131084.81   -41586.222    2504.5727   -44090.794    24.707048   0.95276857 
   23900    203.32227    245.84128    131087.76   -41587.988    2529.7156   -44117.704     24.74464   0.95274718 
   24000    206.08339    454.80587    131300.65   -41525.039    2564.0691   -44089.108    24.795406   0.95120238 
   24100    200.12832    261.98357    131167.91   -41528.359    2489.9767   -44018.336    24.949237     0.952165 
   24200    202.37214    280.66129    131249.63   -41589.026    2517.8941    -44106.92    25.081476   0.95157213 
   24300    203.01635    230.47068    131257.92   -41553.264    2525.9094   -44079.174    25.002195   0.95151202 
   24400    196.59032     290.5873    131292.87   -41591.886    2445.9573   -44037.843    25.045979   0.95125877 
   24500    203.88514     276.9205    131342.65    -41552.21    2536.7188   -44088.928    25.183355   0.95089822 
   24600    201.73978    309.71895    131321.09   -41536.549    2510.0264   -44046.575    25.293666   0.95105436 
   24700    204.36766    327.85754    131303.62   -41556.792    2542.7222   -44099.515     25.36504   0.95118088 
   24800    201.66932    393.95417    131465.18   -41547.458    2509.1497   -44056.607    25.265832   0.95001196 
   24900    205.21144    216.98968    131485.47   -41501.601    2553.2204   -44054.822    25.306329   0.94986533 
   25000    209.62436    289.41605    131414.65   -41488.845    2608.1255   -44096.971    25.450835   0.95037724 
   25100    205.47487    346.43637    131240.53    -41489.81    2556.4981   -44046.308     25.58277   0.95163812 
   25200    207.23855    191.01928    131403.09   -41535.516    2578.4416   -44113.958    25.365322   0.95046085 
   25300    203.47621    400.95293    131350.39   -41539.634    2531.6309   -44071.265    25.460646   0.95084216 
   25400    201.71751    273.58157    131379.06   -41527.212    2509.7493   -44036.961    25.555623   0.95063472 
   25500    203.85388    279.21995    131396.96   -41497.564    2536.3299   -44033.894    25.545924   0.95050521 
   25600    205.68152    350.54936    131547.15   -41575.991    2559.0691    -44135.06    25.579799   0.94941999 
   25700    205.14151    201.41983    131520.73    -41599.11    2552.3504    -44151.46    25.691754    0.9496107 
   25800    203.50268    337.68509    131605.43   -41590.432    2531.9602   -44122.392     25.62269   0.94899954 
   25900    205.55861     356.4995    131660.96   -41548.564    2557.5399   -44106.104     25.76255   0.94859927 
   26000    208.05383    293.86802    131647.03   -41498.822    2588.5852   -44087.408    25.745588   0.94869965 
   26100    202.21968    233.72394    131668.39   -41578.271    2515.9973   -44094.269    25.745081   0.94854574 
   26200    206.56605    89.371706    131662.19   -41569.406    2570.0744    -44139.48    25.814969   0.94859039 
   26300    204.85544    434.88936    131660.98   -41543.631    2548.7912   -44092.422     25.85228   0.94859914 
   26400      208.692    324.99398    131658.61   -41537.543    2596.5253   -44134.068    25.844888   0.94861619 
   26500    206.08015    329.90169    131661.25   -41600.775    2564.0289   -44164.804    25.842183   0.94859715 
   26600     203.2225    392.21415    131553.72   -41647.864    2528.4742   -44176.338    25.750121   0.94937256 
   26700    204.21939    305.95844    131641.72   -41674.635    2540.8774   -44215.513    25.970844    0.9487379 
   26800    206.93257    346.16171    131696.12   -41611.969    2574.6346   -44186.603    25.901505   0.94834598 
   26900    201.34937    77.059024    131497.67   -41617.031     2505.169     -44122.2    26.058506   0.94977719 
   27000    200.96888    317.26903    131618.29   -41658.816     2500.435   -44159.251    26.196121   0.94890678 
   27100    204.78587    300.67286     131745.3    -41662.24    2547.9256   -44210.166    26.134101   0.94799201 
   27200    200.76067    397.53275    131734.23   -41670.788    2497.8444   -44168.632    26.126871   0.94807169 
   27300    202.73828    242.87327    131711.81   -41698.206    2522.4497   -44220.656     26.30359   0.94823302 
   27400    206.59618    348.62012    131702.13   -41650.894    2570.4492   -44221.343    26.206596   0.94830278 
   27500      207.928     339.0532     131698.3   -41594.906    2587.0196   -44181.926    26.132689   0.94833034 
   27600    205.84997    350.07183    131728.26   -41618.237    2561.1649   -44179.402    26.325892   0.94811462 
   27700    207.27023    288.86757    131721.82   -41632.743    2578.8357   -44211.579     26.39146   0.94816102 
   27800    208.45536    423.13966    131644.82   -41577.804     2593.581   -44171.385    26.198895   0.94871559 
   27900      207.359    320.03667    131620.06   -41598.453    2579.9401   -44178.393    26.217548   0.94889406 
   28000    203.94312    357.14803    131894.62    -41639.63    2537.4401    -44177.07    26.450016   0.94691875 
   28100    206.97595    481.93145    131832.59   -41616.335    2575.1743   -44191.509    26.571278   0.94736435 
   28200    203.74566    302.30989     131815.8   -41651.293    2534.9833   -44186.276    26.424381   0.94748501 
   28300    202.79915    316.76529    131694.69   -41644.275     2523.207   -44167.482    26.564498   0.94835631 
   28400    201.57004     235.7437    131694.43   -41688.839    2507.9146   -44196.754    26.546179   0.94835822 
   28500    203.40195     375.6019    131808.04   -41717.058    2530.7069   -44247.764    26.591447   0.94754078 
   28600    205.45594     310.6192    132019.97   -41681.223    2556.2625   -44237.486    26.518625   0.94601968 
   28700    203.13095    300.82635    132153.36   -41687.962    2527.3352   -44215.297    26.530312   0.94506484 
   28800    204.14319    320.61353    132052.31   -41666.331    2539.9294    -44206.26    26.528567   0.94578803 
   28900    204.17642    351.73013    132080.23   -41638.001    2540.3428   -44178.344    26.565298    0.9455881 
   29000    201.46372    290.86154    132052.27   -41706.178    2506.5916    -44212.77    26.813107   0.94578827 
   29100    205.04964    250.73657    132088.49   -41657.208    2551.2074   -44208.415    26.876187   0.94552894 
   29200    204.34568    426.27131    132072.71   -41621.516    2542.4488   -44163.965    26.888061   0.94564196 
   29300    204.01634    313.02596    131996.13   -41698.715    2538.3511   -44237.066    26.995203   0.94619054 
   29400    202.82257    237.83149    132192.68   -41751.388    2523.4984   -44274.886    27.026843    0.9447837 
   29500    204.05244    411.62313    132266.76   -41790.955    2538.8003   -44329.755     27.03061   0.94425459 
   29600     205.3617    213.18559    132199.86   -41717.972      2555.09   -44273.062    27.071952   0.94473241 
   29700    204.33656    422.12333    132174.68   -41757.035    2542.3353   -44299.371    27.007051    0.9449124 
   29800    208.04003    290.18214    132179.09    -41727.71    2588.4134   -44316.124    27.142076   0.94488085 
   29900    203.29855    274.43882     132069.7   -41758.184    2529.4205   -44287.604    27.119574    0.9456635 
   30000    206.49717    359.10668    132054.74   -41725.573    2569.2174   -44294.791    27.151826   0.94577061 
   30100     204.1644    427.75732    132142.11   -41723.583    2540.1933   -44263.776    27.312375   0.94514525 
   30200    205.46664    262.21369    132140.13   -41742.736    2556.3956   -44299.131    27.272965   0.94515941 
   30300    206.62537    351.08249    132095.43   -41720.286    2570.8125   -44291.099    27.242102   0.94547929 
   30400    207.49256    282.89177    132303.79    -41702.92    2581.6019   -44284.522    27.114226   0.94399029 
   30500    205.50038     199.1937    132103.31   -41708.327    2556.8154   -44265.143     27.19199   0.94542286 
   30600    203.04133    285.34608    132103.65    -41712.57    2526.2201    -44238.79    27.355666   0.94542044 
   30700    205.38687    406.66572    131992.66   -41714.454    2555.4031   -44269.857    27.292997   0.94621544 
   30800    206.46879    397.48162    132156.93    -41655.08    2568.8643   -44223.944    27.297946   0.94503926 
   30900     206.0007    212.37372    132155.15   -41767.526    2563.0404   -44330.566    27.350145   0.94505203 
   31000    203.16568    144.96985    132332.95   -41798.215    2527.7673   -44325.982    27.424794   0.94378223 
   31100    205.14698    376.31762    132255.41   -41796.268    2552.4185   -44348.686    27.501399    0.9443356 
   31200    202.25941    369.08699     132308.5   -41810.946    2516.4916   -44327.437    27.599021   0.94395664 
   31300     206.8559    268.08754    132357.75   -41771.289    2573.6806    -44344.97    27.416518   0.94360545 
   31400    207.25496    250.93321    132273.23   -41744.325    2578.6457    -44322.97    27.375713   0.94420837 
   31500    200.10678    194.72072    132291.68   -41783.169    2489.7087   -44272.877    27.517449   0.94407666 
   31600    208.42278     297.6597    132370.12   -41713.328    2593.1757   -44306.504    27.503062   0.94351725 
   31700     207.4007    301.66996    132327.15   -41740.866     2580.459   -44321.325    27.677012   0.94382365 
   31800    208.08759    273.65675    132338.97   -41682.969    2589.0052   -44271.974    27.639181   0.94373931 
   31900    205.20065    415.11369     132340.8   -41671.689    2553.0862   -44224.775    27.674058    0.9437263 
   32000    204.33854    255.76813    132373.72   -41670.524    2542.3599   -44212.884    27.672762   0.94349159 
   32100    206.54085    211.21131    132236.39    -41693.53    2569.7608   -44263.291    27.650679   0.94447143 
   32200    207.15805    313.46285    132245.34   -41687.357    2577.4399   -44264.797    27.759423   0.94440749 
   32300       202.08    71.898274    132304.88   -41676.541    2514.2594     -44190.8    27.579569   0.94398253 
   32400    206.03907    248.76863    132295.21   -41734.216    2563.5178   -44297.733    27.768938   0.94405148 
   32500    202.09306    291.70217    132237.46   -41743.073    2514.4218   -44257.495     27.76011   0.94446381 
   32600    205.38788    221.06422    132142.25   -41679.354    2555.4157    -44234.77    27.697939   0.94514426 
   32700    203.23111    171.64435    132140.78   -41731.365    2528.5814   -44259.947    27.654226   0.94515482 
   32800    200.18936    244.82193    132068.41   -41773.222    2490.7362   -44263.958    27.769996   0.94567271 
   32900    206.69702    335.68061    132250.29   -41773.699    2571.7038   -44345.403    27.623992   0.94437215 
   33000    201.72626    351.67732     132290.1    -41818.54    2509.8582   -44328.398    27.949119   0.94408799 
   33100    207.79343    228.53264    132438.03   -41753.316    2585.3453   -44338.662     28.10046   0.94303344 
   33200    202.87958    307.15136    132240.54   -41776.601    2524.2077   -44300.809    28.055825   0.94444181 
   33300    203.78638    299.75227    132281.76   -41714.523    2535.4899   -44250.013    28.115046    0.9441475 
   33400    204.34804    308.67036    132247.94   -41793.962    2542.4782    -44336.44    27.919689   0.94438895 
   33500    203.84877     114.9115    132064.99   -41762.207    2536.2663   -44298.473    27.937798    0.9456972 
   33600    204.16109    432.91081    132246.05   -41727.854    2540.1521   -44268.006    28.024838    0.9444024 
   33700    206.66136    307.11953    132358.34   -41724.934    2571.2602   -44296.194    28.052345   0.94360124 
   33800    207.42503    135.77084    132241.83   -41727.915    2580.7617   -44308.676    28.070265   0.94443256 
   33900    203.63763     358.4973    132222.11   -41735.244    2533.6392   -44268.883    28.123511   0.94457342 
   34000    207.73732    402.55004    132216.97   -41701.016    2584.6473   -44285.663    28.048578   0.94461015 
   34100    203.16269    278.30303    132405.96   -41724.628    2527.7301   -44252.358    27.892241   0.94326182 
   34200    202.98212    243.49158    132457.61   -41732.157    2525.4835   -44257.641    28.051404   0.94289403 
   34300     203.0412     339.4889     132386.5   -41767.788    2526.2186   -44294.007    28.061037   0.94340054 
   34400    204.53681    364.31735    132382.18   -41701.685    2544.8267   -44246.511    28.162966   0.94343128 
   34500    203.00469    267.39553    132388.16   -41735.776    2525.7643   -44261.541    28.265907   0.94338867 
   34600    206.07878    227.79183    132366.97    -41718.04    2564.0118   -44282.052    28.130579    0.9435397 
   34700    201.23289    393.93389    132454.79   -41794.035    2503.7197   -44297.755    28.192864   0.94291412 
   34800    206.62064    250.82153    132261.99   -41777.836    2570.7536    -44348.59    28.005247   0.94428863 
   34900    206.67888    161.19669    132295.75   -41781.541    2571.4782   -44353.019    28.242536   0.94404761 
   35000    198.06136    269.52957    132302.09   -41839.939    2464.2599   -44304.199    28.307705   0.94400241 
   35100    205.57086    187.48332    132284.34   -41781.746    2557.6923   -44339.438    28.330302   0.94412907 
   35200    203.59081     352.2332    132333.33   -41782.647    2533.0567   -44315.704     28.23244   0.94377957 
   35300     205.6629    339.49332    132235.56   -41767.015    2558.8375   -44325.852    28.263327   0.94447733 
   35400    202.48211     192.1669    132166.71   -41783.416    2519.2625   -44302.679    28.458284   0.94496937 
   35500    205.01668     440.0635     132175.1    -41688.71    2550.7973   -44239.507    28.372034   0.94490936 
   35600    205.03605    352.57511    132056.67   -41728.873    2551.0383   -44279.911     28.53757   0.94575682 
   35700     203.8297    370.95274     131997.7   -41691.384     2536.029   -44227.413    28.335226   0.94617931 
   35800    204.31544     365.3802    132024.07   -41718.667    2542.0726   -44260.739    28.351414   0.94599028 
   35900    209.63549    297.25434    132040.47   -41675.718     2608.264   -44283.982    28.491767   0.94587281 
   36000    206.93614    165.93476    132157.64   -41653.629     2574.679   -44228.308    28.594655   0.94503419 
   36100    207.03069    259.54066    132109.41   -41673.885    2575.8554   -44249.741    28.644641   0.94537924 
   36200    204.49745    127.85588    132036.87   -41702.545    2544.3371   -44246.882    28.527344   0.94589863 
   36300    202.19235    245.79272    132045.42   -41749.205    2515.6572   -44264.862    28.550571   0.94583733 
   36400    205.93535    190.21749    131930.44   -41696.749    2562.2273   -44258.976    28.608338    0.9466617 
   36500    203.30199    241.51229     131975.6   -41685.715    2529.4633   -44215.178    28.528782   0.94633775 
   36600    203.60965    412.44868    132010.23   -41802.489    2533.2912    -44335.78    28.584165   0.94608946 
   36700    203.04862    297.25119    132000.43   -41744.667    2526.3108   -44270.978     28.56258   0.94615974 
   36800    207.88258    452.09475    132015.62   -41744.835    2586.4545   -44331.289    28.704173   0.94605086 
   36900     201.7807    195.99775    131953.58   -41769.603    2510.5356   -44280.138    28.902195    0.9464957 
   37000    203.63437    279.56148    131952.45   -41707.987    2533.5986   -44241.585    28.804369   0.94650375 
   37100    205.41301    306.19171    131963.91   -41700.504    2555.7284   -44256.233    28.802619   0.94642161 
   37200    204.97254    209.80036    131966.18    -41747.71     2550.248   -44297.959    28.901334   0.94640533 
   37300    205.10226    415.54218    131916.82   -41752.248     2551.862    -44304.11    28.867285    0.9467594 
   37400      200.862    272.84078    131904.54   -41778.678    2499.1052   -44277.784     28.80634   0.94684759 
   37500    204.33072    125.35736    131774.81   -41783.738    2542.2626   -44326.001    28.913421   0.94777968 
   37600    204.46149    292.59008    131767.97   -41726.786    2543.8896   -44270.676    28.834272   0.94782889 
   37700     200.1382    255.30111    131684.53   -41728.737    2490.0997   -44218.836    29.058723   0.94842946 
   37800    202.18457    397.87852    131832.23   -41820.303    2515.5604   -44335.863    29.040794   0.94736691 
   37900    204.19792    395.46409    131798.21   -41781.471    2540.6103   -44322.081     29.05022   0.94761147 
   38000     203.1007    252.41227     131928.2   -41763.272    2526.9588   -44290.231    28.966201   0.94667778 
   38100    202.81247    251.30159    131878.15   -41723.786    2523.3728   -44247.158     29.07494   0.94703699 
   38200     201.3357    196.11595    131901.18   -41742.064    2504.9988   -44247.063     28.86961   0.94687169 
   38300    210.37653    289.56891    131948.68   -41691.768     2617.484   -44309.252    28.915326    0.9465308 
   38400    207.28454    247.88783    131932.75    -41740.61    2579.0137   -44319.624    29.029574   0.94664509 
   38500    205.78255    231.31105    131958.83   -41756.497    2560.3261   -44316.823    29.194233     0.946458 
   38600    203.51697    315.65049    131983.28    -41709.42     2532.138   -44241.558    29.143244   0.94628269 
   38700    201.99183    182.26138    131894.74   -41715.341    2513.1624   -44228.503    29.240437   0.94691792 
   38800    203.12909    402.49376    131831.13   -41734.771     2527.312   -44262.083     29.33158   0.94737481 
   38900    205.90474    248.17649    131912.77   -41687.005    2561.8464   -44248.852    29.405495   0.94678847 
   39000    205.58024    358.59094    131831.35   -41735.091     2557.809     -44292.9    29.301696   0.94737322 
   39100    204.11521    326.78169    131936.77   -41694.069    2539.5813    -44233.65    29.199837   0.94661627 
   39200    201.38284    284.07012    131892.22    -41707.84    2505.5853   -44213.425     29.29508   0.94693601 
   39300    208.51326    193.39134    131767.37   -41693.633    2594.3013   -44287.934    29.474189   0.94783325 
   39400    209.57501    292.84126    131761.69   -41656.546    2607.5115   -44264.058    29.364475    0.9478741 
   39500    203.91743    295.37234    131651.91   -41633.133    2537.1205   -44170.254    29.300625   0.94866449 
   39600    203.29871    241.22785    131653.93   -41668.916    2529.4224   -44198.339    29.476841   0.94864994 
   39700    206.45623    418.72559    131670.71    -41606.82    2568.7081   -44175.528    29.442508   0.94852902 
   39800    207.17945    314.24534    131716.52   -41658.423    2577.7063   -44236.129    29.521709   0.94819916 
   39900    203.16668    286.09246    131572.24   -41701.004    2527.7798   -44228.784    29.581587   0.94923891 
   40000     200.3252     398.1911    131626.16   -41719.665    2492.4263   -44212.091     29.65666   0.94885005 
   40100    204.96165    194.46814     131649.6   -41626.114    2550.1126   -44176.226    29.718799   0.94868114 
   40200    203.79462    347.21947    131749.94   -41653.318    2535.5925    -44188.91    29.627116    0.9479586 
   40300    205.77278    300.32448    131768.18   -41626.321    2560.2046   -44186.525    29.573838    0.9478274 
   40400    210.60778    403.96469    131677.88   -41553.494    2620.3611   -44173.856    29.578245   0.94847735 
   40500    207.97739    272.17665    131713.85   -41557.235    2587.6341   -44144.869    29.729836   0.94821835 
   40600    208.64583    261.90212    131638.52   -41608.341    2595.9508   -44204.292    29.817172   0.94876101 
   40700    206.04919     453.3308    131801.05   -41667.869    2563.6436   -44231.513    29.929435   0.94759102 
   40800    204.05955    286.32351    131908.94   -41721.924    2538.8887   -44260.813    30.040474   0.94681596 
   40900    202.51017    325.43063    131891.82   -41757.584    2519.6115   -44277.196    29.893496   0.94693886 
   41000    202.74667    185.09072    131990.74   -41677.445     2522.554   -44199.999    30.163078   0.94622919 
   41100    206.00218    203.08705     131767.3   -41660.316    2563.0588   -44223.375    30.126645   0.94783371 
   41200    204.65267    298.69246    131816.36   -41666.433    2546.2683   -44212.701    30.072731   0.94748099 
   41300    200.12976    289.07154    131733.63   -41813.659    2489.9947   -44303.654    30.020758   0.94807597 
   41400    202.71551    321.06943    131714.36   -41765.616    2522.1663   -44287.782    29.951693   0.94821468 
   41500    200.37057    423.35293    131884.79   -41774.444    2492.9908   -44267.435    30.045615   0.94698938 
   41600    203.50869     291.9109    131971.23   -41742.141     2532.035   -44274.176    30.013165   0.94636908 
   41700    205.60358     407.8779    132019.63   -41724.545    2558.0994   -44282.644    30.080188   0.94602211 
   41800    203.70191    149.56538    131989.79   -41736.839     2534.439   -44271.278    30.067559   0.94623597 
   41900    204.30895     162.7123     131868.7   -41714.563    2541.9918   -44256.555    30.106429   0.94710493 
   42000    204.07824      292.436    131816.08   -41711.088    2539.1213   -44250.209    30.138202     0.947483 
   42100    207.55404    330.89226    132028.83   -41701.147    2582.3668   -44283.514    30.097282   0.94595619 
   42200    209.51122     305.0678    131902.64   -41659.432    2606.7179    -44266.15     30.19372   0.94686122 
   42300    201.82841    282.31819    131890.28   -41639.764    2511.1291   -44150.893    30.254824   0.94694992 
   42400     206.0313    287.69179    131967.61   -41687.945    2563.4211   -44251.366    30.307878   0.94639507 
   42500    207.93175    459.23999    132008.04   -41694.667    2587.0663   -44281.734    30.425823   0.94610521 
   42600    205.40966    330.38826    132036.56   -41714.605    2555.6867   -44270.292    30.442426    0.9459008 
   42700    203.42135    205.28733    132087.19   -41723.998    2530.9484   -44254.947    30.476947   0.94553824 
   42800    207.39391    442.53091    132092.52   -41680.651    2580.3745   -44261.026    30.528741    0.9455001 
   42900    204.94782    309.56923     132103.2   -41748.161    2549.9406   -44298.102    30.703513   0.94542368 
   43000    205.57641    282.91935    132087.62   -41763.694    2557.7614   -44321.455    30.796644   0.94553515 
   43100    203.84827     329.2175    132094.29   -41742.711      2536.26   -44278.971    30.795468   0.94548746 
   43200    207.35745    261.43341    132087.38    -41709.77    2579.9209   -44289.691     30.84138   0.94553686 
   43300    205.91685    366.99037    132011.17   -41723.007    2561.9971   -44285.005    30.841448   0.94608277 
   43400    207.54068    190.31753    131938.57   -41677.505    2582.2006   -44259.706    30.773894   0.94660335 
   43500    206.57647    267.33147    132100.14   -41686.343     2570.204   -44256.547      30.8684   0.94544555 
   43600    210.65598     281.8106    132039.42   -41598.263    2620.9609   -44219.224     30.95998   0.94588034 
   43700    208.74136    275.36385    132030.67   -41623.148    2597.1393   -44220.287    30.952245     0.945943 
   43800    210.49423    489.42402    132114.87   -41637.964    2618.9484   -44256.913    30.993064   0.94534012 
   43900    203.13388    298.79397    132199.06   -41672.941    2527.3716   -44200.312    30.976679   0.94473811 
   44000    203.24508    304.50924    131992.92   -41701.423    2528.7551   -44230.178    30.803444   0.94621356 
   44100    206.37765    391.93553    132114.74   -41723.115    2567.7304   -44290.845    30.924683   0.94534108 
   44200    201.48575    244.60822    132264.77   -41767.084    2506.8657   -44273.949    30.986801   0.94426874 
   44300    205.32086    244.32635    132278.11   -41782.566    2554.5818   -44337.148    31.027086   0.94417351 
   44400    207.78291    271.73673    132265.65   -41754.226    2585.2144    -44339.44    30.953857   0.94426245 
   44500    202.27791    347.86022    132254.39   -41780.733    2516.7217   -44297.455    30.833304   0.94434286 
   44600    201.64797     223.7765    132322.69   -41846.053    2508.8841   -44354.937    30.957171   0.94385547 
   44700     204.7325    410.15873    132213.55   -41827.741    2547.2615   -44375.002    31.194681   0.94463461 
   44800    202.97361    372.27458    132379.43   -41802.612    2525.3776   -44327.989    31.446171   0.94345091 
   44900    208.73574    225.31108    132392.37   -41767.742    2597.0694   -44364.812    31.371149   0.94335867 
   45000    206.21711    292.77619    132321.04   -41772.919    2565.7328   -44338.652    31.242688   0.94386724 
   45100    209.24517    377.33141    132391.05   -41733.229    2603.4077   -44336.636    31.180813   0.94336806 
   45200    203.77504    292.57583    132493.41   -41786.893    2535.3489   -44322.242    31.137447   0.94263926 
   45300    202.61035    423.20161     132441.2   -41808.764    2520.8579   -44329.622    31.255109   0.94301085 
   45400     208.7353    262.55055    132440.04   -41781.508     2597.064   -44378.572    31.150413    0.9430191 
   45500    205.28631    295.51904    132446.77   -41793.865     2554.152   -44348.017    31.370453   0.94297123 
   45600    206.02308    324.65355     132436.7   -41778.629    2563.3188   -44341.948    31.462002    0.9430429 
   45700    205.07293    306.88872    132466.87   -41782.815    2551.4971   -44334.312    31.618428   0.94282812 
   45800    211.22114    336.44769    132412.81   -41738.082    2627.9925   -44366.075    31.683079   0.94321307 
   45900    209.16343    190.33993    132379.38    -41687.12    2602.3907   -44289.511    31.481515   0.94345122 
   46000    210.41228    383.30342    132405.36   -41676.266    2617.9288   -44294.195    31.469736    0.9432661 
   46100    210.28804    307.35004    132502.35   -41636.115    2616.3831   -44252.498     31.55795   0.94257564 
   46200    211.99801    260.64423    132458.19   -41629.372    2637.6582   -44267.031    31.718954    0.9428899 
   46300    210.99404    505.40257    132347.09   -41661.003     2625.167    -44286.17    31.698923   0.94368144 
   46400    209.72488    443.67911    132403.17   -41699.571    2609.3762   -44308.947    31.581449   0.94328176 
   46500    207.01378    362.15418    132450.77   -41714.509     2575.645   -44290.154    31.795954   0.94294273 
   46600    210.14136    198.54836    132495.83   -41710.438     2614.558   -44324.996    31.992439   0.94262208 
   46700    204.14992    267.71987    132410.04   -41781.784    2540.0131   -44321.797    31.898243   0.94323278 
   46800    203.19186    289.72109    132386.46   -41821.081     2528.093   -44349.174    31.952599    0.9434008 
   46900     209.2192    633.45637    132396.66    -41752.03    2603.0846   -44355.115    32.074372    0.9433281 
   47000    208.23202    239.03172    132326.54   -41739.567    2590.8022   -44330.369    32.036921   0.94382801 
   47100     209.6861    417.83481    132330.85   -41716.603    2608.8937   -44325.497    31.884973   0.94379727 
   47200    206.97579    334.92638    132174.07   -41771.991    2575.1723   -44347.164    32.102314   0.94491674 
   47300    210.94239    274.42022    132289.38   -41800.315    2624.5244   -44424.839    32.156264   0.94409309 
   47400    206.10738    381.86811    132242.95   -41764.982    2564.3677    -44329.35    32.063314   0.94442458 
   47500    207.98579    320.19131    132321.94   -41711.882    2587.7387    -44299.62    32.264736   0.94386079 
   47600    206.12017    213.50986    132206.34   -41662.789    2564.5268   -44227.316    32.225607    0.9446861 
   47700    207.37906    330.78217    132135.35   -41699.493    2580.1898   -44279.682    32.249434   0.94519363 
   47800    210.27104    414.22165    132069.81   -41704.525    2616.1715   -44320.697    32.280403   0.94566266 
   47900    203.18875    204.00119    132079.48    -41787.55    2528.0544   -44315.604    32.317855   0.94559344 
   48000    204.37507    487.61774    132110.72   -41804.692    2542.8144   -44347.507    32.250384   0.94536988 
   48100     203.2301    345.98246    132105.09   -41771.378    2528.5688   -44299.947    32.343664   0.94541011 
   48200    199.81084    363.62152    132015.04   -41787.693    2486.0267    -44273.72    32.293142   0.94605503 
   48300    205.05269    156.97086    131947.45   -41761.206    2551.2454   -44312.451    32.197278   0.94653963 
   48400    206.76654    193.99922    131802.77   -41674.928    2572.5689   -44247.497    32.433825   0.94757863 
   48500    206.84205    265.86509    131853.23    -41728.44    2573.5083   -44301.948    32.443259   0.94721604 
   48600    206.67757    261.87509     131845.9   -41729.121    2571.4619   -44300.583    32.484867   0.94726867 
   48700     205.7951    403.29887    131905.71   -41695.053    2560.4823   -44255.535    32.636621   0.94683916 
   48800    204.98395    340.77115    132011.12   -41731.786      2550.39   -44282.176    32.492016   0.94608314 
   48900    207.00496    366.69302    131880.79   -41730.168    2575.5352   -44305.703    32.607402   0.94701805 
   49000    207.90164    355.20455    131915.28   -41761.518    2586.6916    -44348.21    32.575045   0.94677048 
   49100    205.01114    307.70478     131771.2   -41756.278    2550.7283   -44307.006    32.544739   0.94780571 
   49200    204.25549    322.47174    131871.16   -41772.891    2541.3267   -44314.218    32.655645   0.94708726 
   49300    208.26424    334.37678    131769.59   -41714.913    2591.2031   -44306.116    32.743617   0.94781722 
   49400    204.88984    355.38662    131772.97   -41691.794    2549.2192   -44241.013    32.667749   0.94779296 
   49500    205.69807    382.79169    131708.07   -41699.745    2559.2751    -44259.02    32.752125   0.94825996 
   49600    205.84535    251.90965     131759.7   -41707.638    2561.1075   -44268.745    32.759246   0.94788838 
   49700    205.49028    215.46377    131715.86   -41716.911    2556.6897   -44273.601    32.704977   0.94820391 
   49800    201.94107    252.62769    131671.81   -41749.359    2512.5309    -44261.89    32.747003   0.94852111 
   49900    207.73854    319.35847    131728.65    -41642.91    2584.6623   -44227.572    32.783697   0.94811183 
   50000    209.77711    355.58959    131671.89   -41689.683    2610.0261   -44299.709    32.960852   0.94852054 
   50100    206.49162    178.58229    131681.95   -41701.229    2569.1483   -44270.377    32.959618    0.9484481 
   50200    206.09759    212.88661    131635.68   -41751.716    2564.2459   -44315.962     32.96516   0.94878145 
   50300    203.86648    312.14105    131527.56   -41729.606    2536.4866   -44266.093    32.944439   0.94956135 
   50400    207.17161    576.63908    131542.83     -41754.2    2577.6087   -44331.809    32.836736   0.94945117 
   50500    201.15149     318.8038     131534.2   -41793.599     2502.707   -44296.306    33.011868   0.94951346 
   50600    201.19311    382.25309    131595.82   -41812.118    2503.2248   -44315.343    32.956665   0.94906884 
   50700    203.77782    302.46803    131694.65   -41821.588    2535.3835   -44356.972    32.868354   0.94835659 
   50800    200.88659    246.91145    131634.75   -41820.546     2499.411   -44319.957    33.043867   0.94878818 
   50900    207.65714    330.61236    131762.25   -41725.864    2583.6496   -44309.514     32.99594   0.94787005 
   51000     204.3909    303.83833    131715.84   -41756.727    2543.0114   -44299.738    33.151872   0.94820404 
   51100    204.19866    235.17502    131611.14   -41785.295    2540.6196   -44325.915    33.128627   0.94895833 
   51200    204.37064    188.85218    131589.16   -41774.945    2542.7593   -44317.705    33.382314   0.94911685 
   51300    205.21891    348.27653     131599.6    -41838.34    2553.3134   -44391.653    33.321753   0.94904157 
   51400     205.0631    348.05403    131728.43   -41845.861    2551.3749   -44397.236     33.34255   0.94811339 
   51500    203.25289    342.62096    131768.01   -41849.551    2528.8524   -44378.403    33.350426   0.94782865 
   51600    204.21675    174.88806    131725.07   -41807.873    2540.8446   -44348.718    33.222754   0.94813763 
   51700    202.71305    288.52134    131756.13   -41797.375    2522.1358   -44319.511    33.372348    0.9479141 
   51800    203.82247    364.99456    131861.91   -41831.913     2535.939   -44367.852    33.529559   0.94715365 
   51900    202.94244    362.64701    131924.07   -41871.196    2524.9898   -44396.185    33.431402   0.94670739 
   52000    197.95924    302.11903    131978.39   -41902.486    2462.9893   -44365.475    33.545724   0.94631773 
   52100    200.56534     154.5333    131986.35    -41855.08    2495.4141   -44350.494    33.476225   0.94626067 
   52200    204.05724    324.81631    131828.65   -41881.845      2538.86   -44420.705    33.445387   0.94739261 
   52300    202.33696    124.51419    131972.76   -41866.086    2517.4565   -44383.542    33.557708   0.94635811 
   52400    207.86818    258.12438    131951.92   -41814.067    2586.2753   -44400.342    33.521143    0.9465076 
   52500    202.79539    398.82335    131902.82   -41800.266    2523.1602   -44323.426    33.671619   0.94685992 
   52600    200.57681    281.05976     131864.4   -41823.356    2495.5569   -44318.913     33.45149   0.94713577 
   52700     202.9631    283.19402    131913.17    -41841.59    2525.2469   -44366.837    33.689301   0.94678564 
   52800    205.28056    271.87843    131935.53   -41795.359    2554.0804   -44349.439    33.773467   0.94662518 
   52900    204.10171    249.05431    132129.78    -41782.67    2539.4133   -44322.083    33.849865   0.94523349 
   53000    203.66219    159.86086    131985.92   -41763.968    2533.9448   -44297.913    33.876901   0.94626372 
   53100    204.25789      221.337    131975.68   -41810.434    2541.3564    -44351.79    33.885563   0.94633719 
   53200    205.99638    321.78739    132001.08   -41797.945    2562.9865   -44360.931    33.945132   0.94615504 
   53300    205.78699    306.98329    131872.93    -41797.96    2560.3813   -44358.341    33.983269   0.94707451 
   53400     202.0764    325.41304     131800.6   -41862.343    2514.2146   -44376.557    33.977417   0.94759429 
   53500    203.35031    340.89328    131982.06   -41870.619    2530.0644   -44400.683    34.001947   0.94629143 
   53600    202.19227    408.49612    131943.75   -41869.716    2515.6563   -44385.372       34.062   0.94656617 
   53700    202.15218    347.27441    131941.51   -41904.284    2515.1574   -44419.442    34.049415   0.94658226 
   53800    206.23402     199.9433    131943.65   -41799.441    2565.9433   -44365.384    34.154875   0.94656689 
   53900     202.7957    455.12453    131976.21   -41853.583    2523.1641   -44376.748    34.295424   0.94633336 
   54000     204.3625    221.72023    132068.76   -41821.685     2542.658   -44364.344    34.172643   0.94567023 
   54100    202.41115    376.37801    132050.84   -41832.267    2518.3795   -44350.647    34.085605   0.94579853 
   54200    204.87472    263.92962    132188.74   -41818.508     2549.031   -44367.539    34.206585   0.94481191 
   54300    202.42354    425.64995    132176.12   -41791.487    2518.5337   -44310.021    34.204691   0.94490207 
   54400    204.06052    243.02852    132324.55   -41829.156    2538.9008   -44368.057    34.188575   0.94384216 
   54500    202.45425    235.77968    132317.26   -41820.984    2518.9158   -44339.899    34.476491   0.94389418 
   54600    206.35081     370.8056    132146.04   -41732.288    2567.3963   -44299.685    34.441537   0.94511716 
   54700    207.89385    278.37514    132228.09    -41754.18    2586.5947   -44340.774    34.494886   0.94453069 
   54800     205.5382    266.55562    132195.54   -41816.151     2557.286   -44373.437    34.635354   0.94476327 
   54900    204.68969    348.63325    132066.51   -41853.241    2546.7289    -44399.97    34.485633   0.94568631 
   55000    202.22288    257.29276    132052.23   -41902.524    2516.0371   -44418.561    34.615496   0.94578857 
   55100    203.39067    290.70195    132059.11   -41865.805    2530.5666   -44396.372    34.601515    0.9457393 
   55200    202.30777    278.33049    131895.06   -41864.487    2517.0933    -44381.58    34.819945   0.94691563 
   55300    205.11912    236.15978    131795.37   -41825.078    2552.0719    -44377.15    34.748997   0.94763185 
   55400     205.2753      194.486    131959.03   -41807.083     2554.015   -44361.098    34.880564   0.94645655 
   55500    204.52259    319.89128    132009.79   -41749.427    2544.6499   -44294.077    34.801495   0.94609261 
   55600    205.13234     292.6408    132034.41   -41787.366    2552.2363   -44339.603    34.764752   0.94591624 
   55700    205.81019    176.81823    132231.01   -41792.754      2560.67   -44353.424    34.934529   0.94450987 
   55800    207.14156    382.31395    132031.91   -41796.591    2577.2348   -44373.826     34.78657   0.94593415 
   55900    204.73358    410.86829    132071.11   -41768.802    2547.2749   -44316.076    34.933298   0.94565334 
   56000    206.06257     216.5236    132109.19   -41765.084    2563.8102   -44328.894    35.026703   0.94538076 
   56100    210.06925    344.79363    132207.26   -41742.269    2613.6608    -44355.93    35.124743   0.94467954 
   56200    205.14911    296.56153    132283.64   -41746.738     2552.445   -44299.183    35.222941   0.94413409 
   56300    209.71841    331.26153    132129.27   -41778.526    2609.2957   -44387.822    35.095609   0.94523709 
   56400    203.33018    169.64389    132155.53    -41764.95     2529.814   -44294.764    35.102387   0.94504933 
   56500    202.11764    143.10839    131986.73   -41847.134    2514.7277   -44361.861    35.080434   0.94625793 
   56600    205.96045     297.8372    131835.67   -41863.028    2562.5396   -44425.567    35.211866   0.94734216 
   56700    197.74207    356.00743    131982.66   -41888.694    2460.2873   -44348.981    35.290129   0.94628715 
   56800    204.57711     261.8028    131839.68   -41811.339    2545.3282   -44356.667       35.152   0.94731337 
   56900    207.62607    326.60852    132037.59   -41788.496     2583.263   -44371.759    35.225815   0.94589342 
   57000    207.00224    212.49198    132035.14   -41741.595    2575.5014   -44317.097    35.129366   0.94591101 
   57100     206.6864    331.68235     132003.6   -41799.546    2571.5718   -44371.118    35.182603     0.946137 
   57200    204.12309    286.17743    132070.56   -41845.495    2539.6793   -44385.174    35.202939   0.94565729 
   57300    204.94035    268.19777    132179.68   -41903.496    2549.8476   -44453.344    35.290679   0.94487666 
   57400    200.96167    395.36829    132188.95    -41904.24    2500.3452   -44404.586    35.497693   0.94481037 
   57500    199.77127    137.13091    132241.07    -41947.43    2485.5343   -44432.964    35.593228   0.94443802 
   57600    204.44761    398.19271     132111.7   -41916.402    2543.7169   -44460.119    35.498867   0.94536281 
   57700    202.60992    342.84473    132325.73   -41963.534    2520.8526   -44484.387    35.551664   0.94383373 
   57800    199.64236    295.93808    132369.18   -41992.817    2483.9305   -44476.747    35.412591   0.94352393 
   57900    204.28671    323.49407    132573.86   -41965.666     2541.715   -44507.381     35.51775   0.94206721 
   58000    198.80123    272.46747    132334.46   -41966.845    2473.4653    -44440.31     35.53316   0.94377152 
   58100     205.2155    230.68681    132383.67   -41904.696    2553.2709   -44457.967     35.57245   0.94342069 
   58200    206.75861    328.87285     132332.6   -41861.099    2572.4701   -44433.569    35.672901   0.94378478 
   58300    206.16081    286.92698    132507.77   -41798.947    2565.0324   -44363.979    35.607353   0.94253713 
   58400    205.09652    277.88061     132596.3   -41807.391    2551.7906   -44359.181    35.710204   0.94190779 
   58500    206.30856    292.24066    132578.43   -41805.755    2566.8707   -44372.626    35.757848   0.94203478 
   58600    211.17634      349.114    132423.59   -41780.601    2627.4351   -44408.036     35.87619   0.94313626 
   58700    208.65264    323.91475    132392.87   -41780.656    2596.0356   -44376.692    35.884322   0.94335515 
   58800     205.9962    291.28902    132458.08   -41833.471    2562.9843   -44396.455    36.033944   0.94289073 
   58900     205.5455      311.586    132566.95       -41882    2557.3768   -44439.377    35.934303   0.94211635 
   59000    204.36127    97.657102    132362.29   -41876.521    2542.6427   -44419.164    35.885666   0.94357305 
   59100    205.88993    275.79192    132294.48   -41872.353    2561.6621   -44434.015    35.936717   0.94405669 
   59200    207.15173    395.56943    132411.47   -41890.759    2577.3614   -44468.121    35.980733   0.94322258 
   59300    203.31494    287.61538    132455.66   -41886.067    2529.6244   -44415.692    36.066032   0.94290794 
   59400     203.5469     325.6037    132335.81   -41936.646    2532.5104   -44469.156    36.138299   0.94376187 
   59500    205.91101    328.23478    132243.16   -41905.492    2561.9244   -44467.417    36.061404   0.94442308 
   59600    204.65858    206.09669    132215.32   -41889.483    2546.3418   -44435.824    36.163992   0.94462193 
   59700    205.54056    368.85672    132330.37   -41908.269    2557.3153   -44465.584    36.022004   0.94380064 
   59800    203.69828    293.12161    132479.73   -41906.446    2534.3938    -44440.84    36.132015   0.94273663 
   59900     201.3978    284.30727    132459.27   -41877.071    2505.7715   -44382.842    36.121655   0.94288219 
   60000    203.52664    298.63937    132405.64    -41920.73    2532.2584   -44452.989    36.033139   0.94326416 
   60100      200.706    134.22516    132516.45   -41883.796    2497.1642    -44380.96    36.150956   0.94247536 
   60200     205.0182    326.12333    132393.15   -41869.069    2550.8162   -44419.885     36.17198   0.94335313 
   60300    207.72706    377.88923    132448.06   -41836.839    2584.5195   -44421.359    36.163598   0.94296203 
   60400    206.82917    215.46342    132415.27   -41796.504    2573.3481   -44369.852     36.13518   0.94319552 
   60500    207.49149    399.12988    132445.98   -41824.064    2581.5886   -44405.653    36.277585   0.94297683 
   60600    204.72966    406.52524    132437.33   -41871.839    2547.2262   -44419.066    36.196124   0.94303842 
   60700    203.39911    439.45553    132414.67   -41887.317    2530.6716   -44417.989    36.227006   0.94319983 
   60800    206.09111    405.57397    132455.85   -41844.277    2564.1652   -44408.442    36.124429   0.94290658 
   60900     205.3071    206.10102    132528.09   -41838.964    2554.4106   -44393.374    36.224336   0.94239261 
   61000    204.93737    261.87954    132583.99   -41874.506    2549.8105   -44424.316    36.169811   0.94199527 
   61100    205.24563    285.29652     132618.8   -41911.998    2553.6458   -44465.644    36.328986     0.941748 
   61200    205.39758    430.51228     132700.4   -41907.782    2555.5364   -44463.318    36.305419   0.94116888 
   61300    203.91189    285.10511    132701.17   -41907.937    2537.0516   -44444.988    36.174442   0.94116348 
   61400     205.1663    213.63127    132551.72   -41940.465    2552.6589   -44493.124    36.237763    0.9422246 
   61500    203.48329    188.58497     132472.3   -41942.609     2531.719   -44474.328    36.270314   0.94278952 
   61600     204.1406    386.73063    132530.38   -41912.887    2539.8972   -44452.784    36.397469   0.94237631 
   61700    202.20641    390.96821    132520.18   -41979.451    2515.8321   -44495.283     36.49969   0.94244886 
   61800     200.7661    380.88262    132616.89   -42042.387     2497.912   -44540.299    36.423189   0.94176154 
   61900    201.45827    353.64204    132543.22   -41982.797    2506.5239   -44489.321    36.526002   0.94228501 
   62000    205.97738    321.98532    132573.44    -41944.64    2562.7502    -44507.39    36.489722   0.94207024 
   62100     204.0801     305.4489    132654.18   -41956.441    2539.1445   -44495.585    36.503566   0.94149682 
   62200    201.99707    250.90031     132671.1   -41910.105    2513.2276   -44423.333    36.338129   0.94137677 
   62300    204.61093    284.28044     132598.9   -41946.408    2545.7489   -44492.157    36.553014   0.94188934 
   62400    204.61701    186.30908    132585.38   -41900.613    2545.8246   -44446.437    36.679691   0.94198537 
   62500    205.81605    317.20457     132690.9   -41917.712    2560.7429   -44478.455    36.717286   0.94123629 
   62600    204.08112    184.34101    132727.04   -41924.564    2539.1571   -44463.721    36.691172   0.94098002 
   62700    201.89709    181.36168    132599.44    -41946.63    2511.9836   -44458.614    36.595005   0.94188549 
   62800    204.72444    213.77822    132547.04   -41934.322    2547.1612   -44481.483    36.679462   0.94225788 
   62900    202.74636    169.11038    132490.56   -41885.135    2522.5502   -44407.685    36.693553   0.94265958 
   63000    210.31332    282.56155    132563.78   -41848.816    2616.6975   -44465.514    36.859039   0.94213888 
   63100     203.8206    300.97174       132619   -41838.721    2535.9157   -44374.636    36.791477   0.94174658 
   63200    204.22455    218.39582    132514.52   -41878.296    2540.9417   -44419.237     36.65302   0.94248913 
   63300    206.69616    302.35033    132500.52   -41914.359    2571.6932   -44486.053    36.681616   0.94258867 
   63400    209.84425    279.61619    132469.75   -41851.778    2610.8614   -44462.639    36.597702   0.94280765 
   63500    203.92999    179.69039    132392.56    -41947.18    2537.2768   -44484.457    36.792497   0.94335735 
   63600    205.52443    239.65175    132466.48   -41936.437    2557.1146   -44493.551    36.852423   0.94283093 
   63700    207.72761    363.31046    132560.21    -41941.98    2584.5264   -44526.506    36.920768   0.94216429 
   63800    198.26282    281.19587    132505.67   -42040.116    2466.7665   -44506.883    36.832964   0.94255204 
   63900     204.2497    345.61235    132475.62   -42019.986    2541.2546    -44561.24    36.847811   0.94276586 
   64000    199.06944    289.70793     132414.6   -42013.578    2476.8023    -44490.38    36.890194   0.94320029 
   64100    202.31048     413.6221     132548.8   -41933.387    2517.1271   -44450.514     36.93644   0.94224538 
   64200    207.67902    435.49351    132648.42   -41916.817    2583.9219   -44500.739    36.974543   0.94153773 
   64300    204.47946     345.5382    132664.06   -41837.677    2544.1133    -44381.79    36.956798   0.94142669 
   64400    209.06242    318.43161    132543.61   -41868.194    2601.1339   -44469.328    37.054587   0.94228223 
   64500    208.19698    205.55804    132627.19   -41859.929    2590.3662   -44450.296    37.151323    0.9416884 
   64600    207.33208    299.28936    132553.26   -41912.438    2579.6053   -44492.043    37.052129   0.94221365 
   64700    205.05997    369.37041    132475.99   -41925.307    2551.3359   -44476.643    37.095733   0.94276325 
   64800    204.55265    329.57232    132399.21   -41936.931    2545.0239   -44481.955    36.950161   0.94330994 
   64900    204.04167    306.60879    132383.57   -41916.025    2538.6663   -44454.692    36.964554   0.94342139 
   65000    207.79826    260.36554    132344.59       -41885    2585.4055   -44470.405    37.170181   0.94369929 
   65100     203.1554    265.58906    132292.76   -41912.231    2527.6394    -44439.87    37.196866   0.94406895 
   65200    207.75717    335.61658    132511.75   -41906.714    2584.8942   -44491.608    37.266825   0.94250883 
   65300     205.3796    289.34336    132426.13   -41911.701    2555.3126   -44467.014    37.255598   0.94311815 
   65400    204.21742    296.36411    132414.29   -41854.675    2540.8529   -44395.528    37.178742   0.94320254 
   65500    207.12817     202.8995     132415.3   -41912.916    2577.0682   -44489.984    37.423877   0.94319531 
   65600    201.83342    360.77973    132505.85   -41939.772    2511.1915   -44450.964    37.415538   0.94255074 
   65700    205.45343    301.76899     132513.2   -41987.808    2556.2313   -44544.039    37.309007   0.94249851 
   65800    197.72509    313.83085    132545.23   -41997.967     2460.076   -44458.043     37.23755   0.94227071 
   65900    198.51048    220.49856    132539.23   -41964.869    2469.8478   -44434.717    37.257616   0.94231338 
   66000    201.07206     153.4026    132471.48   -41872.718    2501.7187   -44374.437    37.320204   0.94279531 
   66100    210.18271    193.72817    132399.86   -41819.012    2615.0725   -44434.085     37.56684   0.94330529 
   66200     209.2856      336.962    132510.83   -41798.163    2603.9108   -44402.074    37.480144   0.94251538 
   66300    206.69794    337.03043    132545.32   -41838.626    2571.7153   -44410.341    37.293266   0.94227009 
   66400    204.57215    362.89202    132522.81   -41886.554    2545.2665    -44431.82    37.211272   0.94243015 
   66500    203.17046    264.75394    132638.48   -41916.909    2527.8268   -44444.736    37.350971   0.94160831 
   66600    206.16343    221.54312    132520.27   -41931.243    2565.0651   -44496.308    37.507337   0.94244819 
   66700    203.44853    385.33392    132677.56   -41949.694    2531.2865    -44480.98    37.586483   0.94133095 
   66800     205.0623    246.56195    132558.53    -41894.57    2551.3649   -44445.935    37.464801   0.94217617 
[...]
   84600    200.92674    458.18832    132636.04   -42035.312    2499.9107   -44535.222     40.57609   0.94162561 
   84700    201.85265    378.71831     132631.7   -42050.615    2511.4307   -44562.045    40.434593    0.9416564 
   84800    201.93343    318.27224    132705.79   -42027.029    2512.4357   -44539.465    40.563892   0.94113065 
   84900    200.06451    125.38126    132707.08    -42011.73    2489.1829   -44500.913    40.526945   0.94112154 
   85000    204.90395     296.6892     132627.2   -41970.367    2549.3947   -44519.762    40.610513   0.94168838 
   85100    204.93806    202.56375    132638.73   -41978.945     2549.819   -44528.764    40.608325    0.9416065 
   85200    204.11904    334.93879    132587.96   -41987.244    2539.6289   -44526.873    40.584811   0.94196704 
   85300    202.95161    231.07556    132451.34   -42019.789    2525.1039   -44544.892    40.625197   0.94293867 
   85400    203.90888    306.22383    132588.33   -42015.798    2537.0141   -44552.812    40.432952   0.94196442 
   85500    205.14955    310.76001    132682.83   -41981.633    2552.4504   -44534.083    40.630803   0.94129354 
   85600     206.1889    234.42135     132679.1   -41954.507    2565.3819   -44519.889     40.60438   0.94131999 
   85700     203.2694    371.22281    132769.74   -41990.219    2529.0578   -44519.277    40.655112   0.94067736 
   85800    202.35842     298.4504    132686.19   -41995.017    2517.7234    -44512.74    40.764275   0.94126972 
   85900    206.50894    455.43282    132750.21   -41896.091    2569.3638   -44465.455    40.616515   0.94081579 
   86000    206.61853    307.05938    132660.14   -41951.801    2570.7273   -44522.528    40.689916   0.94145455 
   86100    204.75511    123.37336    132587.37   -41948.888    2547.5429   -44496.431    40.532138   0.94197123 
   86200    208.15117    406.09316    132545.82    -41928.25    2589.7963   -44518.046    40.691886   0.94226657 
   86300    205.37289    315.26238    132541.35   -41977.015    2555.2292   -44532.244    40.804259   0.94229832 
   86400    203.34614    339.07809    132534.71   -41985.308    2530.0126   -44515.321    40.897591   0.94234556 
   86500    206.50733    307.67244    132660.96   -41977.775    2569.3438   -44547.119    40.907109   0.94144874 
   86600     207.6151    329.58073    132717.19   -41920.597    2583.1266   -44503.723    40.715054   0.94104983 
   86700    207.36212    188.48491    132671.65   -41915.426     2579.979   -44495.405    40.746835   0.94137289 
   86800    207.35094    441.97118    132689.36   -41983.815    2579.8399   -44563.655    40.801105   0.94124721 
   86900     203.8725    382.49312    132749.46   -41953.329    2536.5615    -44489.89    40.904315   0.94082111 
   87000    204.03545    395.82236    132696.92   -41946.116    2538.5889   -44484.705    40.812511   0.94119358 
   87100    202.94871    228.73479    132818.67   -41977.808    2525.0678   -44502.876    40.975259   0.94033083 
   87200    204.32729    270.76551    132892.84   -41970.129    2542.2199   -44512.349    40.922603   0.93980602 
   87300    202.20499    257.79203    132893.78   -41975.869    2515.8145   -44491.683    40.919944   0.93979936 
   87400     200.2424     308.5672    132944.29    -41992.53    2491.3962   -44483.926    41.042118   0.93944231 
   87500    204.77739    295.38486    132832.01   -42002.663      2547.82   -44550.483    41.064014   0.94023642 
   87600    203.66586    323.20689    132793.26   -42012.194    2533.9905   -44546.185    40.946121   0.94051079 
   87700    202.55237    272.62869     132706.1   -42020.566    2520.1365   -44540.702     40.98228   0.94112846 
   87800    203.66338    436.90945    132798.98   -42004.286    2533.9596   -44538.245    40.990067   0.94047023 
   87900    203.53594    308.39231    132811.69    -42025.28    2532.3741   -44557.654    41.043352   0.94038023 
   88000    204.76203    355.36534    132779.85   -42045.908    2547.6289   -44593.537    41.134124   0.94060574 
   88100    208.62253    342.40214    132826.49    -41984.17    2595.6609   -44579.831    40.962444   0.94027548 
   88200    205.66906    459.91823    132938.87    -41971.31    2558.9141   -44530.224    41.008131   0.93948061 
   88300    207.64759    239.78175     132845.6   -42010.991    2583.5308   -44594.522     41.08923   0.94014022 
   88400    202.46206    368.47621    132738.72   -42107.458     2519.013   -44626.471    41.188362   0.94089723 
   88500    201.83516    300.42009    132735.34   -42008.574    2511.2132   -44519.787    41.244723   0.94092117 
   88600    206.30992    409.67108    132754.57   -41959.733    2566.8877    -44526.62    41.233544    0.9407849 
   88700    207.70946    358.99216    132800.41   -41941.421    2584.3005   -44525.721    41.268987   0.94046014 
   88800    207.33962    193.70864    132744.27   -41890.642     2579.699   -44470.341    41.122206   0.94085784 
   88900    206.22049    288.12957    132697.62    -41935.22    2565.7749   -44500.995    40.948711   0.94118864 
   89000    209.59249    334.30948     132751.5   -41922.728     2607.729   -44530.457    41.053524   0.94080664 
   89100    203.36527    103.13432    132720.69   -42016.256    2530.2505   -44546.507    41.040304   0.94102504 
   89200    205.94961    317.59776     132533.1   -42043.041    2562.4047   -44605.445    41.052669   0.94235696 
   89300    204.07599    343.30908    132531.56   -42058.738    2539.0933   -44597.831     41.18041   0.94236795 
   89400    203.11384    367.45383    132568.54   -42076.095    2527.1223   -44603.218    41.253079   0.94210508 
   89500    201.68455    228.31629    132527.98   -42112.866    2509.3392   -44622.205     41.27089    0.9423934 
   89600    197.87846    226.03783     132489.1   -42153.612    2461.9843   -44615.596    41.142622   0.94266996 
   89700     200.6846    497.16906    132581.16   -42109.152    2496.8979    -44606.05    41.071503   0.94201537 
   89800     203.6909      229.734    132530.13    -42064.26     2534.302   -44598.562     41.07766    0.9423781 
   89900    201.31953    307.14684    132492.62   -42114.204    2504.7977   -44619.001    41.127356   0.94264487 
   90000    201.14787    337.14302       132570   -42023.548    2502.6619    -44526.21    41.253006   0.94209471 
   90100    202.13555    288.39504    132541.83   -42030.059    2514.9505    -44545.01      41.3288    0.9422949 
   90200    204.58929    227.77644    132541.94    -42058.47    2545.4797    -44603.95    41.334887    0.9422941 
   90300    200.99892    407.68245    132532.92   -42057.903    2500.8086   -44558.712    41.407502   0.94235827 
   90400    200.97021    264.14453    132591.41   -42040.569    2500.4514    -44541.02    41.405228   0.94194256 
   90500    203.79129    446.42128    132519.24    -42002.97    2535.5511   -44538.521    41.302932   0.94245556 
   90600     203.7442    371.44062    132573.52   -41917.133    2534.9652   -44452.099    41.182649   0.94206968 
   90700    210.12768    300.61729    132681.98    -41920.07    2614.3878   -44534.457    41.209398   0.94129958 
   90800    202.74642    310.67196    132705.75   -41941.698    2522.5509   -44464.249    41.489902   0.94113099 
   90900    199.69046    426.89009    132685.95   -42031.631    2484.5289    -44516.16    41.412659   0.94127139 
   91000    201.12991     206.5437    132686.51    -42047.01    2502.4385   -44549.449    41.482971   0.94126745 
   91100    202.51651     276.4261    132566.23   -42044.975    2519.6904   -44564.666    41.383583   0.94212147 
   91200     203.3382    291.11392    132729.25   -42012.652    2529.9137   -44542.565    41.372411   0.94096435 
   91300    205.67388     315.8616     132672.6   -41928.167    2558.9741   -44487.141    41.344918   0.94136612 
   91400    208.76538    283.80285    132672.82   -41920.372    2597.4382    -44517.81    41.145215   0.94136456 
   91500    207.89525    304.76114    132592.89   -41934.045    2586.6121   -44520.657    41.365058   0.94193204 
   91600    205.31592    337.99437    132787.37   -41972.979    2554.5204     -44527.5      41.5589   0.94055246 
   91700    203.81071    193.81612    132778.75   -42044.612    2535.7927   -44580.405    41.543285   0.94061354 
   91800     206.1151    267.94991    132688.11   -42011.547    2564.4637   -44576.011    41.494414   0.94125608 
   91900    201.45562    243.51836    132688.51   -42011.671     2506.491   -44518.161    41.500494   0.94125327 
   92000    202.82158    296.51703    132575.11   -42018.163     2523.486   -44541.649    41.438994   0.94205834 
   92100    202.39921    118.00792    132428.89   -42060.686     2518.231   -44578.917    41.460261   0.94309854 
   92200    206.53953    172.15393    132392.01   -41994.851    2569.7445   -44564.596    41.501336   0.94336126 
   92300    204.38129    384.24107    132445.43   -41904.611    2542.8919   -44447.502    41.563292   0.94298075 
   92400    205.25067    395.27448    132429.06   -41903.262    2553.7085   -44456.971    41.723744   0.94309729 
   92500    203.93939    383.76863    132443.75   -41937.935    2537.3937   -44475.329    41.741679   0.94299268 
   92600    207.58691    492.58386    132459.29    -41908.43    2582.7758   -44491.206    41.588065   0.94288207 
   92700    209.68312     444.8226    132598.55   -41894.858    2608.8566   -44503.714    41.521161   0.94189182 
   92800     205.7554    350.00486    132539.29    -41931.77    2559.9884   -44491.758    41.727925   0.94231294 
   92900    205.51561    339.66693    132490.67    -41903.67    2557.0049   -44460.675    41.749039   0.94265875 
   93000    203.48031    53.593812    132438.09   -41924.096    2531.6819   -44455.778    41.774021   0.94303299 
   93100    205.05531      206.466    132288.29   -41864.101     2551.278   -44415.379     41.61369    0.9441009 
   93200    203.62811    305.34872    132300.48   -41877.542    2533.5208   -44411.063    41.674371   0.94401391 
   93300     205.0582    414.68687    132324.79   -41896.713    2551.3138   -44448.027    41.635121   0.94384044 
   93400    200.86912    218.20655    132389.86   -41925.263    2499.1937   -44424.457     41.91086   0.94337656 
   93500     200.3381     426.1039    132349.91   -41951.472    2492.5868   -44444.059    41.812248   0.94366134 
   93600    197.81672     287.2514    132367.88   -42007.996    2461.2161   -44469.212    41.753677   0.94353318 
   93700    205.83943    345.43413     132339.4   -41964.114    2561.0338   -44525.147    41.799846    0.9437363 
   93800    200.37575    336.02764    132322.98    -41931.71    2493.0553   -44424.766     41.68477   0.94385338 
   93900    206.14262    212.43157    132361.08   -41920.279    2564.8062   -44485.085    41.925882   0.94358171 
   94000    201.90922    316.60021    132428.56   -41937.135    2512.1346    -44449.27    41.847703   0.94310087 
   94100    205.74312    306.54269    132490.04   -41933.492    2559.8355   -44493.328    41.933425   0.94266325 
   94200    207.68846    256.01389    132520.12   -41937.685    2584.0393   -44521.724    41.876594   0.94244928 
   94300    207.21391    253.46542    132647.08   -41893.811     2578.135   -44471.946    41.947036    0.9415472 
   94400    204.04332    278.06498     132594.1   -41897.552    2538.6868   -44436.239    42.073973   0.94192341 
   94500    209.63649    332.17735    132675.42   -41851.458    2608.2765   -44459.734     42.18591   0.94134614 
   94600     209.4808    345.68989    132763.55   -41896.701    2606.3393   -44503.041    42.146419   0.94072122 
   94700     205.3973    394.01463    132831.24   -41940.264    2555.5329   -44495.797      42.0804   0.94024188 
   94800    202.20271    213.89239    132785.45   -41943.097    2515.7861   -44458.884    42.060545   0.94056605 
   94900    204.01317    259.96096    132644.21   -41921.279    2538.3118   -44459.591    41.985815   0.94156763 
   95000    206.54252    252.17674    132622.66   -41915.624    2569.7816   -44485.406    42.120507   0.94172057 
   95100    206.56924    266.15624    132468.85   -41914.504     2570.114   -44484.618    42.299828   0.94281404 
   95200    207.64056    420.42997    132590.33   -41943.827    2583.4433    -44527.27    42.338084   0.94195026 
   95300     209.2291    281.24935    132515.69   -41858.888    2603.2077   -44462.096    42.472543   0.94248076 
   95400    209.27419    280.63636    132513.89   -41910.957    2603.7688   -44514.726    42.177957   0.94249361 
   95500    204.92164    395.47106     132534.5   -41908.219    2549.6147   -44457.834    42.036447   0.94234699 
   95600    208.00353    287.92724    132570.45   -41911.481    2587.9594    -44499.44    42.059603   0.94209147 
   95700    204.31653    286.05342    132526.09   -41967.476    2542.0861   -44509.562    42.229996   0.94240685 
   95800    200.46151    270.27094    132373.52   -42015.795    2494.1223   -44509.917    42.555491   0.94349302 
   95900    204.07972    420.24112    132541.76   -41968.559    2539.1397   -44507.698    42.530192   0.94229541 
   96000    204.60623     306.2112    132700.77    -42042.03    2545.6905   -44587.721    42.524208   0.94116627 
   96100    205.71165      221.894    132600.39   -42001.228     2559.444   -44560.672    42.454351   0.94187875 
   96200    201.08481     292.5872    132614.24   -42038.221    2501.8774   -44540.099    42.409469   0.94178041 
   96300    203.22415    302.27446    132556.79   -41981.101    2528.4948   -44509.596    42.453883   0.94218858 
   96400    207.49273    194.29598    132775.43   -41957.338     2581.604   -44538.942    42.667685   0.94063708 
   96500    204.79076    277.99019    132641.76   -42000.566    2547.9864   -44548.553    42.644471   0.94158499 
   96600    204.04081    274.67239    132588.42   -41990.774    2538.6556   -44529.429    42.698493   0.94196376 
   96700    202.57551    343.32754    132472.96   -42066.237    2520.4245   -44586.661    42.595988   0.94278476 
   96800    200.25639    283.15475    132538.74    -42110.33    2491.5702   -44601.901    42.548185   0.94231689 
   96900     200.8473    248.08443    132578.89   -42045.821    2498.9222   -44544.743    42.657372   0.94203154 
   97000    200.44685    309.71178    132593.66   -42048.907    2493.9399   -44542.847    42.518234   0.94192654 
   97100    203.19392    345.99967    132635.03   -42040.456    2528.1187   -44568.575    42.532911    0.9416328 
   97200    204.14308    322.06634    132596.09   -42045.299     2539.928   -44585.227    42.678181   0.94190928 
   97300    202.03549    331.42213    132521.98   -42039.238    2513.7056   -44552.944    42.703968   0.94243602 
   97400    200.35867    359.15196    132549.31   -42037.214    2492.8428   -44530.056    42.593164   0.94224176 
   97500    205.83916    315.19602    132617.24   -41945.292    2561.0305   -44506.323    42.653823   0.94175907 
   97600    205.61108    265.06356    132722.94   -42020.146    2558.1927   -44578.339     42.60098   0.94100908 
   97700    207.12554    379.78571    132629.44    -41953.28    2577.0354   -44530.315    42.574061   0.94167246 
   97800    206.27072    296.17821     132669.6   -41934.653    2566.3999   -44501.053    42.770233   0.94138742 
   97900    206.37361    168.21427    132569.84   -41905.015    2567.6801   -44472.695    42.694384   0.94209584 
   98000    207.48618    417.18075    132685.02   -41932.836    2581.5225   -44514.358    42.761504   0.94127803 
   98100    206.03896    330.09123     132747.8   -42006.644    2563.5164   -44570.161    42.663681   0.94083282 
   98200    205.53228    248.74479    132701.85   -41984.521    2557.2124   -44541.733    42.612511   0.94115866 
   98300    206.05701    396.44466     132629.2   -42002.735     2563.741   -44566.476    42.709407   0.94167413 
   98400    205.30209     292.0672    132766.09    -42027.02    2554.3483   -44581.369    42.781301   0.94070324 
   98500    203.45921    233.41128    132712.96   -42031.777    2531.4194   -44563.196    42.903796   0.94107981 
   98600    203.05819    383.05306    132782.17   -42051.679    2526.4299   -44578.109    42.801543   0.94058932 
   98700    200.51394    260.91279     132767.2   -42107.802    2494.7746   -44602.577    42.646505   0.94069537 
   98800    202.60175    299.40721    132717.08   -42078.516    2520.7509   -44599.267    42.761953   0.94105065 
   98900    201.08014    196.77276    132619.38   -42078.577    2501.8192   -44580.397    42.766023   0.94174388 
   99000    203.29982    275.03782    132599.66   -42120.629    2529.4362   -44650.065    42.844786   0.94188392 
   99100    200.65917    328.91229    132677.38    -42049.73    2496.5815   -44546.312    43.020021   0.94133223 
   99200    200.90259      279.267     132608.7   -42031.697    2499.6102   -44531.307    42.981986   0.94181977 
   99300    207.19148     265.4934    132732.23   -41987.346    2577.8559   -44565.202    42.857762   0.94094323 
   99400    207.30802    338.12499    132626.41   -41959.854    2579.3059    -44539.16    42.820655   0.94169394 
   99500    207.31416    375.06229    132706.17    -41852.02    2579.3823   -44431.403    42.914746   0.94112802 
   99600    208.70325    319.23926    132697.01    -41872.77    2596.6652   -44469.435    42.787325   0.94119299 
   99700    208.00557    349.65802    132773.21   -41886.021    2587.9847   -44474.006    42.847449   0.94065279 
   99800    207.01557    314.86782    132706.58   -41906.926    2575.6673   -44482.593    42.777041    0.9411251 
   99900    206.37693    253.55967    132598.47   -41963.733    2567.7214   -44531.455     42.82232   0.94189243 
  100000     205.4628    316.00681    132573.36    -41981.31    2556.3478   -44537.657    43.102666   0.94207081 
  100100    203.61078    161.67542     132633.1   -41913.655    2533.3052    -44446.96    43.131531   0.94164649 
  100200    204.90651    310.04457    132631.71    -41920.58    2549.4265   -44470.006    43.087597   0.94165636 
  100300     210.7934    319.67027     132661.1   -41904.663    2622.6707   -44527.333    43.089046   0.94144771 
  100400    207.33118    363.97652    132509.53   -41939.582     2579.594   -44519.176    43.016642   0.94252458 
  100500    210.29637    384.58195    132614.94   -41865.383    2616.4867   -44481.869    43.033335    0.9417754 
  100600    203.19902    282.60265    132703.37   -41939.907    2528.1821   -44468.089    43.170224   0.94114783 
  100630    206.58591    214.38557    132702.97   -41921.104    2570.3215   -44491.425    43.218169   0.94115067 
Loop time of 76.5225 on 6 procs for 100000 steps with 4175 atoms

Performance: 564.539 ns/day, 0.043 hours/ns, 1306.804 timesteps/s
98.4% CPU use with 6 MPI tasks x no OpenMP threads

MPI task timing breakdown:
Section |  min time  |  avg time  |  max time  |%varavg| %total
---------------------------------------------------------------
Pair    | 59.425     | 61.177     | 65.191     |  24.7 | 79.95
Neigh   | 4.6855     | 4.7362     | 4.7788     |   1.7 |  6.19
Comm    | 4.0298     | 8.0617     | 9.8196     |  68.6 | 10.54
Output  | 0.15957    | 0.16042    | 0.16435    |   0.4 |  0.21
Modify  | 1.7357     | 1.7666     | 1.8023     |   1.9 |  2.31
Other   |            | 0.6208     |            |       |  0.81

Nlocal:        695.833 ave         705 max         690 min
Histogram: 2 1 0 0 1 0 0 1 0 1
Nghost:        1454.50 ave        1480 max        1443 min
Histogram: 3 1 0 0 0 1 0 0 0 1
Neighs:        0.00000 ave           0 max           0 min
Histogram: 6 0 0 0 0 0 0 0 0 0
FullNghs:      19194.0 ave       19515 max       18981 min
Histogram: 3 0 0 0 1 0 0 1 0 1

Total # of neighbors = 115164
Ave neighs/atom = 27.584192
Neighbor list builds = 5067
Dangerous builds = 0

undump              1
unfix               2
unfix               3
unfix               4


################################################
#######         Run Simulation         #########
################################################

reset_timestep      0
log                 log.run_${NAME}
log                 log.run_liquid_density_MLmW
