LAMMPS data file via write_data, version 29 Oct 2020, timestep = 800000

4175 atoms
1 atom types

-0.5306697886868292 50.530669788686694 xlo xhi
-0.5306697886868292 50.530669788686694 ylo yhi
-0.5306697886868292 50.530669788686694 zlo zhi

Masses

1 18.015

Atoms # atomic

392 1 15.137948031413043 22.829317704409842 -0.37571496442310387 0 0 0
2163 1 25.30659822994966 14.02657123464601 -0.4961071166930336 0 0 0
1258 1 3.819210439232622 1.9846348083204526 1.479476992726545 0 0 0
944 1 6.505777109222194 1.0282915084936313 2.225297923632873 0 0 0
1308 1 40.32145671506732 23.709742966261256 15.508532786111981 0 0 1
3549 1 11.763574165704929 1.5644310058043924 2.353089566561325 0 1 1
150 1 14.469250583956228 0.8502466813939216 3.02472407074527 0 0 0
1518 1 17.841619603484226 2.277404211752304 1.1874862636314463 0 0 1
2546 1 31.80918602663474 3.6557427347313656 16.299303842564058 0 1 0
3505 1 39.09499535370112 24.8404338862361 3.0636988635664886 -1 0 1
2265 1 8.51344858345013 24.208237629160784 15.55700139314025 0 0 0
456 1 -0.4099063136372269 7.069585284973843 0.6143066678772742 1 0 0
3548 1 28.00212147439088 1.5111967563499498 3.359406683955318 0 1 1
2257 1 35.690266631779004 1.6120560893740086 1.1138972879456304 0 1 0
2950 1 38.361852571182084 2.1945029151844446 1.28567616390681 1 1 0
1526 1 42.67824827448458 0.26777834579659354 0.7500268510944008 -1 0 1
121 1 45.26353063278092 0.3940429718290326 1.56220545712908 0 0 0
3039 1 37.3337738328519 7.769310758234155 -0.1943066010977499 0 0 1
3799 1 39.50109302496378 14.29907062300604 -0.15945520171154887 0 1 1
3542 1 49.020547339736524 3.203532425888702 1.1104079243578608 -1 1 1
2288 1 0.6886156129766601 6.156352737696857 2.952790627086202 0 1 0
853 1 16.393101926283446 13.398600638207997 0.7760155084532612 0 0 0
3491 1 8.663906279968206 4.380416405559136 0.18610137119495784 0 1 0
99 1 12.701939186721324 3.9604734733749343 1.5094047862921465 0 1 0
3562 1 5.069030741337966 13.822102821118204 1.1410940724473067 0 0 1
2450 1 15.424659239761802 3.5793956854962357 2.103210448758159 0 1 0
1926 1 15.590812602033424 6.403954121455862 2.2047274664217165 0 0 1
2447 1 19.978270281891316 5.385061981437611 1.9182414364408609 0 1 0
2096 1 20.678566808925538 2.822590193617452 1.4057442244611136 0 0 1
2284 1 23.57225772345857 5.353400872526052 0.8215485863322403 0 0 0
1659 1 24.349988681303422 4.020216488914141 3.1721191926774983 0 0 1
2462 1 13.570941320291519 23.361685442530867 13.55962477787521 0 0 0
2804 1 27.393264014136946 4.214442760318986 2.2381392458518143 0 1 0
53 1 17.066636356979686 -0.28064833084762514 2.257740251999765 -1 0 0
1876 1 33.076019807776625 5.952727159573418 -0.006807315532159852 0 0 1
1211 1 35.24877870100182 4.4109126053599645 1.2702334385312024 0 0 1
2129 1 41.19293287951492 2.7811857954068917 0.9693794500471928 0 1 0
2137 1 42.28571917213208 5.389278508969735 -0.00978505262989604 0 0 0
1099 1 45.058243428140266 5.117273031178822 0.7377390260585648 0 0 1
2071 1 40.46045925246588 24.43079380519987 8.038912506593286 0 0 1
4138 1 18.93462025808044 -0.2957377624825224 4.252790294804393 0 1 1
2549 1 3.2513174951720454 7.481324917128637 1.0374791453700027 0 1 0
4028 1 2.7237031368128695 10.18560923053797 2.3282199130879513 0 1 1
2160 1 5.941198423716954 7.832092463924683 0.6276314629341349 0 0 0
4103 1 9.911946260903447 8.641865462067473 2.551313482664619 0 1 1
1544 1 13.280120683571782 7.44747903530156 0.7333446186313408 0 0 1
1181 1 17.843887106224948 6.641562296227592 0.8572322405347466 1 0 1
3530 1 21.795220672648256 7.362882672594185 1.392305029055232 1 1 1
2068 1 26.23268008535834 9.002673192906688 0.7852559295476425 0 0 1
675 1 28.878653732477442 8.991056319907102 1.6159934276466945 0 0 0
2471 1 24.23657568156227 18.30968516537678 0.973034430121662 0 0 0
380 1 35.01316524760657 12.037554873245874 0.984048043358088 -1 0 0
222 1 35.90973976530225 22.6648703016556 -0.3079459888428905 0 0 0
1820 1 4.015209037626414 4.552700742053078 0.014959727961080693 1 0 1
3282 1 41.92220292352732 7.705650052728679 1.519899725789306 0 1 0
1255 1 45.58696302628123 7.325780643031517 1.9010960517934277 0 0 0
3737 1 25.772334999704672 -0.03659722090594292 2.654128644216628 -1 1 1
3017 1 48.272493124469804 8.307124116037377 1.0575963591228166 -1 1 0
897 1 11.919861833336993 11.678994133246372 -0.17776545802884097 0 0 1
1638 1 0.10417182628061339 11.874450752819161 1.9383746342087917 0 0 1
2537 1 4.908212547180217 11.743026106493621 3.5393650585574497 0 1 0
2790 1 10.347713514259915 9.46620211447808 -0.12913725873769566 0 1 0
3417 1 13.419955641921309 10.096369010564779 1.6023895075536356 0 1 0
2687 1 3.984735179169979 24.380759341915248 4.329010015754887 1 1 0
170 1 16.05812656223773 10.50772663286521 0.7666699547115103 0 0 0
1651 1 17.93373667399582 9.243649714260808 1.7916308292834704 0 0 1
1884 1 20.527225634627907 10.73012183759386 1.296154677644106 1 0 1
709 1 28.26519970617496 11.674045430506022 1.338949081997359 0 0 0
1265 1 8.000302639169474 1.6622199004617473 -0.10101222657806008 0 0 0
439 1 6.958199269406562 24.88573050679461 12.815952070016507 0 0 -1
1595 1 40.902943103846084 10.688280277766797 1.2898526251246718 0 0 1
120 1 44.32074847813385 9.151862404015628 0.335879962255033 0 0 0
1648 1 44.57916563956431 11.775767136944713 1.0577621820999241 0 0 1
1646 1 48.38844112735642 12.716220764318695 0.5868860248530041 0 0 1
2505 1 3.418592273115989 15.157977828416561 3.02554048693066 1 0 0
198 1 3.6116207030489207 13.41057953975308 5.262819500658656 0 0 0
2778 1 8.000654289462844 15.552637466478586 0.37379807427534717 0 1 0
1293 1 11.531959917635845 13.756641255666876 1.6128547789169052 0 0 1
1826 1 14.140024086294773 15.046975920782353 0.9046444706284911 0 0 1
2475 1 31.689597717286027 0.4630238315973527 15.175542576471734 0 1 0
801 1 18.39618259285376 14.570610357070336 2.000878143795237 0 0 1
1672 1 20.73961428788313 13.418658599446546 1.4790743730393179 0 0 1
2498 1 22.531143388517638 14.148580679048855 3.598137261939156 0 0 0
1892 1 25.13036781865829 14.00870801780372 2.294945253807089 0 0 0
3244 1 30.49643034789568 13.085366847684897 1.7387843819214988 0 1 1
2510 1 34.51233212880723 15.141657210468827 0.6039829998886517 0 0 0
1582 1 35.881391525558605 11.895228406923694 3.863674189875434 -1 0 1
1263 1 38.52063419049076 11.824546973714874 3.3727431805374013 0 0 0
2838 1 42.1313535414304 13.549939400943648 0.7837431993810842 0 0 1
3699 1 48.558516547033946 15.269546117241873 0.27372844116848116 -1 0 1
489 1 0.8878575922262393 14.727323080976 14.934749533009267 1 0 0
691 1 2.137716933174916 16.547548277061303 1.0412023092833398 1 0 0
947 1 50.28935929761675 19.313654271603667 1.251528384522171 -1 0 0
658 1 50.31936577208665 17.77742701910218 15.543262614690725 -1 0 0
2075 1 10.632844947898654 15.861222534952368 0.34756766840294495 0 0 1
3853 1 10.910232634372449 18.5753603989547 1.304579625309274 1 0 1
1817 1 14.934034932360644 17.603385666140518 1.8817245692151423 0 0 1
1863 1 19.372091240238507 17.227276699694904 0.9498936415959078 0 0 1
2576 1 28.748328540780445 4.739652439882287 -0.06271583661346075 0 1 0
394 1 28.12621551357554 17.411051886242035 1.1932153260103404 0 0 1
3278 1 2.4898432120696787 -0.5155517216101089 5.220928759611231 1 1 0
966 1 32.08326168051858 18.470857991867703 1.8557938073859734 0 0 0
2564 1 2.408849951540021 0.43973149757803254 -0.3800679103902943 0 1 0
4065 1 35.84987163138794 18.00786138311397 1.1340531702143415 0 1 1
1936 1 38.643814897197004 17.525112528972638 1.6099885550262392 0 0 1
3407 1 41.961264302828326 15.503984603683488 2.946473179711222 0 0 1
1424 1 41.24137442219942 18.15371253358955 3.6707891381353415 0 0 1
1322 1 34.31877580693114 1.183280448789837 3.701924632604179 0 0 0
1042 1 46.72312940872537 14.868730666340971 4.40238780279311 0 0 0
1963 1 46.356150382998116 15.959031951712902 1.9641991996488204 0 -1 1
2711 1 1.0495848184131817 20.62078155262954 3.0283077440170647 1 0 0
454 1 4.368164287213014 18.60140181818883 0.6091176064336867 0 0 0
519 1 5.119082867565858 20.636564731964135 2.3887505201145474 1 0 0
35 1 8.669157596926615 19.67781055351901 0.6638978992789408 1 -1 0
953 1 13.519795664718549 19.63725238638721 0.6760289383813063 0 0 1
154 1 12.874034684679025 22.228820502617012 1.3520940024284007 0 0 0
1146 1 17.16133567433317 21.361419409195854 0.8472530360108046 0 0 1
1619 1 21.382885258994982 18.527758498359884 2.4066858021238415 0 0 1
1179 1 22.00606978437892 20.550352482974922 0.8690930876854577 0 0 0
1801 1 25.550730286619896 20.518913710420584 0.2738244244634017 0 0 1
2627 1 28.651130299839302 19.869776566105333 2.2639672274324503 0 0 0
3286 1 33.40086188127767 20.84919782347334 1.3440517140728847 0 0 1
2298 1 36.3623527156833 20.749731207493262 2.0427889265834356 0 0 0
461 1 1.673065691799128 11.733540962110789 16.483992907030206 0 0 0
513 1 39.516123193730735 20.229187262465427 1.8397642174909485 -1 0 0
2172 1 43.41807771338769 19.79365173885847 2.5140996617832667 0 0 0
2583 1 10.765819114237964 24.74042145712652 9.994333668182575 0 0 0
590 1 46.25227412106554 18.47524141087697 3.193894438568993 -1 0 0
219 1 47.94335167843423 20.312705607585272 1.825586633936851 -1 0 0
3091 1 0.4656209217890771 23.153232830110376 0.903475895459297 0 1 0
2011 1 3.2081923577668534 22.559587461028993 2.2654078027552584 1 0 1
2396 1 12.438366554067164 21.724015590567994 15.712407211027045 1 0 0
1830 1 5.842481226997042 23.761653883098564 1.4362968364790796 0 0 1
1622 1 26.01014582677745 6.372947908958533 0.04010730432088949 0 0 1
1125 1 10.291380133259997 23.63238845964889 0.9686126610123789 1 0 0
2977 1 45.80027831590624 24.338365141747104 12.65508330072472 -1 1 0
4051 1 37.6303669219191 23.116265827912923 15.410096967875194 0 0 1
2799 1 19.08151169170173 23.651256980139642 3.2252414028857608 0 1 0
1811 1 24.00248708945257 22.417042224209975 2.330942701668256 0 0 1
1106 1 30.421019113600973 21.231457332035177 0.804179472295693 1 0 0
1620 1 28.897076566806057 23.58110971633957 2.0977357659887756 0 0 1
320 1 30.803221044486953 9.077878939410125 -0.23603460840836227 0 0 0
24 1 11.161686503459242 14.119682804102746 13.93348069106267 0 0 0
2692 1 42.66848392980244 22.396201196306254 1.6359740215740883 -1 0 0
2671 1 21.651064388066178 3.951220296860458 15.33066886434276 0 0 0
1663 1 45.46772488706918 23.139950718602037 0.29018329193658277 -1 0 1
3771 1 49.438001318387904 24.48253840765106 2.065834296683318 0 0 1
1232 1 7.691739776883416 0.8768054132252037 4.722738912780925 0 0 1
2296 1 9.834775251411328 2.5185192868928095 4.53978114953029 0 1 0
3884 1 13.556574863108018 0.2250684997973058 5.679950859278827 0 1 0
382 1 33.53200064569545 8.575837034672082 1.0969640722105767 0 0 0
1143 1 17.10918564274114 1.231129353945106 5.958025849880142 0 0 1
3925 1 21.46549238180664 0.881788112033538 3.5783507257598774 0 1 1
3110 1 24.299571924975613 1.566614286719965 4.418034303368998 0 1 1
1388 1 28.956115887440355 1.134196264049209 6.6560031758968625 0 0 1
2090 1 31.657574282826907 2.3482945689436083 2.83316496780289 -1 0 1
1809 1 24.646872480617606 -0.0856909804029799 0.1605158293792518 1 0 1
4075 1 35.848025318643465 2.8817118443247938 5.058918736371911 0 1 1
1022 1 40.93762518362315 1.9898746074785092 5.855010504917303 -1 0 1
1055 1 46.55271739561676 0.9201090649638712 5.843775952602791 0 0 0
1157 1 0.19922828161708261 0.4746146838418508 3.486983483405055 0 0 1
606 1 50.40705353965735 3.408419397539059 3.586397111454482 -1 0 0
1406 1 2.6048514758689683 3.366535756004832 3.3972854335485283 0 0 1
1593 1 3.9077604556571695 5.6954457138023455 3.2860917338911433 0 0 0
1715 1 6.731045045348068 5.4274897846691035 3.8609978743426874 0 0 1
2193 1 9.12798902339357 4.613521011463034 2.9804150223373655 0 1 0
2047 1 13.218655120663762 4.130075685658505 6.297649797833142 0 0 1
1056 1 15.97302464752931 3.3852291644549477 4.865184763217502 1 0 1
201 1 21.732478824665833 3.239717040500568 5.417830775234221 0 0 0
650 1 22.748334100191233 7.541905257649047 7.65944437832461 0 1 0
3715 1 23.858791360626494 5.776799772221489 5.338560457598174 0 1 1
2198 1 28.31809288621341 5.168837298698404 4.639275994570294 0 1 0
3977 1 26.296762320802426 5.020370630374366 6.558552853972994 0 1 1
700 1 30.413204584188094 3.2765340747419174 5.0653034555465055 1 1 0
3579 1 37.607500658972434 4.38879183066878 3.4392430093329343 -1 0 1
1470 1 40.37445173340846 3.845229099569025 3.6353964904515816 0 0 1
3540 1 46.29963610939701 3.0595309281682694 1.9164829959097327 0 1 1
3971 1 46.241881171486206 3.2670786036152504 4.8905703648806425 -1 1 0
3719 1 48.754912506367766 3.8838854604884805 5.608428098712865 0 1 1
148 1 -0.29502522260883723 8.08231662622632 4.423647216821724 1 0 0
3888 1 7.256952676390589 7.930661823962602 3.038439993331027 0 0 1
749 1 11.31468044346035 6.40387885876536 2.990951235593206 1 0 1
2785 1 12.326354561007857 6.63447754096567 5.550249499688085 1 1 0
760 1 17.677346710529434 5.653149490044176 5.421522838386193 0 0 1
1160 1 14.172562124312 8.784522919588891 5.642101781897387 1 0 0
2170 1 20.288003545702377 5.378119368646638 4.6569048932418085 0 1 0
1171 1 20.759579644064857 7.874333495381832 5.61275228639845 0 1 0
3429 1 25.811856013894538 7.845040666390199 4.848615507864943 0 1 0
153 1 28.56837259610244 7.958458978937534 4.204892112427477 0 0 0
3932 1 34.16704013104655 6.732272365077412 3.9140196422531046 0 1 1
1214 1 33.529099079536635 8.634836288658862 5.47654699612918 0 0 1
1760 1 36.59471881626484 6.960884257829158 2.5554538871074186 0 0 1
1770 1 41.05740841439591 6.632337354128476 4.003942858366679 -1 0 1
612 1 38.57738975897623 7.259962879495545 4.675835482940314 0 0 0
725 1 42.695419993557245 6.550545542509613 6.310682784186118 0 0 1
1649 1 43.66259780219743 9.098320781449775 6.619596096024198 0 0 1
2279 1 45.72007696131018 7.487141029904006 4.651541860531346 -1 1 0
1561 1 49.22539523187956 10.138225104245313 3.0092254984671576 0 0 1
324 1 49.45747205118028 12.030259313768473 5.403228723240853 -1 0 0
1568 1 1.8162841733963582 12.697849695971 8.743032592623408 1 0 1
1377 1 1.3675866534431547 12.092123059499711 5.952883444328249 0 0 1
868 1 5.85297748465531 9.45989403589099 4.817405270961431 1 0 1
2238 1 10.571533445336032 10.396685936694544 4.336646610783972 0 0 0
1640 1 13.355599270622454 10.73248922348412 4.200582758678913 0 0 1
3082 1 16.57091333785403 8.18119807629439 4.3291984026101105 0 1 0
1713 1 14.849321613926715 13.122346682811044 4.594033433458613 0 0 1
623 1 19.254301814215825 12.45418623716575 5.971064805599621 0 0 0
2568 1 21.774131592365162 9.438440257276778 3.3187658250280303 1 1 0
1201 1 21.916625091447447 12.0602735953516 5.281284167949974 0 0 1
1735 1 24.421854688224077 9.900797858972114 3.109906232258905 1 0 1
2209 1 29.81184878470387 9.907328135596046 5.684300443946471 0 1 0
1173 1 30.961334252262354 12.084199081535456 4.298175522913411 0 0 0
3951 1 33.22232825275782 10.56549449555914 3.3818962488819375 0 1 0
3368 1 37.91354867038604 9.864565946341491 5.9148201921480235 0 0 1
1941 1 34.7928050464982 12.174571121148418 6.602428752271162 0 0 1
2542 1 40.39437016209288 9.867085255948078 4.082041188557858 0 1 0
119 1 41.59581381998835 11.097192394339446 6.248139818543797 0 0 0
2856 1 45.96416372248494 10.483043675688595 5.6062461240993455 -1 1 0
2521 1 0.7889049903102401 14.102797116755706 3.7379953792967937 0 0 0
3783 1 49.50421711154096 16.085537286395734 4.431927725225982 -1 0 1
583 1 7.163394263392989 14.613555690977703 2.9001721408605166 1 0 0
3242 1 6.453795267824322 12.207858763841326 6.707494470650138 0 1 0
3625 1 9.264870238016846 12.976645000161831 3.064918893807971 0 0 0
1062 1 10.6414966813916 13.474119160503648 5.255527822733817 0 0 1
459 1 12.692402858407187 15.02110599726271 4.035853383390683 0 0 0
1489 1 17.416516992654643 14.218219977269243 4.623264386904543 1 0 1
1733 1 26.370393100379896 11.88733778723328 3.4930179482973323 0 0 1
3428 1 32.561166478678075 14.031664264862748 5.148811081641698 0 0 0
2949 1 34.7095453388142 14.564702985130294 3.454740065027712 0 0 1
591 1 39.82677451739185 13.328756812589873 5.792798387700122 -1 0 0
474 1 39.12901714546037 14.80850552684071 2.839575675975367 0 0 0
2637 1 42.241498877861474 14.845302821634734 5.641869394360024 0 0 0
2738 1 43.94752911725133 12.528982196299033 5.510518975018907 0 1 0
3067 1 47.078697618584506 12.28537655179277 3.1525877283713757 0 1 1
1772 1 4.542951906509146 17.170362942161667 5.033736676008456 0 0 1
2543 1 7.132983402501162 16.65546842534428 4.887783164558773 0 0 0
2966 1 10.711844629278158 19.010735680253863 4.211593248194516 1 0 1
2390 1 12.340719788597678 17.20438967634333 5.631666707036997 0 0 0
318 1 15.041975681969515 17.90145947845005 4.593474012523818 -1 0 0
3222 1 17.344678086712733 16.710217436238764 5.90233069139036 0 0 1
3275 1 20.1178576617508 17.777082096761394 5.886093403999757 0 1 0
2190 1 22.360963384553536 16.966913630611728 4.374313978582096 0 0 0
1504 1 25.965862799336897 16.720397005855524 2.986241161149922 0 0 1
3630 1 30.111010925481814 15.852915046136616 5.156445715300843 0 0 1
3177 1 27.359745972729847 15.372443593906523 5.415196397525513 0 0 0
143 1 30.412409025748136 15.693198464466992 2.2393728768191417 0 0 0
3119 1 34.21048114350833 17.491397229764615 3.1498192521288124 -1 0 0
4072 1 37.20124325466704 15.416110479937053 5.280184968830936 0 0 1
1931 1 41.02536976442962 18.019872301045343 6.271479030264152 0 0 1
1052 1 46.70666091480394 19.20928147499054 5.885192119296163 -1 0 0
3964 1 45.20360372782098 15.166509383680214 6.9072179484158625 -1 1 1
580 1 50.416462830628745 16.43518317479413 1.7253579674580837 0 0 0
1851 1 49.194206183670296 18.595377994900446 5.475481781060108 0 0 1
48 1 50.19152904693258 21.06827973527563 5.013361969043984 -1 0 0
1999 1 3.4143250964883385 19.7656486679221 4.469385794581519 1 0 1
2874 1 8.01689319054464 19.36837724935202 4.993202954661197 1 1 1
3664 1 7.7229389838082785 21.00263036575276 2.864256014905334 0 0 1
2658 1 11.742894589996581 21.37050788315535 5.626841344870242 1 0 0
288 1 13.412431284809117 22.340699194866005 4.159989454757737 0 0 0
1002 1 17.977070405902886 21.0951166352013 3.45206698089965 0 0 0
3237 1 15.419009692890752 20.573727337746867 4.902058026604492 -1 0 0
1764 1 20.788764554018275 21.00629532359789 6.8702190424068945 1 0 1
2222 1 20.48414449935786 20.45906160697761 4.149502385821196 0 0 0
2776 1 24.43172211322854 18.71622918790113 4.745032946601134 0 0 0
3924 1 26.018767499554592 20.976714697539556 3.2229959557416605 0 0 1
2516 1 30.195475366960693 18.912923016743296 4.138035368580539 1 0 0
3944 1 32.061465521966426 20.884284335571973 5.1333266092497505 0 0 1
961 1 33.92648604539338 18.92258362597923 5.70984090049749 0 0 1
3503 1 37.01416621451623 21.74028676734151 4.648014364423771 0 0 0
2152 1 46.28483982306378 21.975653586698858 5.633857331973795 0 0 0
3313 1 48.3081642863123 22.44716414681606 3.6120366027776507 -1 0 0
1723 1 17.088173220551727 18.568048162460766 0.19257645803400192 0 0 1
543 1 8.449630662651636 23.8847292809298 3.1391269748349537 0 0 0
2751 1 9.993810260036257 23.525824874104572 5.474271087450645 0 0 0
2409 1 0.08118620528227449 6.018037066566198 16.149667007311287 0 1 0
2404 1 17.059312135365534 24.268796245481745 5.200363999883814 0 0 0
3713 1 21.67305681743805 23.335520106289724 4.135727208601117 0 0 1
2573 1 9.522463257357199 21.531211505853182 15.480143507656468 1 0 0
3162 1 27.149991277499026 23.197977084423318 4.445233164501122 0 0 0
2831 1 32.84938169082515 23.101295534596964 3.329245212360794 0 0 1
1367 1 6.9318896107412495 17.794840146237004 -0.3406949543462198 0 0 0
381 1 35.194984267691055 23.78509763259172 4.474429200051548 0 0 0
830 1 39.58313186827098 22.26462878091877 3.877801833449772 0 0 0
3157 1 42.82584660718336 23.868492887689573 4.093964158139694 0 0 0
4098 1 3.298453802315882 2.0528369758481553 5.953586977332974 0 1 1
2690 1 5.875505229177923 1.6887379545589134 6.511327158344083 0 1 0
3379 1 6.376951944883135 -0.17140702819453674 8.531292065238206 0 1 0
2302 1 47.165056305826674 15.355390495952342 16.006740879460498 -1 1 0
113 1 10.689809415609185 1.7623318497913911 9.042498062705697 0 0 -1
750 1 11.549089629090487 2.09697617351792 6.643865099012148 0 0 0
147 1 15.307885810543025 0.1185609318294113 7.895013809987871 0 0 0
1501 1 14.949434324291389 2.130154624329428 9.534693131747034 0 0 1
2483 1 19.643258123327332 2.1799167430884836 6.750874787216893 0 1 0
3705 1 20.670596630013506 0.4274262107366663 8.900946544593754 0 1 1
4079 1 25.963130618593862 0.9787057698594817 8.785466789736573 0 1 1
1082 1 26.318984222762893 2.3108349100613625 6.3389075490340145 0 0 0
586 1 30.831999132032962 1.2433537593681363 8.876348947692204 0 0 0
3223 1 13.410451858370594 24.6150052538885 9.204295647937704 0 0 0
2151 1 36.740006490480035 1.3890205685811061 7.507801993288265 0 1 0
975 1 44.48670814371309 0.5418892570713827 7.605990780433677 -1 0 0
3250 1 48.969084933429926 0.1877001107898697 6.98224693427685 0 1 0
1347 1 1.5293347344460075 2.888771115742324 8.254043156651925 1 0 0
835 1 2.4640231939872006 5.18269095919569 9.153585226460917 0 0 0
2962 1 7.268923239869064 6.029145881079014 6.680543670464872 0 0 1
336 1 7.14962341713748 3.731284722912469 8.42007115093633 0 0 -1
1765 1 15.0372005786707 4.727300850569073 8.445698287083825 0 0 1
929 1 19.26517409908517 4.1585129632222255 8.741823992372865 0 0 1
518 1 23.217493427218074 4.048303843228379 8.094489165788302 0 0 0
2843 1 31.55265364437274 3.8325782728026523 9.246104379020172 0 1 0
3024 1 31.881435171320476 4.998883229676539 6.821370393068091 0 1 0
2420 1 34.35047953267824 4.958556997688817 5.975741552366989 0 0 0
2425 1 38.903467266972015 3.1832738180298983 7.0695550152837 -1 1 0
81 1 43.015940871602744 2.6929585156171547 7.721085027348067 -1 0 0
1579 1 44.869029398053954 4.842570503388257 6.774219502884381 -1 0 1
3204 1 46.50586195216696 6.000122016271321 8.558416894398858 0 1 0
1774 1 49.742813010691684 2.5806306005679307 7.858890863411217 0 0 1
2326 1 1.8763585928864548 9.482163605884905 4.917232064604368 0 1 0
2948 1 3.969892169679751 7.670963716249457 5.073729691217954 1 0 0
719 1 5.079448376863291 7.436368029797521 7.814318785885261 0 0 0
2391 1 10.085457715522328 6.49769853146393 7.361416332070632 1 1 0
3544 1 17.31747524123313 6.045320654087082 8.052176972744249 0 1 1
1246 1 17.37204184899082 8.683504702290344 8.653595974577367 0 0 1
1334 1 14.91116433643623 9.761669067468926 8.08103091781786 0 0 0
677 1 25.11736787058981 9.385365958707 7.281373623085649 0 0 0
556 1 26.742828799427333 7.291507269895524 8.86071113962877 0 0 0
2920 1 31.262334714549823 7.737115139656218 6.9257687717921605 0 0 0
188 1 31.361862652275256 8.2785518053836 9.611530137187003 0 0 0
1919 1 35.75151099119184 6.672565437628547 8.16506011897398 0 0 1
2460 1 38.73246867285067 6.254357693569205 7.389392048759957 0 1 0
1709 1 40.94240027495804 7.039874768487911 8.761336024852659 0 0 1
2 1 47.93617400774003 6.502036708288893 5.933435804730959 -1 0 0
1696 1 49.7159339656077 8.250470688268225 7.180868953020193 -1 0 1
1545 1 0.6094295064519273 7.427540872619723 9.459465362328299 0 0 0
732 1 6.647315028597167 11.07933671796564 10.104686318924932 0 0 0
330 1 6.91544013572902 9.621589278759355 7.507619917121271 0 0 0
2474 1 9.696638520039594 9.07320344120968 6.827488196561601 0 1 0
3434 1 11.079029776908369 10.335702734918847 9.073597347201671 0 1 1
262 1 14.770163871976377 12.364488839311312 7.067152591531594 1 0 0
772 1 18.83444781882308 9.728235811680456 6.49883583988524 0 0 0
596 1 20.938452790756667 9.776155788208374 8.369583420221339 0 1 0
993 1 21.711596343728374 12.38753019931058 9.254697791657248 0 0 0
769 1 27.801500255886246 10.728500023417524 7.191918730464185 0 0 0
3160 1 28.29976961313512 11.57515767009462 10.004399786440596 0 1 0
1564 1 32.63361473554443 13.084546729852828 8.23182073735404 0 0 1
206 1 35.828189043432936 9.510299767353375 7.580739241260497 0 0 0
2729 1 37.13272887461917 10.531700082237496 9.948904688227994 0 0 0
3680 1 39.87874340663596 10.370639531754321 8.310589103653088 0 0 1
2612 1 44.36142204496897 9.377325503507173 9.316850284233807 0 0 0
3089 1 47.49226199158088 10.409478928869937 11.642799915997907 0 1 0
1675 1 48.08372141922062 10.592395752942375 7.226962450940501 -1 0 0
551 1 49.981040397726595 14.714328849490792 6.432185680245257 0 0 0
1376 1 4.339513865103771 14.25540417700669 8.006327191556922 0 0 0
3391 1 8.150791054455574 14.806503783666244 6.7208263479465336 0 1 1
850 1 11.939087506580421 12.60072800916648 7.73035640415201 0 0 1
3290 1 15.228475028003754 13.737869189528746 9.46209644263548 0 1 1
2025 1 19.757050113136415 14.10946039019168 8.031591115333926 0 0 1
2490 1 18.02558247466094 14.66346126817851 9.888389498848436 0 0 0
3364 1 26.46934164425538 12.857386550326508 6.195547969178686 0 1 1
3988 1 24.23724789154656 14.223465370108693 9.819124951253116 0 1 1
2304 1 23.99078849697044 12.23036956695719 7.267620881056323 0 0 0
2814 1 31.026079123000027 15.34629698003457 7.804928516332087 0 1 0
2423 1 34.4969832515196 14.144299760723907 10.359932818853071 0 0 0
3885 1 37.25484109216967 13.278038714954063 7.281818719576001 0 0 1
2803 1 39.67241318436519 12.961815293822813 9.427146244188698 0 0 0
1854 1 44.56652230059969 12.408629095472778 8.729695310535682 0 0 1
1129 1 47.24724593015499 12.28741940238094 9.197002280508519 0 0 0
2716 1 50.32609987991057 17.98427379682003 8.031092365204204 -1 1 0
2260 1 3.5081829225530266 16.93641468827815 7.763665862743707 0 0 0
558 1 4.6095797160198835 19.423609394513285 8.629987299389079 0 0 0
1516 1 7.914268807712247 15.44714871357848 9.540820959946355 1 0 1
125 1 10.662424562772207 16.37341780721615 7.471260375243892 0 0 0
3814 1 12.38445093193824 14.671603703844081 9.371348282319891 0 1 1
1523 1 13.911736655945209 18.451842041445 7.594802391616952 1 0 1
3347 1 17.454307047258826 17.188127736103855 8.678326313698856 0 0 1
2892 1 21.22631615351628 16.344082659107556 7.952359018245577 0 0 1
3057 1 27.42556867498514 17.465150119028802 7.360818302687021 -1 0 1
3400 1 32.946509450635425 17.38099466635201 7.883520740498989 1 1 0
2400 1 34.72503283540038 16.89019782660996 10.007828392575659 0 1 0
233 1 37.593891426836706 16.990741475660528 10.001493708798998 0 0 0
3918 1 38.365264557324394 16.990581153545275 7.067649094583587 -1 1 1
1818 1 40.606370128895264 15.088714967131917 8.350370599942629 0 0 1
1634 1 42.376079744552605 16.04764652776438 10.339863888985338 0 0 1
418 1 43.592939561816735 17.222624516941874 7.815963352830524 0 0 0
3554 1 47.796979890017674 14.638735818999882 8.146092769817555 -1 1 1
3153 1 48.00517904103853 16.877840297276954 9.288097271388114 -1 0 0
2806 1 0.6523060360521622 21.990793376162287 7.375527961210868 0 0 0
924 1 3.1602358124710976 20.90892755870734 6.90189942560342 1 0 0
4056 1 7.37557821306434 19.914777979549882 7.716184798817844 0 0 1
340 1 10.067941607164194 19.04434429222117 8.606383503536613 0 0 0
65 1 12.226810741011088 20.497035383750436 8.21731416145055 0 0 0
2078 1 15.96066247092958 21.05240997657155 7.579305432254202 0 0 1
3053 1 18.344480212635144 19.815260018134463 7.887616320844865 0 1 0
3519 1 23.791714560611776 21.202365681224485 7.5059392452086335 0 0 1
1478 1 24.991096446608548 18.680002501137942 7.286126739109643 0 1 1
3800 1 29.302036337878256 19.62711786274146 6.8383100682274485 0 0 1
4053 1 31.416690648997594 19.360464701227787 8.779790515881343 0 1 0
3009 1 36.597208104433435 19.37369675177044 6.488924241923905 0 0 0
3926 1 36.614450699439935 21.1748028632861 8.642878040794711 0 0 1
325 1 39.26739847474203 21.94586745485515 8.136694710717263 -1 0 0
395 1 43.44416357303492 20.377511193790337 8.428950839610192 0 0 0
2626 1 41.05653716724295 20.86127741964658 9.992732383791987 -1 0 0
1383 1 46.21941093850496 19.059772917850655 8.61911454228901 -1 0 0
4054 1 0.03919014745514715 24.580896841237884 7.80293590996634 0 1 1
2499 1 4.639729387801362 23.31943300772943 6.723832943299063 0 0 0
1264 1 2.9161659915827847 24.49234198327674 8.686215991279653 1 0 0
775 1 6.673152159541524 22.439415210216655 8.736078075154534 0 -1 1
1794 1 8.941576841317675 23.89237354725643 8.057310959694572 0 0 1
2453 1 10.58993413954334 23.80019846295005 12.519828789546334 0 0 0
10 1 13.104997003169819 22.11384089697621 10.503521269268294 0 0 0
389 1 31.22120073215497 4.260324615478241 0.9609571348410688 0 0 0
1655 1 18.09883058845148 24.328683196479364 9.266948874050575 0 -1 1
3818 1 15.790599199851904 23.771605203629154 7.728069958878626 0 0 1
2826 1 22.06695827638911 23.740240007256826 6.796923784723813 0 1 1
80 1 25.973496466967145 22.474805705407043 8.507416092710884 0 0 0
534 1 23.478919323103806 22.150016798519065 13.789172009149755 0 0 0
1123 1 28.17591201655969 22.212341727549088 6.821090954938609 0 0 1
3403 1 31.885124612539343 22.015784111814764 7.7850078592649705 0 0 1
1162 1 29.878257017483172 23.768918723747532 8.686984207746745 0 0 1
2628 1 34.422268005522525 23.035750206973667 8.555200648273352 0 1 0
2746 1 40.87597636338908 20.960973840537434 6.065152320743242 0 0 0
1928 1 39.42648291526311 22.928034447417907 11.176487151856863 0 0 1
3563 1 43.177837293199744 22.76940774525215 6.519474504321982 -1 0 1
3062 1 19.868500270329804 22.432742712569986 0.527029338742312 0 0 1
854 1 47.22584723854796 23.221180777046865 7.942525940545092 0 0 0
2228 1 2.3678489707110546 19.7881846101426 16.23446353793392 0 1 0
669 1 49.00651940253877 24.54886433388789 5.7087699452382115 0 0 0
821 1 0.701911759205859 0.30072213700369466 12.250388666707131 0 0 0
3251 1 2.4698393174213815 0.6524667477758743 10.14413318989103 1 1 0
1972 1 5.1369231574516565 0.9079256624751324 10.719022517860239 0 0 1
2372 1 12.734579596031482 1.2085671070021322 10.854739894286501 0 1 0
68 1 9.35340030990866 14.768650326533459 16.00659010531369 1 -1 0
3591 1 17.4932197497266 2.300251348552472 10.937414002366094 0 0 1
2713 1 22.864981496339627 1.7946677279623464 12.266099266275585 0 1 0
2341 1 23.246754907408942 1.6022091250949662 9.326389889779502 0 1 0
778 1 28.449569415321193 0.6563282586139949 10.561100688703965 0 0 0