
# Create simulation box of size 50 x 50 x 50 Angstrom
#
lattice	            sc 1
Lattice spacing in x,y,z = 1.0000000 1.0000000 1.0000000
region 	            all block 0 50 0 50 0 50 units box
create_box          1 all
Created orthogonal box = (0.0000000 0.0000000 0.0000000) to (50.000000 50.000000 50.000000)
  1 by 2 by 3 MPI processor grid

# fill box with 4175 randomly distributed atoms
#
create_atoms        1 random 4175 63782 all
Created 4175 atoms
  create_atoms CPU = 0.000 seconds
mass                1 18.015

# Define potential
#
pair_style          sw
pair_coeff          * * ML_mW.sw mW
Reading sw potential file ML_mW.sw with DATE: 2019-02-27

# Run minimization
#
minimize            1.0e-8 1.0e-8 10000 1000
WARNING: Using 'neigh_modify every 1 delay 0 check yes' setting during minimization (../min.cpp:187)
Neighbor list info ...
  update every 1 steps, delay 0 steps, check yes
  max neighbors/atom: 2000, page size: 100000
  master list distance cutoff = 6.0032907
  ghost atom cutoff = 6.0032907
  binsize = 3.0016454, bins = 17 17 17
  1 neighbor lists, perpetual/occasional/extra = 1 0 0
  (1) pair sw, perpetual
      attributes: full, newton on
      pair build: full/bin/atomonly
      stencil: full/bin/3d
      bin: standard
Per MPI rank memory allocation (min/avg/max) = 4.255 | 4.258 | 4.261 Mbytes
Step Temp E_pair E_mol TotEng Press 
       0            0    7792709.3            0    7792709.3    5898794.3 
     630            0   -45180.336            0   -45180.336   -154.07449 
Loop time of 1.16907 on 6 procs for 630 steps with 4175 atoms

98.1% CPU use with 6 MPI tasks x no OpenMP threads

Minimization stats:
  Stopping criterion = max force evaluations
  Energy initial, next-to-last, final = 
      7792709.32924461  -45180.0188663597   -45180.336116598
  Force two-norm initial, final = 2.0191930e+08 4.9721331
  Force max component initial, final = 1.0948746e+08 0.73126211
  Final line search alpha, max atom move = 0.053306038 0.038980685
  Iterations, force evaluations = 630 1000

MPI task timing breakdown:
Section |  min time  |  avg time  |  max time  |%varavg| %total
---------------------------------------------------------------
Pair    | 0.89037    | 0.99492    | 1.0865     |   6.1 | 85.10
Neigh   | 0.023775   | 0.024791   | 0.025934   |   0.4 |  2.12
Comm    | 0.036558   | 0.12887    | 0.23484    |  17.2 | 11.02
Output  | 0          | 0          | 0          |   0.0 |  0.00
Modify  | 0          | 0          | 0          |   0.0 |  0.00
Other   |            | 0.02049    |            |       |  1.75

Nlocal:        695.833 ave         704 max         685 min
Histogram: 1 1 0 0 1 0 0 1 0 2
Nghost:        1494.17 ave        1515 max        1468 min
Histogram: 1 1 0 0 0 0 1 1 1 1
Neighs:        0.00000 ave           0 max           0 min
Histogram: 6 0 0 0 0 0 0 0 0 0
FullNghs:      19997.0 ave       20462 max       19320 min
Histogram: 1 1 0 0 0 0 0 2 0 2

Total # of neighbors = 119982
Ave neighs/atom = 28.738204
Neighbor list builds = 26
Dangerous builds = 0

# Add velocity/set timestep
#
velocity            all create ${TEMP} 120598 rot yes dist gaussian
velocity            all create 230 120598 rot yes dist gaussian
timestep            5.0

# Define output
#
compute	            1 all msd
thermo	            100
thermo_style        custom step temp press vol etotal ke pe c_1[4] density

# Neighbor lists
#
neigh_modify        delay 0 every 1 check yes

# Set fixes
#
fix                 1 all momentum 10 linear 1 1 1 rescale
fix                 2 all nve
fix                 3 all temp/csvr ${TEMP} ${TEMP} 500.0 928347
fix                 3 all temp/csvr 230 ${TEMP} 500.0 928347
fix                 3 all temp/csvr 230 230 500.0 928347
fix                 4 all press/berendsen iso ${PRES} ${PRES} 1000.0 modulus 20000
fix                 4 all press/berendsen iso -850 ${PRES} 1000.0 modulus 20000
fix                 4 all press/berendsen iso -850 -850 1000.0 modulus 20000

# Run 0.5 ns equilibration
#
dump                1 all custom 1000 eq.${NAME}.dump id type x y z vx vy vz
dump                1 all custom 1000 eq.liquid_density_MLmW.dump id type x y z vx vy vz
run                 100000
Per MPI rank memory allocation (min/avg/max) = 3.506 | 3.508 | 3.511 Mbytes
Step Temp Press Volume TotEng KinEng PotEng c_1[4] Density 
     630          230    892.42114       125000   -42318.699    2861.6373   -45180.336 2.7295415e-33   0.99914793 
     700    146.37597   -697.62299    126259.66   -41428.433    1821.1953   -43249.628   0.27795357   0.98917971 
     800    181.12877   -898.75372    126709.47   -40613.782    2253.5862   -42867.368   0.64469803   0.98566817 
     900    204.27104    -854.6884    126948.37   -40148.329    2541.5201   -42689.849     1.118379    0.9838133 
    1000    214.20237   -1026.2109    127414.11   -39841.979    2665.0847   -42507.064    1.5335402   0.98021709 
    1100    221.55173    -688.6399    127689.51   -39646.947    2756.5247   -42403.472    1.9375459   0.97810298 
    1200    223.07704   -533.58396    128091.28   -39675.251    2775.5025   -42450.753    2.3045567   0.97503505 
    1300       223.99   -985.21041    128275.08   -39658.875    2786.8615   -42445.737    2.6881344   0.97363796 
    1400    220.95453   -850.88187    128261.84   -39667.597    2749.0944   -42416.692     3.044377   0.97373846 
    1500    221.64684   -687.22959    128513.05   -39604.192    2757.7081     -42361.9    3.3781173    0.9718351 
    1600    230.83327   -695.17935    128803.26   -39505.773    2872.0048   -42377.777    3.7486389   0.96964543 
    1700    229.57897   -748.44712    128817.59   -39537.988    2856.3989   -42394.387    4.0870165   0.96953755 
    1800    224.78611    -788.4139    128995.43   -39614.584    2796.7666   -42411.351    4.4847208   0.96820092 
    1900    229.50956   -960.90839    129008.74   -39603.051    2855.5353   -42458.586    4.9656661   0.96810099 
    2000     231.9263    -830.7999    129064.93   -39572.968    2885.6041   -42458.573    5.3090495   0.96767954 
    2100    234.41629    -983.3672    129247.32   -39515.741    2916.5843   -42432.325    5.7495367   0.96631394 
    2200    233.11505   -927.61667    129145.79   -39555.918    2900.3944   -42456.312    6.0314619   0.96707363 
    2300    231.53293   -755.44413    129235.56   -39549.503    2880.7098   -42430.213    6.3413393   0.96640193 
    2400     231.2846   -704.29033    129268.79   -39579.898    2877.6202   -42457.518    6.7031169   0.96615345 
    2500    236.04979    -914.0169    129609.48    -39551.27    2936.9081   -42488.178    7.0632328   0.96361385 
    2600    235.05144   -969.22712    129358.29   -39527.004    2924.4868   -42451.491    7.3694104   0.96548501 
    2700    238.60675   -600.54104    129771.39   -39561.659    2968.7216   -42530.381    7.7099128   0.96241161 
    2800    231.97525   -710.83692    129858.81   -39561.852    2886.2131   -42448.066    8.0864108   0.96176368 
    2900    233.69035   -720.43238    129996.22   -39632.273    2907.5523   -42539.825    8.3878973   0.96074706 
    3000    231.11542   -847.20731    130167.71   -39665.876    2875.5152   -42541.391    8.6481289   0.95948136 
    3100    233.72078   -707.48835    130292.22   -39662.117    2907.9309   -42570.048    8.9487605   0.95856446 
    3200    230.93016   -848.19358    130402.95   -39729.074    2873.2102   -42602.285    9.1386536   0.95775047 
    3300    232.83046   -739.38991    130424.54    -39723.34    2896.8536   -42620.194    9.4809946   0.95759196 
    3400    229.27696    -697.6919    130564.41   -39776.559    2852.6413     -42629.2    9.7593817   0.95656613 
    3500    231.63819   -781.29952    130871.39   -39815.032    2882.0195   -42697.051    10.026575   0.95432236 
    3600    229.09415   -954.71351    131006.98   -39869.181    2850.3667   -42719.548    10.249565   0.95333461 
    3700    226.91658   -841.18822    131097.25   -39935.505    2823.2736   -42758.779    10.613942   0.95267819 
    3800    232.14922   -699.41893    131358.41   -39888.317    2888.3776   -42776.695    10.961562   0.95078409 
    3900    232.47561   -939.18391    131252.86   -39942.947    2892.4385   -42835.386    11.213647   0.95154874 
    4000    231.15612   -819.46088    131048.61   -39957.956    2876.0216   -42833.977    11.472487    0.9530318 
    4100    225.51481   -883.28461    131193.53   -39951.069    2805.8329   -42756.902    11.547247   0.95197901 
    4200    231.99167   -861.55534    131249.05   -39974.764    2886.4175   -42861.182    11.580967   0.95157631 
    4300    231.01821   -764.79156    131523.09   -40004.932    2874.3057   -42879.238    11.732568   0.94959366 
    4400    230.97689   -714.21124    131384.92   -40020.171    2873.7917   -42893.963    11.879939   0.95059225 
    4500     229.0047   -787.95245    131343.16   -40028.555    2849.2538   -42877.809    12.014183    0.9508945 
    4600    229.65877   -780.42039    131619.51   -40091.321    2857.3917   -42948.713    12.158766   0.94889799 
    4700    228.07909   -831.23949    131634.72   -40032.189    2837.7374   -42869.926    12.459037   0.94878837 
    4800    226.71873   -850.14357    131606.86   -40105.933    2820.8121   -42926.745    12.544998   0.94898923 
    4900    227.46951   -766.91286    131694.07   -39982.753    2830.1532   -42812.906    12.785928   0.94836079 
    5000    235.38699   -922.42724     131786.2   -39922.423    2928.6617   -42851.085    12.908893    0.9476978 
    5100    230.08983   -872.41827    131788.65   -40001.389     2862.755   -42864.144    13.053363   0.94768016 
    5200    230.45072   -837.17285    131625.89   -40082.278    2867.2451   -42949.523    13.151374   0.94885201 
    5300     230.4035   -805.56312    131888.72   -40054.433    2866.6576   -42921.091    13.405264   0.94696113 
    5400    229.15785   -820.28207    131819.62   -40099.136    2851.1594   -42950.295    13.567528   0.94745755 
    5500    229.42062   -1066.9223     131647.6    -40113.98    2854.4287   -42968.408    13.799508   0.94869551 
    5600    230.98157   -715.77773    131811.49   -40120.502    2873.8498   -42994.351    13.904747   0.94751594 
    5700     228.8794   -787.13174    131824.32   -40111.902    2847.6949   -42959.597    14.029471   0.94742371 
    5800    231.45946   -967.36877    131700.44   -40153.065    2879.7957    -43032.86     14.22939   0.94831488 
    5900    223.47752   -969.56537    131405.79   -40194.367    2780.4853   -42974.852    14.329375   0.95044128 
    6000    225.74292   -963.81544    131524.34   -40180.224    2808.6711   -42988.895    14.501558   0.94958466 
    6100    229.04252   -869.21961    131697.61   -40116.804    2849.7243   -42966.528    14.556431    0.9483353 
    6200    227.31864   -920.12785    131612.64   -40169.489    2828.2761   -42997.765    14.723715   0.94894755 
    6300    231.31233   -782.78475     131860.8   -40132.153    2877.9652   -43010.118    15.001438   0.94716166 
    6400    232.79053   -836.95349    131775.67   -40120.092    2896.3568   -43016.449    15.198509    0.9477735 
    6500    232.49839   -1008.6866    131759.58   -40073.069    2892.7219    -42965.79    15.439088   0.94788929 
    6600    230.01579   -764.41453    131730.03    -40158.67    2861.8337   -43020.504    15.900245    0.9481019 
    6700     227.7364   -855.71572    132002.79   -40221.493    2833.4737   -43054.966    16.188822   0.94614278 
    6800    230.30629   -705.52492    132095.94   -40136.688    2865.4481   -43002.136    16.223698   0.94547565 
    6900     232.8192   -1049.4921     132046.7   -40082.171    2896.7134   -42978.884    16.228093   0.94582822 
    7000    230.54036   -844.79426    132143.33   -40073.286    2868.3604   -42941.647    16.358549   0.94513653 
    7100    230.82832    -698.0113    132106.64   -40100.928    2871.9431   -42972.871    16.598543   0.94539906 
    7200    227.30682    -958.4077       132260   -40165.632     2828.129   -42993.761     16.66932   0.94430284 
    7300    227.48608   -804.44604    132361.82   -40213.553    2830.3594   -43043.912    16.829556   0.94357643 
    7400    231.29033   -663.27206    132581.58   -40248.632    2877.6914   -43126.324    16.979251   0.94201238 
    7500    226.66252   -828.73203    132913.75   -40225.327    2820.1127   -43045.439    17.268024   0.93965815 
    7600     226.2764   -931.89933    132880.74   -40323.961    2815.3086    -43139.27    17.364342   0.93989157 
    7700    228.90679   -717.10553    132938.81   -40215.253    2848.0356   -43063.288    17.525288   0.93948106 
    7800     231.1944   -917.98691    132843.73   -40221.877    2876.4979   -43098.375    17.938701   0.94015349 
    7900    228.32848   -905.33711    132835.86   -40306.569    2840.8404    -43147.41    18.072781   0.94020917 
    8000    233.94759   -827.02537    132682.64   -40280.704    2910.7528   -43191.457    17.956961   0.94129492 
    8100    224.95239   -826.73198    132820.87   -40359.809    2798.8354   -43158.644    18.131247   0.94031527 
    8200    227.57801    -751.6156    132860.89   -40386.986    2831.5031    -43218.49    18.150866   0.94003205 
    8300    227.12677   -1015.7137    132837.25   -40375.754    2825.8889   -43201.642    18.285632   0.94019934 
    8400    229.90089   -974.23299    132759.03   -40331.312    2860.4041   -43191.716    18.545475   0.94075326 
    8500    225.20106   -887.33055    132791.92   -40258.084    2801.9294   -43060.014    18.612516   0.94052024 
    8600    229.61557   -791.87119    132870.88   -40290.853    2856.8543   -43147.707    18.960773   0.93996134 
    8700    230.25967   -897.50069    132769.44   -40275.761     2864.868   -43140.629    19.014769   0.94067951 
    8800    228.63974   -761.55919    132797.47   -40318.018     2844.713   -43162.731    19.072646   0.94048095 
    8900     222.7106   -1013.5934    132898.13   -40394.381    2770.9433   -43165.325    19.215207   0.93976859 
    9000    227.20132   -886.56315    132885.43   -40338.908    2826.8164   -43165.724     19.31813   0.93985839 
    9100    221.03591   -886.12205    133028.13   -40399.432     2750.107   -43149.539     19.44429    0.9388502 
    9200    225.44907   -1008.0316    132914.22   -40291.546    2805.0151   -43096.561    19.546061   0.93965484 
    9300    224.94896   -757.11464     132881.9   -40339.169    2798.7927   -43137.961     19.66614   0.93988337 
    9400     228.9623   -848.21766    132885.36   -40291.687    2848.7263   -43140.413    19.614089   0.93985889 
    9500    231.82509    -758.1087    132788.53   -40306.299    2884.3448   -43190.644    19.640955   0.94054427 
    9600    227.94347   -858.32681    132731.23   -40269.314    2836.0501   -43105.364     19.82045   0.94095031 
    9700    232.00588   -916.52019    132856.77   -40207.092    2886.5942   -43093.686    20.005634   0.94006117 
    9800    229.04017    -822.1312       132540    -40286.58    2849.6951   -43136.275    19.936928    0.9423079 
    9900    223.98826   -800.99215     132396.5   -40359.523    2786.8397   -43146.362    20.116549   0.94332927 
   10000    225.73698   -993.84694    132486.43   -40361.671    2808.5972   -43170.268    20.192934   0.94268893 
   10100    230.75014   -636.17746    132444.48   -40328.299    2870.9704   -43199.269    20.286386   0.94298755 
   10200    226.93438   -875.10426    132409.82   -40377.524    2823.4951   -43201.019    20.270013   0.94323436 
   10300    227.62137   -807.88142    132507.02   -40374.337    2832.0426   -43206.379    20.440929   0.94254246 
   10400      231.095   -649.40759    132496.45   -40322.104    2875.2612   -43197.365    20.554613   0.94261766 
   10500    233.18744   -750.57102    132595.91   -40311.549    2901.2951   -43212.844    20.642507   0.94191061 
   10600    229.25079   -864.24792    132428.09   -40245.151    2852.3156   -43097.467    20.759216   0.94310419 
   10700     230.5185   -654.61516    132472.58   -40228.562    2868.0884    -43096.65    20.953323   0.94278748 
   10800    230.11957   -953.59266    132674.92   -40210.071     2863.125   -43073.196    21.074864   0.94134968 
   10900    229.77544   -747.96487    132701.34   -40247.409    2858.8433   -43106.253    21.396871   0.94116227 
   11000    233.69057   -745.00615    132577.43   -40256.373     2907.555   -43163.928    21.562589   0.94204189 
   11100    227.65539   -1038.7111    132728.31   -40285.774    2832.4659    -43118.24     21.65768   0.94097098 
   11200    227.94018   -787.00821    132649.28   -40273.245    2836.0092   -43109.255    21.593622   0.94153165 
   11300    236.34505   -908.09468     132739.1    -40280.88    2940.5817   -43221.462    21.691266    0.9408945 
   11400    229.94984   -777.92954    132682.23   -40278.611    2861.0132   -43139.624    21.806817   0.94129783 
   11500    227.31501   -869.54428    132776.63   -40300.368    2828.2308   -43128.598    22.230496   0.94062858 
   11600     227.3247   -939.08476    132668.13   -40302.141    2828.3515   -43130.493    22.330544   0.94139786 
   11700    231.39726   -1040.1767    132437.65   -40189.004    2879.0218   -43068.026    22.495485   0.94303615 
   11800    234.09321   -814.37184     132580.8   -40278.495    2912.5646    -43191.06    22.686955    0.9420179 
   11900    231.19698   -684.91667    132752.93   -40285.242      2876.53   -43161.772    22.847928   0.94079649 
   12000    227.81257   -899.09606    132852.43   -40299.573    2834.4215   -43133.994    23.010807   0.94009187 
   12100    236.46778   -815.00385    133007.34   -40264.404    2942.1087   -43206.512    23.150465   0.93899702 
   12200    227.25178   -919.77832    133033.73   -40259.859    2827.4442   -43087.303    23.362647   0.93881069 
   12300    228.26086    -905.6504    132953.87    -40273.06     2839.999   -43113.059    23.546505   0.93937459 
   12400    234.19944   -932.20314    132763.54   -40265.706    2913.8863   -43179.592    23.711184   0.94072133 
   12500    231.26611   -979.79249    132531.94   -40370.798    2877.3901   -43248.188    23.658109    0.9423652 
   12600    227.42338   -850.93303    132603.14   -40271.381    2829.5793    -43100.96    23.701963   0.94185923 
   12700    230.90174   -871.10405    132808.81   -40235.276    2872.8566   -43108.132    23.878575   0.94040067 
   12800    236.92362   -781.43993    132775.47   -40227.856    2947.7803   -43175.637    24.005904   0.94063676 
   12900    231.41784   -831.49323    132698.51   -40292.344    2879.2779   -43171.622    24.042837   0.94118235 
   13000     230.9532   -848.32624    132678.18   -40208.706    2873.4968   -43082.203    24.094643   0.94132656 
   13100     235.6862   -946.27601    132642.84   -40210.166    2932.3844    -43142.55    24.148256   0.94157734 
   13200    236.08961   -851.21127    132880.69   -40131.479    2937.4036   -43068.883    24.542891   0.93989197 
   13300    233.89523   -847.64222    132850.91   -40189.002    2910.1013   -43099.104    24.995063   0.94010267 
   13400    233.87642    -824.3821    132741.06    -40286.61    2909.8673   -43196.477    25.191568    0.9408806 
   13500    229.51176   -745.03198     132653.5   -40331.816    2855.5626   -43187.379    25.390876   0.94150164 
   13600    230.29495   -1106.1399    132618.52   -40363.494     2865.307   -43228.801    25.318429      0.94175 
   13700     229.2511   -867.75862    132659.93   -40361.824    2852.3196   -43214.143    25.427094   0.94145605 
   13800    233.35594   -655.77764    132781.53    -40271.87    2903.3916   -43175.261     25.43098   0.94059386 
   13900    227.54811   -770.61395     132809.5   -40319.671    2831.1311   -43150.802    25.612124    0.9403958 
   14000    229.69807   -791.32625    132728.05   -40316.783    2857.8807   -43174.664    25.844653   0.94097285 
   14100    230.00241   -900.59123    132922.36   -40327.139    2861.6673   -43188.807    25.961188   0.93959729 
   14200    227.61783   -870.16245    133003.89   -40382.264    2831.9986   -43214.262    26.011961   0.93902135 
   14300    225.91164   -925.01133    133009.11   -40429.568    2810.7703   -43240.338    26.095893   0.93898451 
   14400    231.53241   -845.48702    132745.95   -40402.805    2880.7034   -43283.508    25.970148   0.94084599 
   14500    231.60024   -854.09138    132779.72   -40348.047    2881.5473   -43229.595    26.027499   0.94060668 
   14600    228.94403   -738.44567    132750.71   -40346.159     2848.499   -43194.657    26.296483   0.94081222 
   14700    225.41005    -923.5764    132903.46   -40383.427    2804.5295   -43187.956    26.317147   0.93973095 
   14800    230.97677   -875.06664     133138.4   -40421.605    2873.7902   -43295.395     26.38929   0.93807267 
   14900    225.71036   -945.11692    133095.74   -40513.349     2808.266   -43321.615    26.280033   0.93837329 
   15000    226.20642   -938.25855    133046.32   -40504.444    2814.4379   -43318.882    26.451349   0.93872186 
   15100    223.56918    -811.5401    133040.44   -40527.596    2781.6256   -43309.222     26.71807   0.93876338 
   15200    224.37571   -910.14876    132962.37   -40448.367    2791.6604   -43240.028    26.952521   0.93931458 
   15300    225.86276   -727.68783    133146.12   -40446.324    2810.1622   -43256.486    26.915984   0.93801826 
   15400    227.53405    -869.9154    133232.83   -40422.754    2830.9561    -43253.71    26.964041   0.93740776 
   15500    229.50297   -897.75865    133186.42   -40394.068    2855.4533   -43249.522    27.101071   0.93773441 
   15600    231.40716   -727.40953    133231.09   -40321.969     2879.145   -43201.114    27.238245   0.93742004 
   15700    222.96003   -901.65783    133348.82   -40408.477    2774.0466   -43182.524    27.495266   0.93659241 
   15800    229.62444   -911.32462    133283.64   -40423.346    2856.9646   -43280.311    27.519843   0.93705045 
   15900    227.60299   -892.18044    133416.98   -40476.062    2831.8139   -43307.876    27.643239   0.93611389 
   16000    232.63761   -625.92765    133286.07   -40415.465    2894.4542   -43309.919    27.820077   0.93703336 
   16100    227.40324   -917.95826    133190.84   -40365.327    2829.3286   -43194.656    27.943283   0.93770333 
   16200    227.52338    -924.1593    133091.53    -40421.94    2830.8234   -43252.763    27.969316   0.93840301 
   16300    228.32979   -678.56871    132977.55   -40431.737    2840.8567   -43272.594    27.949769   0.93920737 
   16400    229.56189   -813.45691    133045.39    -40319.78    2856.1863   -43175.966    27.985756   0.93872846 
   16500    235.05791   -895.81233    132943.11   -40299.451    2924.5672   -43224.018     28.21603   0.93945066 
   16600    229.11295   -897.20955    132779.76   -40291.987    2850.6007   -43142.588    28.549449   0.94060641 
   16700    230.33006    -976.7529    132904.31   -40337.422    2865.7438   -43203.165    28.609254   0.93972491 
   16800    232.88782   -744.75252    132976.72   -40327.177    2897.5673   -43224.745    28.789964    0.9392132 
   16900    234.28923   -773.20745     133089.8   -40285.379    2915.0034   -43200.383    28.874463   0.93841519 
   17000    226.05303   -903.69935    133234.41   -40316.821    2812.5295    -43129.35     28.96979   0.93739669 
   17100    234.16877   -989.62821     133079.3   -40250.243    2913.5047   -43163.748    29.075719   0.93848924 
   17200    234.13465   -807.15851    133038.94   -40271.678    2913.0801   -43184.758    29.130753   0.93877396 
   17300    231.82864   -840.83766    133033.39   -40329.674     2884.389   -43214.063    29.453307   0.93881311 
   17400    226.37568   -1028.8092    133158.19   -40347.172    2816.5438   -43163.715    29.429349   0.93793324 
   17500    232.49491   -829.61612    133003.24   -40329.267    2892.6787   -43221.946    29.462331   0.93902592 
   17600    232.14383   -876.50147    132984.37   -40319.532    2888.3106   -43207.843    29.610214    0.9391592 
   17700    233.68612   -874.32399     133073.3   -40351.719    2907.4996   -43259.219    29.640338   0.93853158 
   17800    230.19965   -717.48006    133111.15   -40359.919    2864.1213    -43224.04     29.87497   0.93826471 
   17900    231.43757   -638.25924    133373.95   -40323.004    2879.5234   -43202.527    30.076278   0.93641592 
   18000      235.965   -635.03443    133619.46   -40272.738    2935.8532   -43208.591     30.24988    0.9346954 
   18100     229.4715   -970.92928    133411.42   -40400.975    2855.0618   -43256.037    30.256085   0.93615296 
   18200    232.20341   -828.62153    133489.32    -40398.38    2889.0518   -43287.432    30.224251   0.93560659 
   18300    236.76791   -835.22748    133567.78   -40291.311    2945.8429   -43237.154    30.617934   0.93505702 
   18400    229.64281    -950.5985    133482.34   -40355.606    2857.1931   -43212.799    30.757235   0.93565556 
   18500    230.70427   -723.04993    133389.86   -40323.287    2870.3997   -43193.687    30.864053   0.93630427 
   18600    227.85554   -881.70915    133526.77   -40381.196    2834.9561   -43216.152    31.062609   0.93534422 
   18700    232.99476   -926.75341    133414.02   -40359.349    2898.8978   -43258.247    31.058415    0.9361347 
   18800     229.6516   -737.09113    133209.33   -40346.316    2857.3025   -43203.619    31.293693   0.93757316 
   18900    230.47256    -882.8442    133297.28   -40393.015    2867.5168   -43260.532    31.326438   0.93695451 
   19000    232.94153   -808.71259    133194.49    -40363.88    2898.2354   -43262.115    31.616984    0.9376776 
   19100    231.43818   -824.99158    133437.64   -40414.341    2879.5309   -43293.872    31.850182   0.93596897 
   19200    232.78337   -793.92044    133486.57   -40381.698    2896.2677   -43277.966    32.022376   0.93562592 
   19300    231.97161   -917.22164    133726.87   -40334.805    2886.1678   -43220.973    32.104719   0.93394463 
   19400     235.7543   -835.40781    133562.46   -40344.231    2933.2316   -43277.463    32.117389   0.93509426 
   19500    234.48987   -1033.1911    133541.18   -40328.271    2917.4998    -43245.77     32.22784   0.93524328 
   19600    229.29094   -952.59577    133420.82   -40373.935    2852.8152    -43226.75     32.25941   0.93608695 
   19700    235.98359   -890.67297    133499.55   -40359.289    2936.0846   -43295.374    32.223241   0.93553494 
   19800    228.93954   -876.09621    133482.06   -40395.985    2848.4432   -43244.428    32.587575   0.93565748 
   19900    230.32235    -927.4591    133516.06   -40405.412     2865.648    -43271.06     32.69862   0.93541925 
   20000    226.74323   -813.51129    133510.66   -40443.913    2821.1169    -43265.03    33.018875   0.93545708 
   20100    231.76324   -735.23655    133543.39   -40393.341    2883.5753   -43276.916    32.966333    0.9352278 
   20200    231.31027   -803.17319    133740.55   -40430.563    2877.9395   -43308.502    32.897867   0.93384909 
   20300    223.97617   -1067.0678     133638.6   -40461.616    2786.6894   -43248.305    32.782747   0.93456153 
   20400    231.28763   -966.98003    133448.26   -40462.537    2877.6578   -43340.195     32.70226   0.93589446 
   20500    229.19004   -896.55224    133328.43   -40427.094    2851.5598   -43278.654    32.949712   0.93673567 
   20600    227.80459   -840.57336    133377.08   -40440.395    2834.3222   -43274.717    33.134995   0.93639395 
   20700    228.20526   -914.35022    133341.31   -40390.641    2839.3073   -43229.948    33.276868   0.93664515 
   20800    229.34298   -812.87816    133370.41   -40383.367    2853.4627   -43236.829     33.31568   0.93644076 
   20900    227.33975    -845.1034    133386.65   -40426.092    2828.5387    -43254.63    33.325676    0.9363268 
   21000    226.81605   -1110.4909    133490.65   -40523.808    2822.0229   -43345.831    33.689198    0.9355973 
   21100    227.79837   -868.90286    133334.47   -40543.377    2834.2448   -43377.622    33.942804   0.93669323 
   21200    227.42365   -814.45027    133284.24   -40515.195    2829.5826   -43344.778    34.146713   0.93704619 
   21300    227.09727   -828.67822    133457.72    -40523.45    2825.5218   -43348.972    34.102518   0.93582815 
   21400    226.80099   -839.01931    133524.58   -40474.613    2821.8356   -43296.449    34.091104   0.93535958 
   21500    227.48638   -995.48357    133477.39   -40455.543    2830.3631   -43285.906    34.258721   0.93569025 
   21600     229.7263   -719.14103    133600.38   -40388.699    2858.2319   -43246.931    34.400299   0.93482887 
   21700    226.03258    -833.3186    133488.69   -40346.439     2812.275   -43158.714    34.414162   0.93561103 
   21800    230.59121   -937.09597    133352.71   -40322.671    2868.9931   -43191.664    34.452602    0.9365651 
   21900    233.31603   -667.75613    133441.94   -40340.189     2902.895   -43243.084    34.756987    0.9359388 
   22000    230.07657   -918.74743    133342.61   -40398.418    2862.5899   -43261.008    34.773282   0.93663599 
   22100    227.28179     -895.957    133421.22   -40322.483    2827.8176     -43150.3    34.828145   0.93608415 
   22200    228.58987   -828.41707    133557.26   -40341.797    2844.0925    -43185.89    34.801686   0.93513065 
   22300    230.18449   -864.96256    133645.73   -40327.993    2863.9326   -43191.926    35.037532   0.93451163 
   22400    233.26133   -946.62392    133602.88   -40306.311    2902.2144   -43208.525    35.268747   0.93481135 
   22500     229.2516   -824.88803     133568.5   -40306.591    2852.3257   -43158.917     35.55364   0.93505199 
   22600     231.3758   -844.41459    133405.65   -40285.322    2878.7548   -43164.077    35.729854    0.9361934 
   22700    228.67498   -1020.5202    133490.59   -40294.042    2845.1515   -43139.193    35.783272   0.93559771 
   22800    235.27537   -891.42422    133304.03   -40267.195     2927.273   -43194.468    35.663337    0.9369071 
   22900    230.93713   -677.70481    133303.52   -40312.479    2873.2969   -43185.776    35.729718   0.93691071 
   23000    231.30616   -889.00832    133341.46    -40296.15    2877.8884   -43174.039    35.866816   0.93664408 
   23100     227.6982   -890.02119    133502.01   -40404.517    2832.9985   -43237.515    36.244652   0.93551765 
   23200     230.1268   -939.05909    133575.62   -40342.218    2863.2149   -43205.433    36.303459   0.93500217 
   23300    225.76714   -692.99384    133503.67   -40397.881    2808.9725   -43206.854    36.652326   0.93550603 
   23400    230.98151    -912.1132    133824.21   -40309.291    2873.8491    -43183.14    36.772854   0.93326527 
   23500    227.50987   -922.75938    133506.92   -40346.018    2830.6553   -43176.673    36.637303    0.9354833 
   23600     227.1637   -897.33114    133227.73   -40321.129    2826.3483   -43147.478    36.723059   0.93744364 
   23700    227.20128   -815.57556    133206.54    -40359.43    2826.8159   -43186.246    36.769925   0.93759279 
   23800    224.89411   -897.50244    133282.27   -40406.149    2798.1103   -43204.259     36.95535   0.93706005 
   23900    225.82393   -691.21933    133243.78   -40410.839     2809.679   -43220.518    37.176082   0.93733077 
   24000    233.78439   -737.03038    133381.54   -40341.716    2908.7223   -43250.438    37.256593   0.93636261 
   24100    230.08473   -865.00476    133266.97   -40355.956    2862.6915   -43218.647    37.333859   0.93716761 
   24200    225.38772   -618.12835    133369.61   -40412.824    2804.2517   -43217.075    37.533317   0.93644638 
   24300    234.35388   -891.29366    133390.74   -40389.994    2915.8078   -43305.801    37.596195   0.93629804 
   24400    226.71477   -967.30868     133212.4   -40442.671    2820.7628   -43263.434    37.494528   0.93755157 
   24500    230.46864   -815.54084    133306.76   -40394.389     2867.468   -43261.857     37.74479    0.9368879 
   24600    227.80625   -912.14573    133152.57   -40401.685    2834.3428   -43236.028    37.946455   0.93797284 
   24700     228.6687   -771.18552    133185.09   -40419.555    2845.0734   -43264.628    38.158349   0.93774382 
   24800    230.26242   -804.07369    133229.28   -40429.949    2864.9023   -43294.852    38.293575   0.93743279 
   24900    229.36311   -734.29867    133126.39   -40385.468    2853.7131   -43239.181    38.195018   0.93815726 
   25000    232.23169   -932.66872    133011.87   -40398.657    2889.4038   -43288.061    38.160241     0.938965 
   25100    230.50679   -795.38251    133025.35   -40412.207    2867.9427    -43280.15    38.347138   0.93886983 
   25200    229.59274   -740.78043    133303.57   -40433.906    2856.5702   -43290.476    38.478596   0.93691033 
   25300    229.59232   -816.59277    133116.62   -40441.959    2856.5649   -43298.524    38.464277   0.93822614 
   25400    231.16562   -859.59717    132953.46   -40447.935    2876.1398   -43324.074    38.484623   0.93937751 
   25500    230.80084   -888.17158    132937.65    -40407.39    2871.6013   -43278.991    38.645189   0.93948921 
   25600    228.61502   -1032.3552    133000.62   -40493.109    2844.4054   -43337.515    38.828279    0.9390444 
   25700    226.18927   -859.27729    133038.32   -40516.269    2814.2246   -43330.494    38.948602   0.93877832 
   25800    225.17722   -774.14795    133180.52   -40494.776    2801.6328   -43296.409    38.818587   0.93777597 
   25900      229.414    -855.7516    133292.79   -40425.129    2854.3463   -43279.475    38.838849   0.93698608 
   26000    231.39393   -981.34848    133323.87   -40363.521    2878.9804   -43242.502    39.023753   0.93676765 
   26100    229.13003   -814.68413    133240.08   -40449.628    2850.8132   -43300.441    39.040835   0.93735675 
   26200    231.35251   -927.75273    133343.78   -40429.196     2878.465   -43307.661    39.237383   0.93662777 
   26300     232.4411   -740.74884    133255.93   -40394.042    2892.0092   -43286.051    39.531165   0.93724526 
   26400    232.94411   -886.48769    133090.41   -40370.741    2898.2676   -43269.008    39.575726   0.93841088 
   26500     232.5046    -847.1858    133047.77   -40420.303    2892.7993   -43313.103    39.549301   0.93871162 
   26600    231.44048   -896.70904     133200.4   -40453.233    2879.5595   -43332.793    39.727628   0.93763601 
   26700    228.58248   -913.10761    133040.16   -40484.538    2844.0006   -43328.539    39.837666   0.93876531 
   26800    230.40043   -771.11707    133265.57   -40418.957    2866.6194   -43285.577    40.007223   0.93717751 
   26900    226.09932   -820.04424    133266.07   -40412.071    2813.1053   -43225.177    40.043089   0.93717398 
   27000    225.08653   -840.59855     133361.4   -40442.794    2800.5043   -43243.298     40.30743   0.93650406 
   27100    225.18533   -946.58538     133167.5   -40445.448    2801.7336   -43247.182    40.215281   0.93786764 
   27200    222.72374   -893.57612    133219.93   -40459.454    2771.1068   -43230.561    40.359243   0.93749853 
   27300    224.02136   -803.64949    133440.25   -40462.238    2787.2516    -43249.49    40.240232   0.93595069 
   27400    225.89246   -967.91354    133239.99   -40394.821    2810.5316   -43205.353    40.378517   0.93735743 
   27500    230.07709   -928.21159    133284.18   -40319.845    2862.5964   -43182.442    40.594378   0.93704663 
   27600    228.94506   -987.90042    133319.13   -40353.758    2848.5119    -43202.27    40.657712   0.93680098 
   27700    230.31502   -841.05456    133279.34    -40375.72    2865.5567   -43241.277    40.486798   0.93708066 
   27800    232.77888    -1022.063    133240.76   -40323.551    2896.2119   -43219.763    40.442633   0.93735202 
   27900    232.77798   -847.74983    133114.99   -40351.295    2896.2006   -43247.496    40.346735   0.93823761 
   28000    231.81594     -598.413    133158.79   -40409.385     2884.231   -43293.616     40.44417   0.93792898 
   28100    234.53988   -862.76736     133137.4   -40394.439     2918.122   -43312.561    40.775818    0.9380797 
   28200    227.90501   -820.11719    133192.26   -40448.895    2835.5716   -43284.467    40.766648   0.93769328 
   28300    232.60224   -846.01687     133222.3   -40437.397    2894.0141   -43331.411     40.99334   0.93748185 
   28400    228.84986   -735.14308    133165.67   -40480.403    2847.3273    -43327.73    41.138514   0.93788056 
   28500    227.70766   -920.19155    133099.64   -40494.342    2833.1162   -43327.458    41.143407   0.93834583 
   28600    228.08013   -842.68464    133123.99   -40434.044    2837.7505   -43271.794    41.329805   0.93817416 
   28700      229.937   -691.43137    133148.18   -40432.923    2860.8535   -43293.777    41.468533   0.93800375 
   28800    231.29849     -985.977    133074.57   -40387.947    2877.7929    -43265.74    41.709042   0.93852259 
   28900     229.0634   -951.44514     132862.9   -40363.481    2849.9842   -43213.465    41.668963    0.9400178 
   29000    231.82439   -696.46564    132924.02   -40436.361    2884.3362   -43320.697    42.058301   0.93958554 
   29100    229.53896    -757.2425    133109.24   -40379.215    2855.9011   -43235.116    42.108545   0.93827815 
   29200    229.67725   -796.92892    133005.96   -40349.122    2857.6216   -43206.744    42.158589   0.93900671 
   29300    225.63834    -634.9336    132943.73   -40413.941    2807.3699   -43221.311    42.336475   0.93944624 
   29400    231.44825   -835.66154    132959.35   -40471.779    2879.6562   -43351.435    42.211689   0.93933589 
   29500    225.14896   -841.22357     132875.9    -40512.79    2801.2811   -43314.071    42.451653   0.93992583 
   29600    229.27599   -860.49687    132994.56   -40417.518    2852.6292   -43270.147    42.672294   0.93908725 
   29700    226.28181   -790.09662    132915.47   -40463.829    2815.3759   -43279.205    42.891442     0.939646 
   29800    231.52782   -777.64163     132776.2   -40444.656    2880.6463   -43325.303    42.737961   0.94063162 
   29900    227.69922   -910.95273    132669.28   -40464.945    2833.0112   -43297.956    42.770537   0.94138966 
   30000     229.5276   -708.58967    132683.48   -40427.344    2855.7597   -43283.103    42.696715   0.94128895 
   30100    230.21207   -848.22684    132820.67    -40427.06    2864.2758   -43291.335    42.687837   0.94031665 
   30200    226.61556   -813.69077    132747.48   -40453.017    2819.5284   -43272.546    42.951419   0.94083512 
   30300    231.22343   -717.13902    132944.77   -40422.327    2876.8591   -43299.186    43.046311   0.93943889 
   30400    232.67799   -852.28726    132973.04   -40417.486    2894.9566   -43312.443    43.403868   0.93923917 
   30500    232.63966   -800.09439    132899.09   -40438.116    2894.4797   -43332.596    43.353221   0.93976183 
   30600    230.02565   -902.42221     132912.4   -40440.192    2861.9564   -43302.148    43.353204    0.9396677 
   30700    232.07412   -864.34805    133086.27   -40446.248    2887.4432   -43333.691    43.393374    0.9384401 
   30800    232.14137   -662.89353    133323.16   -40371.832      2888.28   -43260.112    43.635319   0.93677263 
   30900    225.97782   -890.26625    133277.33   -40501.757    2811.5937   -43313.351    43.682617   0.93709482 
   31000    227.40562   -738.01279    133382.08    -40540.38    2829.3582   -43369.738    43.954014   0.93635887 
   31100    229.16706   -871.38103    133288.23   -40546.332     2851.274   -43397.606    44.206042   0.93701814 
   31200    225.56469   -706.57428    133391.29   -40562.384    2806.4536   -43368.837    44.409058   0.93629418 
   31300    231.14814   -838.93482    133529.91   -40524.114    2875.9223   -43400.037    44.424536   0.93532224 
   31400    229.68036   -817.54293     133746.9   -40488.773    2857.6604   -43346.434    44.467227   0.93380477 
   31500    229.97038   -826.27181    133652.04   -40546.728    2861.2687   -43407.997    44.474179   0.93446751 
   31600    233.99994   -871.09387    133509.99   -40483.688    2911.4042   -43395.092    44.652633   0.93546174 
   31700    234.04845   -915.02593    133565.93       -40532    2912.0077   -43444.007    44.904951   0.93506996 
   31800    232.93954   -710.44618    133768.05   -40467.619    2898.2107   -43365.829    45.169243   0.93365714 
   31900    231.84403   -868.45953    133835.51   -40463.326    2884.5805   -43347.907     45.18507    0.9331865 
   32000    231.45262   -845.71576    133969.49   -40462.166    2879.7107   -43341.876    44.917392   0.93225325 
   32100    232.86388   -942.14732    133791.32   -40464.757    2897.2694   -43362.026    44.872586   0.93349475 
   32200    227.43713   -805.53572    133717.38   -40477.102    2829.7503   -43306.853    45.144218   0.93401087 
   32300    231.51753   -946.42183    133598.79   -40459.367    2880.5182   -43339.885    45.277082   0.93484002 
   32400    228.79858    -769.2993    133549.07   -40531.078    2846.6893   -43377.767    45.386344     0.935188 
   32500    233.15133   -779.23431    133621.69   -40536.573    2900.8459   -43437.419    45.662322   0.93467976 
   32600    236.29558   -891.95771    133686.42   -40489.833    2939.9663     -43429.8    45.800404   0.93422719 
   32700    228.08616   -914.42616    133533.68   -40558.044    2837.8255    -43395.87     45.81087    0.9352958 
   32800    226.43506   -887.68678    133593.98   -40596.834    2817.2826   -43414.117    45.809867   0.93487366 
   32900    228.03911   -840.48268    133604.41   -40585.516    2837.2401   -43422.756     46.01242   0.93480066 
   33000    224.45392   -1039.6871    133668.26   -40628.584    2792.6334   -43421.217    46.382818   0.93435414 
   33100    227.95924   -681.97956    133560.66   -40555.442    2836.2463   -43391.688    46.411559    0.9351069 
   33200    227.05369   -848.06345     133409.9   -40588.991    2824.9796   -43413.971    46.571402   0.93616356 
   33300     229.0136   -756.95029    133456.84   -40516.988    2849.3646   -43366.352    46.688988   0.93583431 
   33400    225.49102   -903.99318    133569.95    -40602.49     2805.537   -43408.027    46.619744   0.93504186 
   33500    229.16559   -764.95713    133856.71   -40562.377    2851.2557   -43413.633    46.747982   0.93303869 
   33600     230.2167   -762.20803    133969.58   -40526.954    2864.3334   -43391.287    46.634173   0.93225261 
   33700    228.69804   -1046.5285    133973.91    -40522.06    2845.4384   -43367.498    46.792899    0.9322225 
   33800    234.90606   -815.01007    133716.54   -40528.154     2922.678   -43450.832    46.819758   0.93401678 
   33900    228.42859    -890.3607    133592.02   -40549.259    2842.0859   -43391.345    46.958114   0.93488739 
   34000    232.27791   -731.70922    133600.95   -40514.861    2889.9788    -43404.84    47.075547   0.93482488 
   34100    229.81319   -748.46066    133878.48   -40556.194     2859.313   -43415.507    47.351922   0.93288701 
   34200    229.02258   -851.49699    133759.48   -40554.883    2849.4763   -43404.359    47.459203   0.93371694 
   34300    233.28536   -787.77935    133747.09    -40609.82    2902.5134   -43512.333    47.272617   0.93380341 
   34400    226.80445   -965.39442    133831.27   -40537.685    2821.8786   -43359.564    47.343689   0.93321608 
   34500    228.71315    -904.6409    133800.57   -40558.166    2845.6264   -43403.792     47.33516   0.93343021 
   34600    230.01538   -923.51407    133476.55   -40524.016    2861.8286   -43385.845    47.440689    0.9356961 
   34700    226.53749   -903.82927    133393.14   -40606.155     2818.557   -43424.712    47.358454   0.93628121 
   34800    231.14343   -954.77085    133618.21   -40588.953    2875.8637   -43464.816    47.586484   0.93470415 
   34900    230.24404   -868.57532    133689.16   -40592.743    2864.6736   -43457.417    47.624941   0.93420807 
   35000    223.23979   -931.74076    133697.68   -40667.539    2777.5274   -43445.066    47.570107   0.93414851 
   35100    225.28497   -894.92373    133466.42   -40602.908    2802.9734   -43405.881    47.756611   0.93576714 
   35200    228.64703   -908.79528    133520.62   -40611.458    2844.8037   -43456.262    48.000014   0.93538731 
   35300    229.10381   -995.03139    133569.51   -40602.545    2850.4869   -43453.032    47.986203   0.93504491 
   35400     225.3075   -907.95698    133642.65   -40613.098    2803.2536   -43416.352    47.999243   0.93453321 
   35500    231.95948   -873.11142    133746.71   -40497.658    2886.0169   -43383.675    48.065031    0.9338061 
   35600    224.19211   -1016.6475     133637.7   -40552.644    2789.3761    -43342.02      47.9777   0.93456783 
   35700      230.747   -822.20764    133605.71   -40509.706    2870.9314   -43380.637    48.116894   0.93479158 
   35800    229.61174   -890.41655    133536.08   -40547.178    2856.8065   -43403.984    48.241828   0.93527899 
   35900    231.25961   -736.47744    133776.29   -40491.733    2877.3092   -43369.042    48.213472   0.93359959 
   36000    228.03312   -1032.6997    133716.45    -40456.89    2837.1656   -43294.055     48.29178   0.93401739 
   36100    231.74113   -969.20888    133770.56   -40485.432    2883.3003   -43368.732    48.304111    0.9336396 
   36200    229.83026   -880.25993    133593.84   -40514.987    2859.5254   -43374.513    48.112169   0.93487459 
   36300    228.71906   -942.94192    133421.82   -40582.013    2845.6999   -43427.713    48.088543   0.93607997 
   36400    230.07648    -648.9907    133427.91   -40517.238    2862.5889   -43379.827    48.314835   0.93603726 
   36500    225.23207   -911.42509    133587.39   -40472.607    2802.3151   -43274.923    48.556786   0.93491974 
   36600    228.47635   -865.58648     133637.7   -40596.943    2842.6801   -43439.623     48.72074   0.93456781 
   36700    228.27544   -733.55296    133745.02   -40520.995    2840.1804   -43361.176    48.845731   0.93381789 
   36800    229.25091   -987.56419    133710.92   -40517.279    2852.3172   -43369.596    49.036093   0.93405606 
   36900    225.96904   -860.97143    133711.42   -40539.992    2811.4845   -43351.476    49.111145   0.93405255 
   37000    231.58369   -692.65948    133734.92   -40473.337    2881.3413   -43354.678    49.166438   0.93388844 
   37100    231.28746   -780.16218     133795.8   -40439.283    2877.6558   -43316.939    49.063561   0.93346346 
   37200    226.43579   -867.56599       133743   -40494.595    2817.2917   -43311.887    49.191988   0.93383196 
   37300    226.74296   -840.21683    133779.07   -40498.094    2821.1134   -43319.207    49.287009    0.9335802 
   37400    228.16649   -602.58627    134016.58   -40537.008     2838.825   -43375.833    49.403128   0.93192566 
   37500    229.85784   -751.39789    134072.14   -40550.413    2859.8686   -43410.282    49.944752   0.93153949 
   37600    226.08316   -922.56355    133887.27   -40504.247    2812.9044   -43317.151    50.079366   0.93282576 
   37700    231.10716   -913.53931    133857.84   -40503.227    2875.4125    -43378.64    50.080588   0.93303081 
   37800    226.24028   -802.24655    133876.08   -40600.824    2814.8592   -43415.683    49.947293   0.93290371 
   37900    229.86982   -943.71236    133713.11   -40565.302    2860.0176   -43425.319    50.015503   0.93404074 
   38000     225.2657   -737.66163    133728.78   -40524.852    2802.7336   -43327.586    50.003114   0.93393131 
   38100    229.74137   -761.88819    133842.41   -40487.073    2858.4194   -43345.492    50.116424   0.93313842 
   38200    226.87219   -799.87082    133905.47   -40510.521    2822.7214   -43333.243    50.566888   0.93269893 
   38300    230.42078   -797.16129    134000.62    -40449.27    2866.8726   -43316.143    50.852793   0.93203669 
   38400    233.11399   -829.27064    133922.45   -40515.359    2900.3812    -43415.74     50.86562   0.93258066 
   38500    228.56417   -850.88663    133832.07   -40528.032    2843.7728   -43371.805    50.859061   0.93321049 
   38600    232.89472   -824.09284    134020.39   -40475.794    2897.6531   -43373.447    51.025449   0.93189914 
   38700    228.23307   -915.63362    133884.54    -40495.79    2839.6533   -43335.443    50.932686   0.93284476 
   38800    230.17822   -752.99799    133998.67   -40519.725    2863.8546    -43383.58    51.184623   0.93205026 
   38900    230.39469   -777.45432    133991.19   -40471.466    2866.5479   -43338.014    51.438403   0.93210224 
   39000    228.98694    -963.8176    133994.66   -40513.827    2849.0329   -43362.859     51.66626   0.93207811 
   39100    229.56142   -795.20444    134050.77   -40468.606    2856.1804   -43324.787    51.944754     0.931688 
   39200    229.38491   -898.52632     134019.7   -40500.803    2853.9843   -43354.787    51.982827   0.93190398 
   39300    226.98599   -1079.6774    133760.49   -40491.888    2824.1372   -43316.025    51.757997    0.9337099 
   39400    231.54937   -683.63798    133743.81   -40459.745    2880.9144   -43340.659    51.536718   0.93382634 
   39500    229.00334   -744.31817    133885.04   -40442.979    2849.2369   -43292.216    51.923097   0.93284129 
   39600    230.82433   -932.32742    133865.57    -40492.63    2871.8935   -43364.524     52.19542   0.93297695 
   39700    229.66827   -1006.5345    133793.97   -40434.602    2857.5099   -43292.112    52.312909    0.9334762 
   39800    227.37044   -762.42382    133820.94   -40506.241    2828.9205   -43335.162    52.513227   0.93328812 
   39900    227.05936   -927.73072    133572.05   -40557.624    2825.0502   -43382.674    52.488582   0.93502714 
   40000    232.14622   -863.20002    133635.92   -40582.465    2888.3403   -43470.805    52.700697   0.93458023 
   40100     232.0504   -859.01176    133597.89    -40485.26    2887.1481   -43372.408    52.491203   0.93484629 
   40200    224.90622      -1011.9    133681.01   -40497.802     2798.261   -43296.063    52.843906   0.93426501 
   40300    232.21664   -798.51303    133624.37   -40486.832    2889.2164   -43376.049    52.858872   0.93466102 
   40400    234.83323   -852.51307    133620.68     -40390.3    2921.7719   -43312.072    52.778478   0.93468684 
   40500    231.90983   -742.99154    133728.27   -40409.671    2885.3991    -43295.07    52.673128   0.93393484 
   40600    229.25378   -802.06041    133870.67   -40460.186    2852.3528   -43312.539    52.930771   0.93294141 
   40700    229.70143   -916.07659    133658.97   -40509.807    2857.9224    -43367.73    53.165401   0.93441907 
   40800    226.79898   -805.53668    133896.22    -40554.32    2821.8105   -43376.131    53.383699   0.93276339 
   40900    227.72828    -741.6027    133907.99   -40569.133    2833.3728   -43402.506    53.399601   0.93268137 
   41000    233.98914   -757.11565     134081.3   -40492.695    2911.2698   -43403.965     53.18011   0.93147586 
   41100     231.5374   -729.33248     134221.6   -40469.722    2880.7655   -43350.488    53.346146   0.93050217 
   41200    234.92283   -909.31363       134128   -40495.082    2922.8866   -43417.968    53.566591   0.93115149 
   41300    230.49178   -747.62999     134118.5   -40662.653    2867.7559   -43530.408    53.579886   0.93121751 
   41400    222.55005   -804.52617    134174.33   -40600.199    2768.9458   -43369.145    53.499178      0.93083 
   41500    227.85071   -998.42942    134073.99   -40601.046     2834.896   -43435.942    53.368331    0.9315266 
   41600    226.61837   -761.95702    134170.73   -40564.585    2819.5633   -43384.148    53.488895   0.93085498 
   41700    226.19732   -934.11546    133941.16   -40549.447    2814.3247   -43363.772    53.637611   0.93245041 
   41800    229.12649   -763.09058     133865.2   -40556.244    2850.7691   -43407.013    53.988055   0.93297953 
   41900     231.0707   -730.21353    133751.42   -40536.614    2874.9588   -43411.573     54.08686   0.93377321 
   42000    232.27931   -772.11505    133913.23   -40532.286    2889.9962   -43422.282    54.123702   0.93264489 
   42100    230.15632   -848.67507    133922.12   -40530.624    2863.5821   -43394.206    54.231803   0.93258296 
   42200    233.33991   -661.02885    134121.62   -40485.318     2903.192    -43388.51    54.462603   0.93119581 
   42300     234.5628   -773.22509     134103.2   -40468.467    2918.4071   -43386.874     54.47539   0.93132372 
   42400    230.04997   -685.25941    134244.26   -40515.451    2862.2589   -43377.709    54.726126   0.93034513 
   42500     231.4018   -829.23857    134475.69   -40501.423    2879.0783   -43380.501    54.855985     0.928744 
   42600    229.29506   -909.43682    134231.64   -40514.152    2852.8665   -43367.019      54.6398   0.93043256 
   42700    229.95734   -815.93272    134003.86   -40527.794    2861.1064   -43388.901    54.705973   0.93201415 
   42800    231.43968   -982.02955    134061.55   -40485.123    2879.5496   -43364.672    54.610966   0.93161308 
   42900    229.75254   -1014.8857    134083.85   -40573.005    2858.5584   -43431.563    54.797322   0.93145812 
   43000    231.42368   -710.67286    134038.06   -40588.553    2879.3505   -43467.904    55.086641   0.93177635 
   43100     225.7471   -832.15205    133956.05   -40566.803    2808.7231   -43375.526     55.01605   0.93234676 
   43200    227.51449   -811.32995    133852.29   -40517.703    2830.7128   -43348.416    54.934915    0.9330695 
   43300    228.50029   -823.39607    133783.68   -40535.788     2842.978   -43378.766    54.838212   0.93354804 
   43400    232.49513   -744.16653    133766.89   -40498.798    2892.6814   -43391.479     55.19283   0.93366521 
   43500    232.47561   -877.01744    133657.91   -40506.749    2892.4386   -43399.188    55.422215   0.93442649 
   43600    234.91144   -829.32885    133746.92   -40391.224    2922.7449   -43313.969    55.402751   0.93380463 
   43700    233.88224   -921.73446    133693.17    -40414.03    2909.9398   -43323.969    55.547975   0.93418005 
   43800     236.7688   -789.85517     133749.1   -40417.402     2945.854   -43363.256    55.412953   0.93378938 
   43900    229.75191   -897.57166    133828.41   -40463.339    2858.5506    -43321.89    55.657146   0.93323604 
   44000    229.43852   -907.62824    133670.99   -40499.161    2854.6514   -43353.813    55.940088   0.93433503 
   44100    235.36067   -990.83303    133673.13    -40511.45    2928.3342   -43439.784    56.445865   0.93432009 
   44200    227.84861    -770.8878    133710.43   -40557.725    2834.8699   -43392.595    56.270988   0.93405949 
   44300    228.30222   -919.16791    133695.12   -40563.936    2840.5136   -43404.449    56.291657   0.93416644 
   44400     231.2096   -759.26289    133699.94   -40524.554     2876.687   -43401.241    56.240997   0.93413274 
   44500    231.33672   -862.90302     133552.2   -40572.839    2878.2686   -43451.108    56.359049   0.93516612 
   44600    230.50632   -829.98325     133772.9   -40651.626    2867.9369   -43519.563    56.605655   0.93362324 
   44700    229.18698    -873.6685    133997.86   -40625.003    2851.5217   -43476.524    56.715014   0.93205588 
   44800     230.8646   -850.77577    134086.24   -40596.815    2872.3946   -43469.209    57.093451   0.93144149 
   44900    234.19137   -924.40696    134092.43   -40559.049    2913.7859   -43472.835    57.174433   0.93139851 
   45000    232.32175   -845.31085    134038.35   -40581.558    2890.5242   -43472.082    57.223952   0.93177431 
   45100    231.63986   -844.09405    133944.31   -40526.121    2882.0403   -43408.161    57.173776   0.93242851 
   45200    231.05652   -901.52248    133875.94   -40586.938    2874.7823    -43461.72    57.159974   0.93290466 
   45300    225.97355   -911.27524    133964.72    -40603.77    2811.5405   -43415.311     57.52213   0.93228642 
   45400    235.60965   -941.47475    133824.04   -40587.173     2931.432   -43518.605     57.44223   0.93326647 
   45500    233.61406   -735.84779    133892.48   -40599.757     2906.603    -43506.36    57.219513   0.93278945 
   45600     230.4422   -867.43568     134010.8   -40600.112    2867.1391   -43467.251    57.275165   0.93196588 
   45700    225.47307   -887.57408    133892.93   -40606.001    2805.3137   -43411.314    57.309679   0.93278633 
   45800    232.49089   -904.76793    133854.95   -40554.067    2892.6287   -43446.696    57.488445   0.93305098 
   45900    232.71456   -842.94389    133977.36   -40493.357    2895.4116   -43388.768    57.799696   0.93219849 
   46000    234.53663   -902.67602    134133.51   -40474.158    2918.0816    -43392.24    57.873665   0.93111324 
   46100     238.3029   -832.33616    134019.93   -40434.664    2964.9411   -43399.605    57.616692   0.93190238 
   46200    236.02908   -842.76377    133994.03   -40445.848    2936.6504   -43382.499    57.694626   0.93208247 
   46300    234.20586   -816.20382    134062.65   -40460.232    2913.9662   -43374.199    57.780423   0.93160542 
   46400    232.66543   -863.19993    134167.02   -40481.218    2894.8002   -43376.018    57.883986    0.9308807 
   46500    234.87082   -710.91573    134235.23   -40481.736    2922.2395   -43403.976    57.933418   0.93040771 
   46600    232.25182    -1013.242    134067.89    -40481.74    2889.6542   -43371.394    58.019118   0.93156904 
   46700    225.93415    -881.6726    133943.17   -40578.869    2811.0504    -43389.92    58.358576    0.9324364 
   46800    231.43157   -850.98202    133946.25   -40620.661    2879.4488    -43500.11    58.261942     0.932415 
   46900     234.0303   -763.79228    134103.59   -40530.165    2911.7819   -43441.947    58.110134   0.93132103 
   47000    234.83358   -961.51461    134157.58   -40524.158    2921.7762   -43445.934     58.36411   0.93094619 
   47100    232.81737   -825.87677     134139.1   -40501.475    2896.6907   -43398.166    58.533697   0.93107449 
   47200    231.33388   -940.71775    134168.94   -40558.016    2878.2333   -43436.249    58.523061   0.93086741 
   47300    229.23307   -875.99009    134305.15   -40571.421    2852.0953   -43423.517    58.617567    0.9299233 
   47400    226.25185   -821.03096    134201.34   -40520.565    2815.0031   -43335.568    58.778452   0.93064266 
   47500     233.2715   -879.20858    134118.27   -40472.962     2902.341   -43375.303    58.711562   0.93121909 
   47600    234.43755   -950.06438    134103.22   -40430.367    2916.8488   -43347.216    59.016234   0.93132356 
   47700    236.00197   -798.52918    133857.38   -40477.826    2936.3132    -43414.14    58.843231   0.93303405 
   47800    229.54948   -937.87298    133723.54    -40494.66    2856.0319   -43350.692     58.75256   0.93396785 
   47900    230.20325   -803.66952    133958.58   -40580.276    2864.1661   -43444.442    58.887643   0.93232914 
   48000    230.94218   -801.47439    133877.87   -40608.458    2873.3598   -43481.818    59.087527   0.93289125 
   48100    229.59984   -834.60603    133848.94   -40566.022    2856.6585   -43422.681    59.251899   0.93309283 
   48200    225.97694    -776.0407    133926.85   -40585.068    2811.5828   -43396.651    59.411234   0.93255002 
   48300    231.91144   -893.09202    134146.75   -40559.807    2885.4193   -43445.226    59.562591   0.93102136 
   48400    233.75837   -808.33767    134039.59   -40481.333    2908.3985   -43389.731    59.840841   0.93176569 
   48500    231.06574   -900.55568    134020.22    -40542.85    2874.8971   -43417.747    60.039337   0.93190033 
   48600    230.32805   -809.82496    134062.38   -40552.927    2865.7189   -43418.646    60.027148    0.9316073 
   48700    229.86818   -697.48124    133992.31   -40522.414    2859.9972   -43382.411    59.854342   0.93209446 
   48800    231.41672   -782.91273    134123.69   -40551.467    2879.2639   -43430.731    60.053854   0.93118143 
   48900    230.99537   -781.79129    134055.86   -40541.034    2874.0216   -43415.055    60.037052   0.93165257 
   49000    231.08252   -773.70248    134120.19    -40579.32    2875.1059   -43454.426    60.295836   0.93120574 
   49100    226.95094   -716.68415     134149.4   -40572.672    2823.7012   -43396.373     60.27861     0.931003 
   49200    228.90868   -896.07677    134224.73   -40603.811    2848.0591    -43451.87    60.306256   0.93048047 
   49300    230.87063   -821.68411    134032.96   -40553.126    2872.4696   -43425.596    60.620491   0.93181179 
   49400     228.6466   -927.19394    133918.02   -40528.447    2844.7984   -43373.245    60.968421   0.93261157 
   49500     231.3194     -703.531    134080.36   -40542.218    2878.0531   -43420.271    60.800259   0.93148234 
   49600    232.16094    -821.9401    134277.13   -40555.886    2888.5235    -43444.41    61.062933   0.93011739 
   49700     232.4527   -786.11254    134354.84   -40585.693    2892.1535   -43477.847     60.95186   0.92957939 
   49800    230.38195   -885.63047    134222.29   -40642.301    2866.3895   -43508.691    60.899281   0.93049743 
   49900    232.10171   -693.13921    134383.13   -40530.968    2887.7865   -43418.755    61.099933    0.9293837 
   50000    232.07083   -701.47882    134175.05   -40573.337    2887.4023   -43460.739    61.094552     0.930825 
   50100    232.55435   -818.21448    134317.33   -40594.523    2893.4183   -43487.941    61.345316   0.92983901 
   50200    232.17733    -749.5879    134346.34   -40644.063    2888.7273   -43532.791    61.440739   0.92963818 
   50300    229.49543   -764.74279    134232.87   -40620.336    2855.3594   -43475.695    61.574043   0.93042408 
   50400    228.98386   -897.47814    134273.39   -40644.657    2848.9945   -43493.651      61.6744   0.93014328 
   50500     231.3927   -817.11143    134195.54   -40701.188    2878.9651   -43580.154    61.661806   0.93068289 
   50600    227.10075    -968.4125    134061.61   -40726.204     2825.565   -43551.769    61.766562   0.93161262 
   50700    225.51963   -821.10811    134054.77   -40730.915    2805.8929   -43536.807    61.476336   0.93166021 
   50800    227.37901   -729.60559     134045.7   -40714.401    2829.0272   -43543.428    61.543256   0.93172324 
   50900    229.51811   -683.37457    134194.39   -40629.107    2855.6417   -43484.748    61.582292   0.93069084 
   51000    231.54279   -844.53001    134112.32    -40681.51    2880.8326   -43562.343    61.678223   0.93126037 
   51100    232.65508   -843.93029    134091.93   -40722.069    2894.6714    -43616.74    61.639189   0.93140198 
   51200    227.32152   -914.55675    134079.19   -40701.994    2828.3119   -43530.306    61.796303   0.93149048 
   51300    225.30528   -844.68177       134095   -40763.093     2803.226   -43566.319    61.780194   0.93138066 
   51400    224.70775   -870.89438    134015.05   -40768.178    2795.7916    -43563.97    61.866511   0.93193634 
   51500    228.67197   -989.68784    133946.79   -40769.521     2845.114   -43614.635    61.822377   0.93241125 
   51600    230.79025   -838.50727    134062.21   -40703.471    2871.4695    -43574.94    61.898681    0.9316085 
   51700    225.73002   -827.33031    134415.64   -40679.914    2808.5106   -43488.425    62.293858   0.92915891 
   51800    222.66132   -790.88014    134381.69    -40721.73    2770.3301   -43492.061    62.587828   0.92939365 
   51900    228.68078   -950.74229    134406.88    -40752.36    2845.2237   -43597.583    62.632645   0.92921948 
   52000     225.2994   -725.37632    134356.47   -40768.307    2803.1528    -43571.46    62.668656   0.92956814 
   52100    228.70486   -618.59709    134259.73   -40725.215    2845.5233   -43570.738    62.595975   0.93023793 
   52200    225.61259   -715.33329    134240.19   -40735.099    2807.0495   -43542.149    62.795305   0.93037334 
   52300    228.30253   -881.36504     134298.3    -40704.41    2840.5176   -43544.927    62.801333   0.92997075 
   52400    230.27967   -900.11602    134239.85   -40645.234    2865.1169   -43510.351    62.746945   0.93037567 
   52500    228.83119   -1037.7749    134181.36   -40634.379     2847.095   -43481.474    62.858992   0.93078121 
   52600    227.50624   -815.19677    133989.48   -40664.625    2830.6101   -43495.235    63.057392   0.93211414 
   52700    227.72512   -908.65269    133776.12    -40675.83    2833.3334   -43509.163    63.026422   0.93360076 
   52800    231.61884   -889.04714    133812.98   -40630.348    2881.7787   -43512.127    63.108373   0.93334359 
   52900    234.40476   -751.27242    133744.39   -40630.618    2916.4409   -43547.059    62.720038   0.93382228 
   53000    229.93885   -879.65098    133729.57   -40614.589    2860.8764   -43475.465     63.00173   0.93392576 
   53100    226.40721    -759.3305    133493.38   -40672.152    2816.9361   -43489.088    63.003795   0.93557817 
   53200    228.62868    -957.4639    133516.67   -40660.495    2844.5755   -43505.071    63.172358   0.93541499 
   53300    236.29285   -787.95313    133831.06   -40650.945    2939.9323   -43590.878     63.32369   0.93321753 
   53400    227.27111   -907.69786    133959.84   -40727.646    2827.6847   -43555.331    63.371403    0.9323204 
   53500    228.77421   -899.76698    133883.93   -40742.284    2846.3861    -43588.67    63.374292   0.93284898 
   53600    225.00563   -964.97767    133737.12   -40743.773    2799.4979    -43543.27    63.327081   0.93387302 
   53700    224.37369   -870.44645     133964.3     -40775.9    2791.6353   -43567.535     63.52278   0.93228936 
   53800    230.78453   -723.29445    133930.14    -40640.68    2871.3984   -43512.079    63.946612   0.93252714 
   53900    228.44358   -839.28833    133902.51   -40703.202    2842.2724   -43545.474    63.943129   0.93271953 
   54000    230.65096   -1038.3219    133754.28   -40669.233    2869.7364    -43538.97    63.959122   0.93375321 
   54100    230.01019   -825.30811    133627.66   -40668.761    2861.7641   -43530.525    64.042788   0.93463802 
   54200    227.97758   -924.32245    133610.25   -40646.274    2836.4745   -43482.749     64.04535   0.93475981 
   54300    232.50078   -818.82817    133564.01   -40608.974    2892.7518   -43501.726    64.149712   0.93508342 
   54400    228.54491   -808.79243    133404.08   -40640.274    2843.5331   -43483.807    64.165939   0.93620441 
   54500     227.2136   -899.28745    133323.67    -40630.88    2826.9692   -43457.849    64.102227   0.93676909 
   54600    232.37085   -702.01559    133420.65    -40532.04    2891.1352   -43423.175    64.176319   0.93608814 
   54700    233.03678   -812.63037    133380.95   -40554.715    2899.4206   -43454.136    64.324436   0.93636675 
   54800    229.75118   -811.70588    133611.59   -40631.055    2858.5415   -43489.596    64.538886   0.93475045 
   54900    223.94132   -902.38637    133492.29     -40674.1    2786.2557   -43460.356    64.729331   0.93558581 
   55000    223.11598   -945.45525    133539.44   -40717.224    2775.9869   -43493.211    64.566407   0.93525549 
   55100    228.19687    -813.2421    133481.74   -40669.163    2839.2029   -43508.366    64.632576   0.93565974 
   55200    228.40471   -673.35117    133541.05   -40681.958    2841.7888   -43523.747     64.64945   0.93524416 
   55300    230.23307   -777.99688    133712.88   -40626.228    2864.5371   -43490.765    64.840759   0.93404237 
   55400    231.66887   -861.85479    133889.75   -40588.828    2882.4012   -43471.229    65.013985   0.93280849 
   55500    231.40689   -820.35869    134085.24   -40538.549    2879.1416   -43417.691    65.128395   0.93144845 
   55600    231.72543   -876.50775     133995.6   -40582.434    2883.1049   -43465.539    65.241127   0.93207157 
   55700    231.97293   -887.82576    133574.18   -40584.294    2886.1842   -43470.478     65.16386   0.93501222 
   55800    231.26115   -964.34924    133722.83   -40598.103    2877.3284   -43475.431    65.417796   0.93397287 
   55900    229.78289   -811.36025    133827.49   -40567.063     2858.936   -43425.999    65.394056   0.93324241 
   56000    231.62528   -886.27655    133871.33   -40565.164    2881.8588   -43447.023      65.3215   0.93293683 
   56100    232.77852   -972.01564    133761.65   -40528.955    2896.2073   -43425.162    65.559097   0.93370181 
   56200    232.34673   -813.32476    133805.09   -40534.002    2890.8351   -43424.837    65.561187   0.93339862 
   56300    232.53152   -1118.8882    133624.17   -40571.978    2893.1341   -43465.112    65.710455   0.93466242 
   56400    230.83388   -895.60417    133763.46   -40549.626    2872.0124   -43421.638    65.852857   0.93368917 
   56500    226.10901   -785.97333    133754.56   -40646.079    2813.2259   -43459.305    65.946008   0.93375131 
   56600    225.32263    -845.7074    133816.64   -40657.491    2803.4419   -43460.932    65.986714   0.93331807 
   56700    227.44024   -963.75492    133779.37    -40686.75     2829.789   -43516.539     66.16812   0.93357812 
   56800    230.51936   -904.17135    133948.02   -40613.316    2868.0991   -43481.415    66.468066   0.93240268 
   56900    230.76225   -892.45191    133881.82   -40588.174    2871.1211   -43459.295    66.485982   0.93286369 
   57000    231.98799   -802.08125     134079.3   -40538.571    2886.3717   -43424.942    66.415848   0.93148974 
   57100    231.46325   -898.06604    134039.88   -40605.388    2879.8428   -43485.231    66.418094   0.93176371 
   57200    229.14758   -958.69218    133788.16   -40651.448    2851.0315    -43502.48    66.569123   0.93351678 
   57300    224.50097   -799.50159     133958.7   -40690.047    2793.2189   -43483.266    66.665313    0.9323283 
   57400    226.21377   -1117.1264    133779.53   -40707.188    2814.5293   -43521.718    66.638208   0.93357702 
   57500    222.92887   -1027.5798    133733.97    -40758.59    2773.6589   -43532.249     66.65434   0.93389501 
   57600    226.95156   -690.33348    133813.97   -40705.768    2823.7089   -43529.477    66.787184   0.93333674 
   57700    223.88701   -863.71158    133947.32     -40739.7      2785.58    -43525.28     66.97677   0.93240757 
   57800    222.99595   -761.01363    134110.83    -40767.93    2774.4935   -43542.424    66.985726   0.93127075 
   57900    229.79618   -841.02638    134004.21   -40748.319    2859.1013    -43607.42    67.026772   0.93201169 
   58000    226.09413   -826.19126     133958.3   -40748.645    2813.0409   -43561.686    67.301562    0.9323311 
   58100    227.00763   -891.71366    134028.81   -40692.232    2824.4065   -43516.638    67.334942   0.93184065 
   58200    227.05784   -860.80207    133838.66   -40642.863    2825.0312   -43467.894    67.379498   0.93316451 
   58300    231.31686   -1030.2854    133664.04   -40571.003    2878.0215   -43449.025    67.353407   0.93438365 
   58400    232.42146   -822.01065    133660.32   -40580.488    2891.7649   -43472.253    67.331547   0.93440965 
   58500       224.81   -792.18764    133720.73   -40581.504    2797.0638   -43378.568    67.513478    0.9339875 
   58600    230.74512   -964.43895     133735.3   -40545.013     2870.908   -43415.921    67.735574   0.93388572 
   58700    231.18614   -626.76968    133690.56   -40547.799     2876.395   -43424.194    67.554885   0.93419826 
   58800    229.03579    -965.6824    133706.79   -40596.215    2849.6407   -43445.856     67.52236   0.93408488 
   58900    226.64147   -909.16354     133834.8   -40636.919    2819.8507    -43456.77    67.943115   0.93319147 
   59000    231.40218   -834.23827    133703.24   -40611.999    2879.0831   -43491.082     68.26376   0.93410967 
   59100    227.48667   -673.46179    133810.18   -40602.542    2830.3666   -43432.909    68.439024   0.93336312 
   59200    227.39473   -866.92607    133753.09   -40613.011    2829.2228   -43442.234    68.582571   0.93376156 
   59300    228.17908   -813.20684    133736.19   -40613.584    2838.9815   -43452.566    68.538415   0.93387952 
   59400    226.04941   -816.61103    133675.32   -40672.108    2812.4844   -43484.593    68.549303   0.93430479 
   59500    228.03287   -831.84756    133704.79   -40626.421    2837.1624   -43463.583    68.526668   0.93409887 
   59600    227.42139   -884.83795    133837.57     -40616.3    2829.5545   -43445.855    68.612687   0.93317214 
   59700    226.18495   -882.20245    133656.82   -40645.651    2814.1708   -43459.822    68.779152   0.93443411 
   59800    229.04759   -970.07019    133714.82    -40641.96    2849.7875   -43491.747    68.795133   0.93402876 
   59900    230.95565   -982.58646    133629.37   -40608.777    2873.5273   -43482.304    68.946484   0.93462608 
   60000    230.94362   -919.62023    133674.23   -40649.262    2873.3776   -43522.639    68.737947   0.93431238 
   60100    230.71624   -967.52541    133798.08    -40610.11    2870.5486   -43480.659    68.787095   0.93344759 
   60200    228.59314   -798.26138    133976.39   -40591.987    2844.1333    -43436.12    68.993009    0.9322052 
   60300    228.91105   -737.32055    133822.62   -40547.269    2848.0887   -43395.358    68.944784   0.93327638 
   60400    231.80963   -936.93621    133847.31   -40500.779    2884.1524   -43384.932    68.979442   0.93310424 
   60500    226.23879   -751.07122    133681.39   -40525.321    2814.8407   -43340.162    69.153727   0.93426237 
   60600    231.27842   -897.44691    133495.76   -40570.793    2877.5433   -43448.336    69.116862   0.93556145 
   60700    229.68531   -781.03894    133486.68   -40590.657    2857.7219   -43448.379    69.469165   0.93562514 
   60800    230.52704   -965.95056    133502.29   -40542.021    2868.1946   -43410.216    69.401559   0.93551574 
   60900     233.9887   -816.40336    133567.19   -40523.611    2911.2643   -43434.875    69.513075   0.93506114 
   61000    231.21253   -998.44766    133708.97   -40549.707    2876.7234    -43426.43    69.457167   0.93406965 
   61100    227.50435   -821.35071    133667.25   -40581.521    2830.5867   -43412.107    69.520819   0.93436122 
   61200    226.94111   -856.45695    133644.91   -40566.079    2823.5789   -43389.658    69.461956   0.93451737 
   61300    223.81611   -868.57654    133773.35   -40539.542    2784.6979    -43324.24    69.726106   0.93362012 
   61400    226.36845   -697.37256    134070.99   -40568.709    2816.4538   -43385.163    69.840046   0.93154747 
   61500    228.42321   -753.62054    133903.43    -40567.73     2842.019   -43409.749    69.922272   0.93271318 
   61600    228.94867   -1020.5598    133920.98   -40543.817    2848.5567   -43392.374    70.050716   0.93259093 
   61700    228.50722   -751.67968    133884.81   -40631.573    2843.0642   -43474.637    69.878394   0.93284289 
   61800     223.7458   -955.69834    133898.04   -40712.771    2783.8232   -43496.594    69.778764   0.93275069 
   61900    226.19221   -1038.7984    133794.94   -40648.914    2814.2611   -43463.175    69.929187   0.93346948 
   62000    230.03156   -848.63609    133673.21   -40613.923      2862.03   -43475.953     70.15589   0.93431952 
   62100    227.40766   -729.70859    133851.73   -40636.326    2829.3836   -43465.709    70.636211   0.93307342 
   62200    231.37067   -907.74054    133506.95   -40592.386     2878.691   -43471.077    70.696913   0.93548307 
   62300    224.46519   -887.01197    133521.17   -40623.578    2792.7737   -43416.351    70.904684   0.93538342 
   62400    230.47618   -749.28041    133628.18     -40571.4    2867.5618   -43438.961    70.940419   0.93463437 
   62500    228.93625   -906.61468    133772.36    -40578.44    2848.4022   -43426.842    70.723424   0.93362703 
   62600    226.84186   -990.82071    133611.29   -40578.588    2822.3439   -43400.931    70.565376   0.93475251 
   62700    225.58469   -951.18307    133520.26    -40606.38    2806.7024   -43413.082    70.846715   0.93538984 
   62800    228.19752   -933.81769    133545.72   -40584.444    2839.2109   -43423.655    70.759072   0.93521147 
   62900    231.51553   -857.57509    133542.51    -40525.75    2880.4933   -43406.244    71.014229   0.93523399 
   63000    234.08635   -924.45398    133535.45   -40477.905    2912.4792   -43390.384    70.978487   0.93528339 
   63100    235.35965   -790.06173    133636.12   -40445.743    2928.3215   -43374.064    70.983568   0.93457887 
   63200    233.61303   -892.25327    133437.72   -40496.844    2906.5902   -43403.434    71.069713   0.93596841 
   63300    232.18193   -872.02205    133673.02   -40534.368    2888.7847   -43423.152    71.324229   0.93432089 
   63400    232.05685   -775.77052    133816.71   -40442.242    2887.2284   -43329.471    71.512461   0.93331761 
   63500    229.39384   -862.30106    133899.39   -40548.802    2854.0954   -43402.898    71.681973   0.93274131 
   63600     228.4842   -876.12703    133932.99   -40548.272    2842.7779    -43391.05    71.877583   0.93250732 
   63700    231.51694   -882.85567    133913.52   -40554.498    2880.5109   -43435.009    72.126028   0.93264291 
   63800    226.70526   -817.43652    133672.18   -40656.781    2820.6444   -43477.426    71.978384   0.93432671 
   63900    227.75447    -857.6146    133766.32   -40636.325    2833.6986   -43470.023     71.96454   0.93366921 
   64000    229.88585   -931.35972    133876.83     -40624.6     2860.217   -43484.817    71.976953   0.93289847 
   64100    233.92374   -825.33076    133966.03   -40543.026     2910.456   -43453.482    72.295105   0.93227735 
   64200    230.51141   -719.64888    133900.68   -40531.239    2868.0002    -43399.24    72.368996   0.93273228 
   64300     234.3191   -673.96987    133966.63    -40417.48    2915.3751   -43332.855    72.277462   0.93227315 
   64400     229.0534   -926.78109     133995.7   -40451.809    2849.8598   -43301.668    72.515951   0.93207088 
   64500    235.41818   -917.44983    133914.53   -40428.868    2929.0497   -43357.918     72.61977   0.93263585 
   64600     229.4363   -942.12576    133706.12   -40494.464    2854.6238   -43349.087    72.610706   0.93408954 
   64700    232.07284   -755.77984    133486.94   -40508.939    2887.4274   -43396.367    72.432197   0.93562329 
   64800    228.40049   -863.24563    133577.57   -40530.753    2841.7363   -43372.489    72.779917   0.93498851 
   64900    232.03621   -911.80839    133506.57   -40518.524    2886.9716   -43405.495    72.921753   0.93548574 
   65000    234.88477   -786.65164    133653.07   -40478.214     2922.413   -43400.627    72.984592   0.93446032 
   65100    229.36054   -866.03838    133695.87    -40499.72    2853.6812   -43353.401    73.152073   0.93416117 
   65200    232.29126   -783.27058    133632.75   -40489.136    2890.1448   -43379.281    73.244246   0.93460242 
   65300    232.32585   -782.25546    133754.53   -40492.388    2890.5752   -43382.964    73.294898   0.93375149 
   65400    233.82823   -921.31193    133666.72   -40449.992    2909.2677    -43359.26    73.135329   0.93436489 
   65500    228.29119   -883.14415    133613.17   -40513.854    2840.3764    -43354.23    73.264355   0.93473935 
   65600    230.41917   -817.05672    133632.34   -40547.087    2866.8525    -43413.94    73.330734   0.93460528 
   65700    227.67597   -861.20526    133894.36   -40589.296    2832.7219   -43422.018    73.707422   0.93277631 
   65800    229.30037   -892.05846     133801.6    -40610.45    2852.9326   -43463.382    73.704085     0.933423 
   65900    231.80206   -942.39539    133626.23   -40577.575    2884.0583   -43461.633    73.782794   0.93464799 
   66000    232.28173   -770.86184    133619.43   -40478.052    2890.0263   -43368.078    73.888906   0.93469559 
   66100     233.2222   -824.59146    133548.61   -40419.456    2901.7275   -43321.183    74.122704   0.93519126 
   66200    234.58953   -767.05578    133506.33   -40394.027    2918.7397   -43312.767    73.899959    0.9354874 
   66300    230.13107   -879.85876    133647.82   -40428.949     2863.268   -43292.217    73.984439   0.93449706 
   66400    229.08297   -743.81849    133706.31   -40476.233    2850.2277    -43326.46    73.831905   0.93408825 
   66500    234.16219   -807.84729    133338.52   -40505.888    2913.4228   -43419.311    73.898742   0.93666473 
   66600    231.99128   -918.97302    133473.38   -40534.989    2886.4125   -43421.401    74.109962   0.93571833 
   66700    231.25623   -949.64654    133242.23   -40577.079    2877.2671   -43454.346    74.365586   0.93734165 
   66800    229.65072   -670.98245    133311.52   -40517.707    2857.2915   -43374.998     74.40805   0.93685446 
[...]
   84600    227.36672   -793.15769    134606.96   -40785.762    2828.8742   -43614.636    87.122453   0.92783827 
   84700    222.33299   -909.45227     134636.3   -40796.376    2766.2451   -43562.621    86.978737   0.92763611 
   84800    225.60678   -949.23643    134458.45   -40768.772    2806.9773    -43575.75    86.748521   0.92886307 
   84900    225.21633   -790.38463    134607.98   -40729.853    2802.1193   -43531.973    86.863387   0.92783126 
   85000    230.09237   -889.33956    134470.61   -40676.083    2862.7865    -43538.87    87.069313    0.9287791 
   85100    233.64454   -844.79421     134654.4   -40681.494    2906.9823   -43588.476    87.294269   0.92751139 
   85200    230.00849    -946.9459    134596.85   -40700.132    2861.7429   -43561.875    87.356532   0.92790801 
   85300    226.46797   -827.33947    134791.31   -40733.284    2817.6921   -43550.976    87.275917   0.92656931 
   85400    226.91455    -856.8919    134628.29   -40712.116    2823.2484   -43535.364    87.308585   0.92769125 
   85500     228.9714   -796.59458    134572.27   -40671.348    2848.8396   -43520.188    87.292973   0.92807745 
   85600    230.81371   -762.55408    134693.36   -40648.601    2871.7614   -43520.362    87.282589   0.92724313 
   85700    231.03626   -879.81312    134674.37   -40688.065    2874.5304   -43562.595     87.20514   0.92737388 
   85800    230.91262   -815.57926    134418.93   -40702.651    2872.9921   -43575.643     87.33458   0.92913619 
   85900    230.39448   -955.69025    134631.53   -40581.234    2866.5453    -43447.78    87.381756   0.92766895 
   86000    233.71499   -875.05005    134677.13   -40640.366    2907.8588   -43548.224    87.690313   0.92735488 
   86100    230.55564   -811.60153    134664.12   -40629.874    2868.5505   -43498.425       87.675   0.92744442 
   86200    233.24648    -808.1648    134641.11    -40597.21    2902.0297   -43499.239    87.802873   0.92760295 
   86300    231.56127   -742.10749    134844.08   -40636.849    2881.0624   -43517.911    87.983873   0.92620671 
   86400    227.80488   -916.71404    134834.83   -40639.521    2834.3259   -43473.847    88.043648   0.92627028 
   86500    228.35528    -815.9297    134766.94   -40621.621    2841.1738   -43462.795    87.779962   0.92673684 
   86600    233.43995   -921.87539    134751.58    -40561.77    2904.4368   -43466.207    88.114091   0.92684249 
   86700    238.47169   -800.12219    134744.04   -40564.408    2967.0412   -43531.449    88.400444   0.92689438 
   86800    229.40347   -824.56677     134790.2   -40653.784    2854.2153       -43508    88.294513   0.92657694 
   86900    229.75375   -883.80015    134810.62   -40627.056    2858.5735   -43485.629    88.418989   0.92643658 
   87000    229.39545   -797.35084    134878.14   -40623.057    2854.1155   -43477.172    88.263317   0.92597284 
   87100    227.45417   -898.07744    134867.17   -40658.018    2829.9623    -43487.98    88.449561   0.92604811 
   87200    231.77008   -961.43825    134740.17   -40647.068    2883.6605   -43530.729    88.464992   0.92692096 
   87300    228.59772    -739.7873    134530.47   -40663.084    2844.1902   -43507.275    88.514885    0.9283658 
   87400    230.54275   -980.64407    134638.23   -40659.414    2868.3901   -43527.804     88.54115   0.92762283 
   87500    229.29865   -861.52283    134702.43   -40663.163    2852.9112   -43516.074    88.685384    0.9271807 
   87600    224.48047   -878.60914    134726.89   -40679.823    2792.9638   -43472.787    88.696373   0.92701234 
   87700    226.56973   -702.95547    134787.35   -40689.495    2818.9582   -43508.453    88.750497   0.92659654 
   87800     228.9478   -847.99353    134657.34   -40663.995     2848.546   -43512.541    88.768865   0.92749117 
   87900    228.85731   -933.79529    134500.08   -40680.147      2847.42   -43527.567    88.839883   0.92857561 
   88000    227.12332    -776.6793    134311.49   -40693.333     2825.846   -43519.179    89.031882   0.92987942 
   88100    226.99601   -1060.1544    134400.21   -40620.139    2824.2619   -43444.401    89.285764    0.9292656 
   88200    230.65489   -816.35718    134446.13   -40593.089    2869.7853   -43462.875    89.056979   0.92894821 
   88300    228.65534   -860.41977    134486.45   -40615.438    2844.9071   -43460.345    89.181965   0.92866972 
   88400    228.77375   -831.98143    134477.68   -40727.886    2846.3804   -43574.266     89.31238   0.92873024 
   88500    230.84763   -867.36941    134587.54   -40611.882    2872.1834   -43484.065    89.396876   0.92797219 
   88600    233.46644   -956.76989    134561.98   -40571.226    2904.7664   -43475.992    89.683633   0.92814846 
   88700    233.38124   -725.46192    134700.87   -40545.504    2903.7063    -43449.21    89.928231   0.92719142 
   88800    236.63743   -951.32841    134585.96   -40502.542    2944.2195   -43446.761    89.789724   0.92798309 
   88900    232.14318   -767.52012       134640   -40555.543    2888.3025   -43443.846    89.681991   0.92761057 
   89000     233.3173   -926.63968    134685.57   -40544.552    2902.9108   -43447.463    89.670215   0.92729674 
   89100    225.87163   -951.68042    134760.99   -40658.946    2810.2725   -43469.218    89.720796   0.92677776 
   89200    226.50324   -960.73415    134473.22   -40685.097    2818.1309   -43503.228    89.823897    0.9287611 
   89300     226.1842     -833.611    134352.98   -40701.248    2814.1615    -43515.41    89.821216   0.92959226 
   89400    226.02192    -843.2791    134482.12   -40718.002    2812.1424   -43530.144    90.082178    0.9286996 
   89500    221.52955   -847.39456    134422.52   -40760.389    2756.2487   -43516.637    90.049312   0.92911134 
   89600     226.9694    -871.8623    134369.06   -40803.445    2823.9308   -43627.376    90.301386   0.92948101 
   89700    224.37707   -852.16321    134310.03   -40765.423    2791.6773     -43557.1    90.129936   0.92988954 
   89800    226.22836   -941.00468    134454.76   -40719.723    2814.7109   -43534.434    90.329326   0.92888858 
   89900    226.99122   -626.11557    134783.91    -40761.85    2824.2023   -43586.052    90.549781   0.92662018 
   90000    226.07577   -878.88548    134628.47    -40672.35    2812.8124   -43485.162    90.483098   0.92769002 
   90100     224.0732   -847.48257     134704.7   -40680.438    2787.8966   -43468.335    90.457477   0.92716507 
   90200    226.61788   -692.53606    134729.09   -40715.428    2819.5573   -43534.985    90.631974   0.92699722 
   90300    225.75372   -966.19288    134781.75   -40722.066    2808.8055   -43530.871    90.761107   0.92663502 
   90400    228.70147   -721.15671    134423.23   -40721.367    2845.4811   -43566.848    90.505809   0.92910648 
   90500    224.96406   -877.98574    134604.83   -40677.397    2798.9806   -43476.377    90.505824   0.92785296 
   90600    230.35932   -826.04392    134726.15    -40574.75    2866.1078   -43440.858    90.707637   0.92701743 
   90700    232.75665   -894.54414    134710.53   -40584.322    2895.9353   -43480.257    90.791167   0.92712494 
   90800    224.82346   -743.23625    134641.23   -40618.723    2797.2313   -43415.954     90.89758   0.92760212 
   90900    220.81616   -947.71109    134738.74   -40716.051    2747.3728   -43463.423    91.017862   0.92693082 
   91000    227.76887   -881.72491    134698.15   -40735.593    2833.8777   -43569.471    90.916716   0.92721014 
   91100    227.09125   -959.38791    134853.25   -40730.667    2825.4468   -43556.114     90.95408   0.92614375 
   91200    227.47427   -838.09286    134727.44   -40683.637    2830.2124    -43513.85    90.996312   0.92700857 
   91300    235.24477   -883.54509     134842.2   -40581.263    2926.8922   -43508.155    91.220047   0.92621962 
   91400    231.97204   -845.53199    134660.36       -40565    2886.1732   -43451.173     91.11595   0.92747035 
   91500    233.56117   -844.36119    134584.11   -40583.176    2905.9449   -43489.121    91.077648   0.92799582 
   91600    228.64756   -849.59164    134563.06   -40621.948    2844.8104   -43466.758    91.159048     0.928141 
   91700    230.37821   -783.15148    134500.34   -40696.013    2866.3429   -43562.356    91.082314   0.92857379 
   91800     227.1214   -714.26531    134389.06   -40662.684     2825.822   -43488.506    90.935963   0.92934269 
   91900    227.99168   -562.25712    134476.57    -40654.87    2836.6499    -43491.52    91.454399   0.92873793 
   92000    229.30934   -860.56486     134620.4   -40659.027    2853.0441   -43512.071    91.514832   0.92774566 
   92100     228.7973   -850.18285    134614.98   -40697.366    2846.6734    -43544.04      91.5753   0.92778301 
   92200    228.88068   -931.88563    134640.79   -40627.916    2847.7108   -43475.626     91.36708   0.92760517 
   92300    231.46537   -1014.0713    134574.45    -40549.87    2879.8693   -43429.739    91.431131   0.92806246 
   92400    229.15343   -944.06592    134375.08   -40556.151    2851.1043   -43407.255    91.501717   0.92943937 
   92500    229.03535   -971.63234    134383.27   -40609.941    2849.6351   -43459.576     91.95817   0.92938274 
   92600    231.48229   -792.38551     134388.5   -40578.351    2880.0798   -43458.431     91.79388   0.92934655 
   92700     231.5059    -882.0216    134338.81   -40560.365    2880.3735   -43440.739    92.117863   0.92969034 
   92800    233.54414   -759.09136    134448.74   -40617.229    2905.7331   -43522.962    92.124505   0.92893015 
   92900    232.06805   -927.04262    134678.56     -40593.1    2887.3677   -43480.468    91.978685     0.927345 
   93000    230.15083   -719.69249    134695.28   -40629.773    2863.5139   -43493.287     92.05939   0.92722991 
   93100    234.35015   -955.02772    134619.69   -40573.746    2915.7614   -43489.508    92.295092   0.92775052 
   93200    231.54061    -939.5828    134413.89   -40594.421    2880.8054   -43475.226    92.125932   0.92917099 
   93300      230.067   -763.30757    134516.29   -40628.837    2862.4708   -43491.307    92.492283   0.92846369 
   93400    228.61358   -872.82257    134705.16   -40660.946    2844.3875   -43505.334    92.723993    0.9271619 
   93500    228.55745   -759.53795    134806.43   -40705.398    2843.6892   -43549.087    92.869384   0.92646538 
   93600    228.37922   -931.42864    134863.07   -40770.257    2841.4717   -43611.729    92.955317   0.92607631 
   93700    232.02758   -940.42543    134815.67   -40741.554    2886.8642   -43628.418    93.123892   0.92640192 
   93800     228.9157   -862.06691    134702.18   -40717.253    2848.1465   -43565.399    92.805855   0.92718244 
   93900    226.52684   -860.90168    134643.27   -40702.492    2818.4245   -43520.916    92.961733   0.92758805 
   94000    230.09305   -794.47205    134676.09   -40708.967     2862.795   -43571.762     93.00059   0.92736201 
   94100    229.99846   -827.20493    134733.14   -40725.577    2861.6181   -43587.196    93.037375   0.92696934 
   94200    230.94951   -708.10656     134694.9   -40733.045     2873.451   -43606.496     93.12961   0.92723248 
   94300    232.38166    -919.6319    134519.07   -40695.124    2891.2696   -43586.394    93.182216   0.92844448 
   94400    229.03348   -835.29222    134431.64   -40687.459    2849.6119   -43537.071    93.297478   0.92904832 
   94500    238.11748   -771.41495    134569.77   -40634.609    2962.6342   -43597.243    93.212473   0.92809473 
   94600    236.23056   -823.67002       134619   -40694.599    2939.1573   -43633.756    93.204554   0.92775532 
   94700    230.16542   -737.11966    134796.93   -40740.773    2863.6954   -43604.468    93.485373   0.92653065 
   94800    230.88799   -851.89217    134847.68   -40742.812    2872.6855   -43615.497    93.458981   0.92618196 
   94900    228.73671   -761.52389    134872.49    -40713.15    2845.9195   -43559.069    93.709528   0.92601161 
   95000    233.35262   -964.35156    134764.28   -40707.831    2903.3503   -43611.181    93.595865   0.92675512 
   95100    229.37574   -885.03104    134661.73   -40700.533    2853.8703   -43554.403    93.462763   0.92746094 
   95200     228.9582   -764.60939    134623.66     -40702.7    2848.6752   -43551.375    93.508655   0.92772322 
   95300    233.62229   -840.01401    134644.08   -40582.967    2906.7055   -43489.672    93.491288    0.9275825 
   95400    235.63681   -872.48859    134549.64   -40653.409    2931.7699   -43585.179    93.457232   0.92823353 
   95500    232.56954   -786.27103    134521.31   -40654.123    2893.6072   -43547.731    93.542298   0.92842908 
   95600    230.30418   -847.66383    134816.15   -40616.387    2865.4218   -43481.809    93.675063   0.92639858 
   95700    230.63461   -743.08737     134593.7   -40684.816    2869.5331   -43554.349    93.621922   0.92792967 
   95800    225.85805   -805.96261    134523.22   -40739.141    2810.1035   -43549.244    93.755496   0.92841584 
   95900    227.99312   -998.31256    134458.87   -40681.777    2836.6678   -43518.445    93.812297   0.92886016 
   96000     227.9777   -819.73814    134548.16   -40765.729     2836.476   -43602.205    94.154542   0.92824376 
   96100    230.26625   -915.14992    134468.47   -40715.566      2864.95   -43580.516    93.942851    0.9287939 
   96200    231.18177   -842.11084    134485.86   -40760.994    2876.3407   -43637.335    93.842097   0.92867374 
   96300    232.19256   -850.88121    134355.22   -40707.211    2888.9169   -43596.128    93.741174   0.92957677 
   96400    231.20831   -689.34185    134452.54   -40688.359    2876.6709    -43565.03    93.736598    0.9289039 
   96500     230.3117   -819.71361    134428.78   -40719.248    2865.5154   -43584.764    94.162234   0.92906809 
   96600    225.58273    -1020.454    134351.17   -40706.006     2806.678   -43512.684    94.363718   0.92960481 
   96700    225.68803   -894.05642    134230.46   -40777.058    2807.9881   -43585.046    94.454641   0.93044078 
   96800    225.58261   -752.93238    134251.22   -40825.561    2806.6766   -43632.238    94.355208   0.93029687 
   96900    223.58222   -970.94842     134198.9   -40748.144    2781.7878   -43529.932    94.264162   0.93065961 
   97000     232.2634   -662.09635    134386.12   -40761.636    2889.7983   -43651.434     94.32157   0.92936303 
   97100     226.9061   -874.32056    134398.32   -40754.354    2823.1432   -43577.498    94.427154   0.92927864 
   97200    225.58502   -911.20933    134362.37   -40770.713    2806.7066   -43577.419    94.464147   0.92952733 
   97300    229.41908   -967.22952    134208.31   -40769.656    2854.4095   -43624.066    94.254125   0.93059433 
   97400    223.91463   -785.21104    134088.96   -40769.282    2785.9237   -43555.206     94.31901   0.93142261 
   97500    229.02956   -777.59422    134233.45   -40670.216    2849.5631    -43519.78    94.684689   0.93042005 
   97600    230.32092   -738.23881    134214.16   -40735.351    2865.6301   -43600.981    94.605771   0.93055374 
   97700     231.2395   -656.96715    134367.04   -40672.203     2877.059   -43549.262    94.646485   0.92949497 
   97800     230.6175   -1060.7796    134409.47   -40649.957    2869.3201   -43519.278    94.693123    0.9292016 
   97900    230.77581    -848.8958    134277.35   -40608.225    2871.2899   -43479.514    94.779065   0.93011583 
   98000    231.52008    -930.5529    134445.19   -40618.107      2880.55   -43498.657    94.707711   0.92895472 
   98100    229.65323   -693.74183    134457.55   -40675.615    2857.3228   -43532.938    94.874128   0.92886931 
   98200    225.03712   -838.70109    134715.69   -40641.372    2799.8895   -43441.261    95.224077   0.92708946 
   98300    228.04052   -869.43542    134636.57   -40654.383    2837.2577    -43491.64    95.310027   0.92763421 
   98400    229.87464   -741.56724    134783.68   -40655.492    2860.0776    -43515.57    95.849399   0.92662174 
   98500    229.29911   -964.41453    134800.97   -40673.787    2852.9168   -43526.704    95.676915   0.92650292 
   98600    230.68518   -1021.3016    134674.48   -40716.339    2870.1622   -43586.501    95.790554   0.92737308 
   98700    228.62563   -886.27476    134639.46   -40785.667    2844.5375   -43630.204    95.763956   0.92761433 
   98800    226.89857   -806.95242       134661   -40748.161    2823.0496   -43571.211    96.040141   0.92746595 
   98900    223.97662   -805.92657    134715.73   -40748.839    2786.6949   -43535.534    96.005588   0.92708916 
   99000    223.43873   -805.26566    134768.95   -40784.117    2780.0026    -43564.12     96.17826   0.92672301 
   99100    229.57828   -910.17961     134727.5   -40696.165    2856.3902   -43552.555    96.113255   0.92700817 
   99200    231.70398     -800.859    134659.31   -40680.121    2882.8381   -43562.959    96.311353   0.92747755 
   99300    230.01148   -892.44207    134552.37   -40620.873    2861.7801   -43482.653    96.412856   0.92821475 
   99400    235.63889    -884.8155     134579.3   -40596.936    2931.7957   -43528.731    96.515968   0.92802898 
   99500    234.98874   -979.89676    134708.19   -40470.759    2923.7067   -43394.466    96.589459   0.92714106 
   99600    233.98783   -887.21773    134736.28   -40502.235    2911.2535   -43413.488    96.952763   0.92694777 
   99700    231.57289   -673.25445    134715.72   -40523.674     2881.207   -43404.881    96.522078   0.92708922 
   99800    228.67734   -946.41189    134855.04   -40541.969    2845.1808   -43387.149    96.438671   0.92613143 
   99900    224.81359   -716.60087    134721.86   -40602.595    2797.1085   -43399.704    96.424197   0.92704694 
  100000     232.2504   -663.70249     134665.6   -40622.434    2889.6366   -43512.071    96.624226   0.92743427 
  100100    233.95337   -824.48258    134778.22   -40545.536    2910.8247   -43456.361    96.825685   0.92665927 
  100200    232.33667   -924.89303    134784.01   -40561.988    2890.7099   -43452.698    96.862102    0.9266195 
  100300    233.96419   -1069.1115    134709.62   -40546.482    2910.9594   -43457.442    96.801075   0.92713121 
  100400    232.78987   -771.86555    134534.17   -40591.212    2896.3485   -43487.561    96.922436   0.92834032 
  100500    236.61283    -849.6179    134433.13   -40531.778    2943.9135   -43475.692    97.066484   0.92903804 
  100600    233.92466    -858.9276     134483.3   -40627.804    2910.4675   -43538.272    97.188305   0.92869142 
  100630    235.50137   -869.80128    134533.95   -40617.696    2930.0848   -43547.781    97.257113    0.9283418 
Loop time of 83.9822 on 6 procs for 100000 steps with 4175 atoms

Performance: 514.395 ns/day, 0.047 hours/ns, 1190.728 timesteps/s
98.4% CPU use with 6 MPI tasks x no OpenMP threads

MPI task timing breakdown:
Section |  min time  |  avg time  |  max time  |%varavg| %total
---------------------------------------------------------------
Pair    | 63.056     | 64.198     | 66.155     |  12.2 | 76.44
Neigh   | 5.2288     | 5.2625     | 5.3143     |   1.1 |  6.27
Comm    | 9.66       | 11.627     | 12.799     |  28.8 | 13.84
Output  | 0.16399    | 0.16522    | 0.17058    |   0.6 |  0.20
Modify  | 1.9415     | 1.976      | 2.0024     |   1.7 |  2.35
Other   |            | 0.7536     |            |       |  0.90

Nlocal:        695.833 ave         711 max         688 min
Histogram: 3 0 0 1 0 1 0 0 0 1
Nghost:        1447.83 ave        1471 max        1420 min
Histogram: 1 0 0 0 1 2 1 0 0 1
Neighs:        0.00000 ave           0 max           0 min
Histogram: 6 0 0 0 0 0 0 0 0 0
FullNghs:      18850.7 ave       19378 max       18578 min
Histogram: 3 0 0 0 2 0 0 0 0 1

Total # of neighbors = 113104
Ave neighs/atom = 27.090778
Neighbor list builds = 5703
Dangerous builds = 0

undump              1
unfix               2
unfix               3
unfix               4


################################################
#######         Run Simulation         #########
################################################

reset_timestep      0
log                 log.run_${NAME}
log                 log.run_liquid_density_MLmW
