LAMMPS data file via write_data, version 29 Oct 2020, timestep = 800000

4175 atoms
1 atom types

-0.1620027207565755 50.162002720753264 xlo xhi
-0.1620027207565755 50.162002720753264 ylo yhi
-0.1620027207565755 50.162002720753264 zlo zhi

Masses

1 18.015

Atoms # atomic

2902 1 0.6613605350538388 2.5477710915564997 1.9698417650916435 0 1 0
3145 1 48.858074644845324 23.49586380829387 13.402040860340056 -1 0 1
2745 1 45.6823262526953 2.591165693818645 0.6859196955081392 0 0 1
2347 1 12.60872256473994 1.2232493230440915 0.048995301868381025 0 1 0
3337 1 14.922198011457967 0.6651033300192764 1.6349428399142543 1 0 1
3088 1 16.7633157541171 2.7773523104171955 0.828048825400699 0 0 0
1331 1 18.387660263855526 2.798035215684401 3.056488296407151 0 0 0
1818 1 18.151905771450217 0.24178482407723317 7.903917094606538 0 1 0
2144 1 29.296442905986027 2.333498272807622 2.706004354785334 0 1 0
2815 1 32.14951898114964 2.894635170426004 2.9060635427014407 0 1 0
2101 1 49.25157258449531 15.06826707411445 0.07211540177226505 0 0 1
1990 1 39.312750845374026 0.7255615303217294 14.776392220685178 0 1 1
2604 1 38.20994092133942 2.196075623016275 2.8715050798212203 -1 0 0
437 1 36.583499459673476 16.941188101845125 0.9160657050552434 0 -1 0
946 1 0.6631557829087827 6.792887650223991 16.15687415803664 0 0 0
3948 1 44.19295117183618 3.7183460517857414 3.1718975443678405 0 1 1
1378 1 24.276759084782597 0.6122618794774959 2.9745971635424215 0 0 1
3569 1 48.064027298878806 3.698744205464646 1.832892017788906 0 1 1
1044 1 19.866317811489587 0.628177707348614 3.8179458168218483 0 0 1
1898 1 30.917144986221416 24.9000314134007 6.805071221562267 0 -1 1
502 1 6.930160209778437 6.107272938954283 2.2567796148180728 1 0 0
3543 1 11.719537450369232 3.8228857641170757 0.4695210143436144 0 1 1
222 1 36.533661621444075 1.037712821605419 15.301163539220378 0 0 0
2843 1 16.198025281178488 5.522420328034799 0.6850945524337879 0 0 1
2656 1 22.791012349084944 7.274663304565052 -0.12371656019891725 0 0 0
1626 1 20.325572727785463 4.3055003249360295 2.2354747308881704 0 0 0
923 1 25.274788203432276 4.040805595416931 0.8908079507886668 0 0 0
1805 1 24.95236518270585 5.6469601871761785 3.173314809316858 0 0 1
3296 1 28.054547137882103 4.867669140817899 1.937495804611304 0 1 1
1271 1 30.966915673599978 5.51523728982136 3.0925310794270473 0 0 1
1661 1 36.27054640873204 3.9196420842232556 4.694101193991792 0 0 1
866 1 35.10381034487544 5.991405713624274 3.025124678173835 -1 0 1
4 1 40.661362528622256 5.422850255592786 1.6540495389910415 -1 0 0
1811 1 41.18100022156852 2.4706482774413563 1.576039777389454 -1 0 1
2482 1 42.68245205581541 6.2669250755600014 4.248136312367246 -1 1 0
2262 1 5.242963166222581 8.01573641741274 3.082642528694103 1 1 0
2555 1 35.82624087114392 3.6321074766273793 1.0060927842417973 0 0 0
3609 1 5.450684085501289 9.623302542358458 0.9096005614786298 0 1 1
1977 1 9.845626275641362 8.637688323512927 1.4295623700996685 0 0 1
3342 1 12.446965478993917 8.499531025746942 2.596722584235512 0 1 1
3218 1 5.082690268189114 20.08616305951141 -0.1497021987836209 0 0 1
3163 1 18.12821845579348 7.2580630554617604 0.5764857693645346 0 1 1
351 1 18.596950568203827 8.671299737875302 2.917025765940868 0 0 0
2256 1 23.87029122222753 8.2362312153788 2.5142619985565897 0 0 0
270 1 30.03891538724762 24.18728862726932 16.128182034921778 0 0 0
215 1 33.1252241454849 8.80660377804413 0.48841729288519486 0 0 1
3773 1 39.70942580216891 7.361608396603724 0.34868738460304805 -1 1 1
2844 1 47.81468021591519 10.599931522716343 0.8884110589292789 0 1 1
3418 1 43.32746577537201 5.314983764359812 0.6447781352739106 -1 0 1
2230 1 49.185241156977206 8.004578268332136 0.8948711476535722 -1 0 0
754 1 48.217835094808024 10.40754270668087 3.7737085938029296 -1 0 0
2391 1 45.270239199719725 7.300323547231417 0.8642214949956619 0 1 1
3273 1 0.8091429329356834 8.910754540325858 2.884620756232753 0 1 1
2668 1 1.8173086610187952 11.683396439377535 1.6234450197929096 0 1 1
4074 1 9.986741784450636 11.411243947699468 1.2640093813236288 0 1 1
2744 1 42.974811929218845 24.534288365442585 6.853863337372274 0 1 0
1697 1 13.18744620029591 12.861403019039138 2.2427902990818764 0 0 0
1295 1 15.441135477752145 11.983347247121062 0.9115603978101618 0 1 0
3259 1 26.793062884925906 18.71292554709407 0.2332806197746755 0 0 1
505 1 18.00480183448068 11.15800378980017 1.5683201849323591 0 0 0
61 1 24.698949232718935 10.245303136769593 0.4764656142486672 0 0 0
3303 1 25.343825719403064 10.399507311063632 3.8821880224858534 -1 0 1
3411 1 26.99204997274689 11.283188735538886 1.1356102302568143 0 1 0
3071 1 29.15793902966533 9.558970954105598 0.8805243965504921 0 1 0
3380 1 38.36256402466577 24.283492743906628 1.9013173703572601 0 1 1
187 1 35.5521528180105 9.995170330306772 0.6755523365011096 1 0 0
1772 1 43.7333643512639 9.37741144288252 2.3327575314795297 0 0 1
322 1 45.169109761641785 11.664805445375675 1.609929809024688 0 0 0
590 1 18.203032260067044 4.394696710919408 16.021635162997317 0 0 0
3918 1 0.24449034018485716 11.719530888571407 4.197920903782468 0 1 1
1226 1 3.8338172304199882 13.388950724090433 2.0408199903454163 1 0 1
3523 1 2.7503928700656433 15.89749109246861 1.498564326869021 0 1 1
3314 1 7.63703829424398 14.746735757823112 2.9807707438260556 0 0 1
3753 1 13.988122666665129 15.013332893468604 3.5493765776875774 -1 1 1
2397 1 35.32026417472646 1.4924623359063347 8.139085337850789 0 1 0
152 1 22.82796625560194 12.299044714531691 0.683497898402415 1 -1 0
1435 1 25.21773338173318 15.718234110862426 2.767749326772668 0 0 1
3542 1 27.25899795755424 13.574273491558275 2.839097762104977 -1 0 1
2000 1 29.681602771005036 14.860780756578974 2.3828872663618093 1 0 1
2601 1 31.718971177789268 13.016540570238206 2.294052513218136 0 0 0
3860 1 33.979824640036135 14.434638336919539 2.5634378827311477 1 1 1
3114 1 37.771493284506 14.44391679532348 1.6218644639436581 0 0 0
2353 1 0.5347147270553031 0.33895754528345134 3.545225845758186 0 1 0
1383 1 41.3390073719872 12.754964699565619 2.3114690128376814 0 0 1
1451 1 45.5705676524682 14.067751593036995 3.0880287834328817 -1 0 1
41 1 46.80346465028672 22.38408153284945 3.939287306501507 -1 0 0
4093 1 47.79770066993719 15.366684218129732 2.455382592016402 -1 1 1
2404 1 29.86238288996668 6.629525436573266 0.4377432996990199 -1 1 0
2250 1 5.029527085803187 17.307755390115176 0.6604285847268574 -1 0 0
28 1 6.538483325710204 17.37336914833282 2.879142995350704 0 0 0
3854 1 11.576340180067133 16.32807958595144 2.2921920164357954 0 0 1
3926 1 13.371034665651289 18.03866716170003 5.002853239840517 0 -1 1
3800 1 14.98021770647716 17.543516514189033 2.2964866053436634 0 0 0
1468 1 20.08368149557007 16.135362655179488 1.2415136383212966 0 0 1
3242 1 22.328678529745865 17.701701661203764 0.7622616030028222 1 0 0
3832 1 40.91980644439779 17.21573743694231 0.780324857397929 0 1 1
1024 1 33.70685584170113 19.29493626241227 1.8055541568989775 0 0 0
1554 1 33.73619459987199 16.49032573944252 0.6998412624992183 0 0 1
3504 1 36.578993970543735 17.141357492877262 3.911512718022392 -1 0 1
72 1 40.4704272759079 15.477044605937863 3.545779967540378 0 0 0
1789 1 44.342414580501334 16.609118573598494 1.19710722663466 0 1 1
102 1 44.582304592337636 20.164584076972353 1.5203581950879967 0 0 1
1991 1 46.74304110584978 17.96404275141222 2.182025611425328 -1 0 1
2955 1 29.337976839814758 0.15667831285143952 15.032471975635495 1 1 0
1963 1 49.32889116675633 19.290467882404357 1.3951595899417575 0 -1 1
521 1 11.062782204536749 23.657218271059975 0.10082301770472651 0 0 0
3426 1 26.09632470836437 1.1134077162907812 1.0219894123248705 0 1 1
2618 1 7.277421190874517 21.650575981243534 1.4967767023138379 1 0 1
4005 1 9.089148182094107 17.767092772942647 1.7435585837346825 0 1 1
2648 1 9.723143672496091 20.46303786834225 2.1079182374562517 0 1 0
3430 1 18.261638908610585 20.18705323753886 0.9288264634775196 0 0 0
554 1 19.681370471215917 20.494142883395966 3.3257245685676233 0 0 0
3305 1 24.186100610634156 21.236640378552192 2.2731717666372773 0 1 0
3072 1 23.405778465451267 0.794483978628125 7.861323406200137 0 1 0
4141 1 31.329894573262663 18.12682465569924 1.7028723499288194 0 1 1
2163 1 30.36336938102024 20.49873672108403 2.8018540879113165 0 0 0
1997 1 32.03962499472078 22.25216134830674 1.0739998234487187 0 -1 1
1188 1 37.96808145341229 19.42066345718166 0.7121149142726442 -1 0 0
4059 1 43.77292577870406 22.236534640398123 3.111656852298524 0 1 1
2310 1 47.079653971807296 21.154167084153602 0.459232544380329 -1 0 0
2320 1 2.9087432257770987 24.97974559808154 2.029074723237168 1 0 0
2457 1 2.139115918189038 7.478129008688358 0.6709468509534007 0 1 0
3432 1 15.965847407873273 21.517456600776203 1.07689628522027 0 0 0
3220 1 7.446976076631582 24.204674602318402 2.4750940459115314 1 0 0
3044 1 12.334978176844128 21.95393104767348 2.0098406998318485 -1 0 1
1968 1 8.110088601554938 13.695600938228916 0.45731647884227666 1 0 1
3507 1 18.59456487459982 23.470944435019707 0.8446170081989817 1 0 0
3929 1 20.702227088746866 23.119070671336406 2.7725542319866423 0 0 1
188 1 23.16214299295285 23.83372375600938 1.8797620361316452 0 0 1
1861 1 26.70248928470445 20.3116337193625 2.5456168355884548 -1 0 0
1791 1 28.454997904871906 22.55863012599927 1.894675551272 0 0 1
464 1 34.504429140220424 22.156885979405935 2.5696230893537475 0 -1 0
2864 1 24.946979697183544 16.51278265550263 0.03302261953828306 -1 0 1
3688 1 36.80733096611422 22.19514448852395 0.8860794352986998 -1 0 1
3708 1 41.176085311049476 20.997544625545032 3.3358386969116953 0 1 1
1707 1 43.68362784670654 24.11453064902941 1.075922771638455 0 0 1
1837 1 46.525093495514824 23.86476239487334 0.9308174338567172 -1 0 1
809 1 49.39582241675773 22.077840874922263 2.175551652435587 0 0 0
2364 1 5.71840347937192 1.3327625390419187 3.9265055627384635 0 1 0
1358 1 3.318102250968248 2.2856539636668725 4.609330321445052 0 1 1
76 1 7.665573251086896 1.4192966478292444 5.7728762628992225 1 0 1
1943 1 10.166681427247617 0.5041448297710606 4.74413301311317 0 0 1
1222 1 11.79375068702378 2.913861178203359 5.649234599146823 0 0 0
916 1 14.419182290221423 2.389549791968696 6.093927979849238 1 0 0
1690 1 1.3874672880682068 22.82760768629577 0.6430712669271064 1 0 0
773 1 47.24990316776432 24.3759305460903 15.914863450141926 -1 0 0
2375 1 30.945521849411183 24.819315922761234 1.0308275741915642 0 0 0
1048 1 28.718428486961077 1.0789175993154845 5.063872521264961 0 0 1
1284 1 33.916773927792455 2.5137183889707537 5.004932701855692 1 -1 1
74 1 36.19523051198404 0.18885628385685138 12.50443668726957 0 0 0
3498 1 42.43488007736468 1.8115511598786664 3.858286834975834 0 1 1
3713 1 39.93904834430045 2.098628237878864 5.297684311429607 0 1 1
3745 1 43.709006991355174 2.27171249711725 6.681738009770435 0 1 1
2407 1 46.501434629998066 2.570968211081878 4.407168788890428 -1 1 0
2385 1 45.72163329631028 0.4828787047213483 6.478266839840956 -1 0 0
2339 1 23.119916469674585 23.326451381212205 13.251391282252332 0 0 0
2727 1 8.590343735840394 4.168883071151936 5.232223081866488 0 1 0
1 1 5.958944976928234 4.3683462434672515 4.18150943362527 1 -1 0
2682 1 9.291129988000637 6.6170746165252226 3.452540776645679 0 1 0
261 1 11.010418235971722 4.426203958063025 3.2851704522218057 1 0 0
1149 1 15.404814221404811 6.180892926964012 3.2833315437237416 0 0 0
2301 1 19.120861018138196 4.532273333993243 5.972808581228524 0 1 0
3291 1 21.146895005422703 5.589382953566386 4.41179039343354 0 1 0
3744 1 22.618223465818428 2.407101813450334 1.6150381922958208 0 1 1
1007 1 27.45596157251579 6.482221665690807 4.20071151962867 0 0 0
382 1 30.178358794994494 5.687088971734474 5.6904024457890054 0 0 0
2505 1 32.71899813157686 4.607371407446831 6.734713571017352 1 0 0
406 1 37.29505714107048 7.9182331125665275 4.239127084994779 -1 0 1
602 1 38.87645330376712 5.283480102518136 4.184715784577452 -1 0 0
1501 1 43.947457896413056 5.1341985018520715 6.284572349699886 -1 0 0
3387 1 47.457874536362105 6.349489198999644 2.1541737958414293 -1 0 0
2516 1 46.81748649990955 5.163833426310631 5.825906789234309 0 1 0
1147 1 2.9634801803967856 4.229986192693045 2.817701825715264 0 -1 1
549 1 2.8048693615635694 6.812221182756823 3.8001870682205987 1 1 0
2017 1 10.040483791373381 7.77984912814662 6.154447486105459 1 0 1
4098 1 12.721974420911506 6.421084828722678 4.1791668342397275 -1 1 1
1232 1 16.442835496337878 8.27800086783215 4.484365286461165 0 1 0
268 1 21.290648910744594 8.377706473578494 3.744410074539415 0 0 0
457 1 27.907361834268215 9.05196758795438 3.6434847363224176 0 0 -1
2178 1 31.00399716276058 8.002230817421694 6.8737101186850555 0 1 0
958 1 32.90361525748119 7.428273310958642 2.9125112285605685 0 0 0
1976 1 37.240498263459244 7.950759406915818 1.3075287321482432 0 0 0
27 1 39.45669326758269 6.267401847332039 7.0536580665868716 0 0 0
2522 1 41.64142375444425 7.9705645112149615 6.171439979714952 -1 0 -1
320 1 44.853006930824534 8.37440645435411 4.817460849669303 1 1 0
2930 1 47.70950141508937 7.644305656410344 4.613770188811094 -1 1 0
1325 1 1.6686791889983914 10.694451197613944 6.302316125034032 0 0 1
3059 1 6.317701252686637 9.51278726769705 5.066871704567188 0 0 0
2602 1 6.9051930601618166 11.28677475029899 3.084951584507173 0 0 0
2740 1 10.068043199857678 10.540081665187145 6.869729975184133 0 0 0
1836 1 9.72157796607346 11.651009524760312 4.214820697322332 1 0 1
1436 1 12.472835225568874 10.929894815420074 3.9186970211072785 0 0 1
2324 1 14.52551472559625 10.393635153338174 5.714770641468473 0 0 1
834 1 20.319286381851203 11.242244633710214 4.753147260253117 0 0 0
4143 1 22.96868449010999 11.98725880017487 4.534404792792722 0 1 1
2474 1 29.112336365209156 10.518920252096319 5.454388565144743 -1 0 0
1401 1 31.596169827613476 11.53616662951951 4.54670463694775 1 0 1
477 1 35.542180190814484 12.761324673498114 0.9854614747177686 -1 0 0
2459 1 35.633504765029436 9.637733027655587 5.959588879290862 0 0 1
1674 1 32.990532018466304 9.151459695117172 4.907063239415944 0 0 1
1068 1 41.0184786837262 9.775269828712238 1.5633195456150397 0 0 1
337 1 40.81317955777145 10.312677649713407 5.411095400644636 -1 0 1
4009 1 46.405423755816535 11.946633678383638 4.8213410946100606 0 1 1
2159 1 0.0839811797774867 8.373814614873252 5.898565806378619 1 1 0
2030 1 4.590429063872669 11.546083851274714 6.061540471534694 0 0 1
3876 1 1.4906290852852777 16.399683094932332 3.737296819426802 0 1 0
3743 1 -0.14348253050135185 18.21254036500498 6.507742106867413 0 1 1
2730 1 6.815580157521299 16.77905698822159 6.0817831124459465 0 1 0
253 1 4.274687043595992 16.132681225483132 5.191292485012548 0 1 0
266 1 5.271072688354811 13.449195261786947 4.371830501769631 0 0 0
3108 1 11.313630719312235 16.205974114846498 6.2239668113055275 0 0 0
4063 1 10.15263045344299 14.422070622897238 4.394068037117144 0 0 1
1403 1 15.202254180734654 14.943540139567265 6.241691779039289 0 -1 0
3974 1 16.270572965902105 12.33241043411056 5.707659330518598 0 1 1
1869 1 18.350970784138664 12.661980656272886 3.920204215514472 -1 0 1
704 1 20.309670300970613 14.91539211232612 3.4673111265735663 0 0 0
2705 1 22.852182482189065 13.847052922357822 2.8687919712146863 0 1 0
2032 1 24.50879807570979 12.779666742373061 6.465062166300369 -1 0 1
352 1 27.298262707051222 12.81831472441271 5.439401171313876 0 0 1
1441 1 29.070133851459538 14.906707765532461 6.4590312139600226 -1 0 1
4095 1 31.4776032575253 13.226859296603212 6.731083143529647 0 1 1
2451 1 35.76366378177138 14.317070789193046 4.544551445209907 0 0 1
3742 1 33.562161160944356 14.920390079705612 6.376379319963653 0 0 1
3540 1 38.66635046236218 10.213593224065349 3.2394126262948095 0 0 1
838 1 42.92746925587334 12.362607054637254 4.771505356208678 0 0 1
847 1 42.959940416550424 14.16219073900641 6.9122877874698165 -1 0 0
1192 1 49.8501853699619 14.845588541580995 4.35714238663645 -1 0 1
2938 1 48.07962536272019 16.497587210081903 5.9424156097835725 0 0 0
2318 1 0.579379031612512 19.09908448915617 3.802425148979178 1 1 0
2983 1 2.839448145004544 20.675648303335887 4.368543395692797 0 0 1
2707 1 9.432217488733327 17.825752732078154 4.862000887057591 1 1 0
935 1 14.507936506480117 18.174738289010367 7.435460859615482 0 0 1
1200 1 15.83047460761719 22.884527451629012 8.084547783869366 0 0 0
2817 1 17.733006520295575 17.680679501139352 1.951755241281428 0 0 0
1052 1 18.077783501720607 17.48567445260727 4.695512614515185 0 0 0
3839 1 22.64236776572191 18.447687768796392 5.420836068031713 0 1 1
3451 1 27.638234767161197 19.02241158120681 6.878359700055867 0 1 1
585 1 27.55344399908864 17.907549728619564 3.9750063753339386 0 0 0
3890 1 30.16046203437784 16.95948413108245 4.169344608080057 0 1 1
2466 1 32.48555852311719 17.35393213516835 5.670753530188384 0 1 0
1986 1 39.28721455809725 15.405841572639625 6.104037019613008 0 0 1
2662 1 43.451526961383145 15.709475581308656 4.345772685056333 -1 1 0
1340 1 43.79378716195269 17.41875650442004 6.414057228111056 -1 0 1
1357 1 46.104675906110586 18.044555833134194 4.821592549017192 -1 0 1
331 1 2.696383347310505 23.717612267615504 4.521019424836973 0 -1 0
3397 1 49.3101476599463 21.056895258892283 6.565405755574857 -1 0 0
1156 1 5.397309684427716 20.26660903218357 3.0804686575591993 0 1 0
3100 1 6.990079213531622 19.644620282895435 5.507416054633741 0 0 1
1862 1 11.38703133197418 20.158295455142195 4.490388436081902 0 0 1
1529 1 9.466105127455215 21.113155806462686 6.409154311061762 1 -1 0
1711 1 13.633687950168694 22.648043521194445 4.393359583534248 0 0 1
177 1 15.67563981498445 20.066509398092574 3.835506075269883 0 -1 1
2572 1 17.878029377318924 20.351412990800625 5.407578393694502 0 1 0
479 1 22.31184507765772 19.46781832001122 2.8576578384809697 0 0 1
890 1 31.75301840500938 21.11346140692909 5.389500696210528 0 -1 -1
2810 1 34.29349103325501 21.475380433676765 5.215686927859094 0 0 0
974 1 34.52720492537185 18.83049063498985 4.421423200807152 -1 0 1
1706 1 39.23748232321269 18.41933574143335 3.3125780002446814 0 0 1
1494 1 38.915624998473334 19.551951002826215 5.917848323381801 0 0 0
3067 1 42.69779447726331 18.297363072920675 2.9666851155641214 0 1 0
383 1 42.15781301018902 19.506826045399627 6.013086477669504 0 0 0
2060 1 6.3070396176686 0.4466836899892078 1.2767061302573353 1 0 1
1016 1 1.2714351979261953 24.468880162007228 7.208867810303574 0 0 0
2448 1 4.569587518139571 23.677979565467563 6.933655202797017 1 0 0
3271 1 40.82531920375939 20.727969376906707 0.3539855127481274 0 1 0
604 1 8.803255728711278 23.810939470117543 6.2743770905556495 1 0 0
4100 1 36.9927232012751 18.30189469643841 15.640619309987802 0 1 1
1430 1 16.39422093588084 23.310738481664647 3.5853446313879815 0 -1 0
4155 1 17.765400849901265 23.213215367767877 5.9381642624953015 0 1 1
2128 1 20.52024826691885 23.58043973127203 5.437787383210998 0 0 0
1175 1 22.497191372767002 23.1731096342673 7.200437948099119 0 -1 0
2981 1 48.000441122179566 0.23853757241453605 3.937779094991231 -1 0 0
1020 1 25.816546145997886 22.933539294788634 4.359161035442989 1 0 0
294 1 29.870713719784728 23.13054555988159 5.041853566347388 0 0 1
3806 1 46.8482800320686 24.597922500405705 5.83150315164742 -1 0 1
224 1 35.85758642630936 23.022556649130795 7.070172214978276 0 0 0
3922 1 39.758648562785076 23.510935053077727 4.0757764895487165 0 1 1
3485 1 38.48522661199957 22.373702991626832 6.416047483822119 -1 0 0
2862 1 43.93152518164332 11.545001093835994 15.623821743902102 0 0 0
3131 1 43.82216229856683 21.838939626102157 5.798769210551067 0 0 1
2894 1 0.15569942031580136 22.416009582893203 4.574979662150923 1 0 0
414 1 1.300972573041774 0.6730293508437855 6.45042570883343 0 0 0
3748 1 2.2578788585432052 3.1036210214092663 7.955933672774 0 1 1
574 1 6.615526652516663 0.4556655750943709 8.960342940680206 1 1 0
3892 1 9.783629393353012 24.802325689633058 8.773303379834983 0 0 0
1718 1 16.848255599771274 1.7511324252218678 9.873838330028557 0 0 1
2021 1 31.230689089302576 9.462878654444495 16.07738700176637 -1 0 1
2287 1 22.70384862461339 1.6503197251014121 5.356224153468361 0 1 0
1631 1 9.08749678460561 14.232767362236713 15.606512241890337 0 0 1
3378 1 27.565948785365038 1.3958832339984366 9.049815790778453 0 1 0
4109 1 28.718816200644724 24.21028432768283 11.343950585009349 1 -1 1
1765 1 32.744885290555956 0.8454683595681252 7.312076676605676 0 0 1
2600 1 38.06858152420747 2.3559454497729044 8.681901463104278 -1 1 0
2088 1 45.55879839179546 0.6773607052060495 9.476099200214492 -1 1 1
4026 1 42.97569314146417 1.0590282604220158 9.096762930051723 -1 1 1
2556 1 48.490562340168346 1.629411283764051 8.9552834953953 0 1 0
267 1 4.0795840818152485 4.449506334997404 6.300497268535274 1 0 0
1013 1 7.885197357339498 5.1794445521880945 8.056570949174468 0 0 0
1592 1 9.76950993553029 2.88168005291185 11.833862629996673 1 0 1
3352 1 10.523673166360886 4.222103136563069 7.638229458578263 1 1 0
2866 1 14.742123916712323 3.3907607327654294 9.266689822587184 0 1 0
805 1 16.62668553190235 4.198068208341142 4.728321675154549 1 0 0
2314 1 19.31190276278924 6.691252462339374 7.513178887302074 0 0 0
2704 1 23.79776798179818 4.201497449036738 10.270310143406375 0 1 0
2714 1 23.33979589739225 4.255530632974668 5.107350759389389 0 0 1
1651 1 24.26525054434641 5.092026611579626 7.700280382940264 0 1 1
463 1 26.792460015247805 5.381851485249197 6.935667391067984 0 0 1
1601 1 28.710681538474354 3.125147142121327 6.895460455593608 0 1 1
75 1 31.193424221108092 3.0128165138327296 8.453321726453078 0 0 0
4132 1 30.237383017094338 5.379416132650041 9.747122284732614 -1 1 0
3464 1 37.16151648092003 4.554605594051833 7.342565269409699 0 1 0
169 1 34.78454103143368 5.730880673505573 8.356984386367461 -1 0 0
3471 1 40.7430557880781 2.8923069485243347 7.869970579644434 0 1 0
2813 1 40.88105949809513 5.288709762410056 9.556909750216537 0 1 0
3667 1 43.4821722544168 6.129946904614037 8.714144440227287 0 1 1
546 1 45.7849556105687 6.512408446166524 10.156066148465962 -1 0 0
3987 1 48.05383325945605 5.527057035221461 8.098288155742678 0 1 1
1842 1 0.049667527735717004 4.3063893165007725 9.34986001751216 1 0 1
2014 1 2.9420553232486926 7.258788797199917 6.4276650478706685 0 0 1
2193 1 1.517905169255564 6.795401179728511 9.154869307085308 1 1 0
3985 1 4.51587058891226 8.594852524372227 8.216224075414797 1 0 1
1215 1 4.294054817805361 7.070161739220252 10.813992908159538 0 0 1
2628 1 12.145579651957116 6.248697286904108 7.082533851813907 1 1 0
3824 1 14.63705027492772 5.398457275115998 7.040968294660969 1 0 1
2165 1 16.816033895156693 7.311863898585739 6.981638471830213 0 1 0
235 1 16.733988452073618 6.714714138584905 10.080726168263014 0 0 0
355 1 21.17093353109218 8.485242110792152 6.523809130474469 0 0 1
2004 1 23.135265509185665 8.417944840048214 10.008111278741204 1 1 0
2835 1 23.597375291862118 7.7748416551223505 7.509167978244814 0 1 0
315 1 29.16444221626423 10.024396886962354 8.12407587002986 0 0 0
1817 1 27.967398496903833 6.966042658418929 8.797878787378687 1 0 1
1989 1 35.53625395688441 8.429017715533776 8.430572544808355 0 1 1
2259 1 38.35069005485676 8.44630291015046 8.413055224654629 0 1 0
1310 1 43.07982388418419 8.850821837877296 8.380222291265707 -1 0 0
3551 1 48.55234710818415 8.30847404634871 8.012163322960507 0 1 1
3491 1 3.152292969871884 10.603047879730871 9.364943666190557 0 0 1
1471 1 4.294286129153972 13.131111747908859 8.53563964153595 1 0 0
2175 1 7.3412600679427715 11.422563843645653 7.718328761762834 0 1 1
4156 1 7.314558574331853 7.8182747597419535 7.270357002272303 0 1 1
1695 1 12.570295430052813 11.165047722671508 7.993515638470866 0 0 1
2240 1 14.993539912645966 8.945141280630288 8.331990832101798 1 0 0
2712 1 17.901721216002073 12.450391139908538 7.922405270981679 0 1 0
3728 1 20.12975946501006 10.960055940425251 7.497303730416084 0 0 1
1443 1 21.90297697101139 12.985938896638773 8.1228208341827 0 0 1
280 1 25.259732391096854 10.010652605525301 6.72982372584504 0 0 0
324 1 26.654414704431233 11.35145614293955 8.86449408118297 0 0 0
1910 1 31.156739535872195 11.745215154021311 9.055764684366348 0 0 1
1863 1 33.57189463065518 10.41513025437113 9.627424186009902 0 -1 1
3172 1 35.98428606487277 12.639599048783891 9.448653047503923 0 1 0
4164 1 36.94635156899112 12.007708297334545 6.656402565492021 -1 1 1
522 1 39.45859931349704 11.002078223897437 7.703725290858645 0 0 0
1676 1 44.460417105344916 10.476830411708828 6.540434565556488 0 0 1
1293 1 45.303982337395595 9.166920492090465 11.17058662826659 -1 0 0
3694 1 48.06085063308211 12.231055494133411 7.139846814402778 -1 0 0
1832 1 2.0289783031043123 14.548021457539043 8.309261688969308 1 0 1
1204 1 6.2469605753872095 12.02408241440194 10.57643161530159 1 -1 0
2150 1 2.2751386543254566 16.87378567712702 6.87183149026697 0 1 0
3298 1 9.126449136506142 14.827327806434964 10.453585676918772 0 1 1
793 1 7.789250905189473 13.95577604140068 6.328430925968457 1 0 0
1057 1 12.775737035966525 14.024179287753359 7.538544476812652 0 -1 0
1100 1 18.29458122391623 15.187711902717131 8.974837803764004 0 0 0
2892 1 20.63059892368741 16.085002296937322 8.42895624340708 1 1 0
921 1 24.83803162589453 10.297650323339445 10.920677472861847 0 0 0
3153 1 27.068612277124025 14.082470854615647 8.551442817089217 -1 1 0
1576 1 38.545694685183626 12.898741767642598 4.235304971456241 0 0 1
2029 1 40.31259724527218 13.520824241665377 7.816857078281927 0 0 1
654 1 47.25684159814192 14.985917983016321 7.9918294035219475 0 0 0
1561 1 44.762666996848324 14.71061616721608 8.980806030735373 0 0 1
1300 1 47.81009026396598 15.697487579355101 10.709430618763344 0 0 0
565 1 49.61985207196573 19.193800031449776 9.25271275855918 -1 -1 0
580 1 3.0503238589680652 19.793460462859045 7.180036298817466 1 0 0
3534 1 6.404738055752702 17.204012126488326 9.04578707079692 1 0 1
1328 1 9.405010926377567 16.536039143816744 8.23411137030626 -1 -1 0
3415 1 13.493392070315585 17.322960893791816 9.996961699820725 0 0 0
763 1 16.97296463344664 17.25287692170857 7.4513494902441835 1 -1 0
3155 1 20.62387963635692 16.492662207191014 5.78810467445794 0 1 0
2454 1 24.98396547693336 17.332907313437993 5.674369976535618 0 0 0
1351 1 24.848576017044536 15.597739766083976 8.10683689623149 0 1 1
1880 1 29.723298184574066 17.194787489283584 7.915372878496308 1 -1 1
3089 1 31.756110065406276 19.319152532496716 7.781982904117816 -1 0 0
2174 1 33.54174845407994 19.61251015507084 9.963999158170154 0 0 0
699 1 37.14678398327517 16.314126636910803 7.752615901106942 0 0 0
1877 1 36.423613651276476 18.834087320833 6.825214557822057 0 0 1
1475 1 40.355409639158225 17.616219747246085 7.457319873884879 -1 0 0
1229 1 44.560742141099595 17.3785692325992 9.582987572271222 0 0 0
2936 1 47.05670483062687 18.59396201614506 10.089766070349182 -1 0 0
2701 1 1.1707246809037766 22.032227637238172 8.35496362768367 1 0 0
3479 1 5.410788192738346 21.065168968954364 7.589420303973845 1 -1 0
2515 1 3.7144280122338635 18.015157932317894 9.95800235707515 0 0 -1
4174 1 7.968022900290308 21.504862957315655 9.021707747377253 1 0 1
3124 1 11.566099722574943 21.03598075923445 8.361013314655334 0 0 0
1801 1 13.862319439910127 20.932224480621855 6.926675307617816 2 0 0
2442 1 18.367771090569395 19.51398302151937 8.447200171349284 1 0 0
1311 1 17.956870880914032 22.258542845264756 9.643116511498427 0 0 0
2630 1 20.52936380157309 18.61720971634074 9.442654697346864 0 1 0
1406 1 22.567571561526282 20.026409575164372 7.918261906590715 0 -1 0
885 1 25.16091781568791 19.042774676488875 8.341005219234864 -1 0 0
2624 1 27.755938256964615 21.775179621306172 6.225448406882513 0 0 0
1800 1 29.333203552131614 20.857123871539745 9.235348824680402 0 0 0
3847 1 35.87428692488143 20.667051904864156 8.576853885136055 -1 0 1
1440 1 40.00189283924086 19.20384537147752 9.979810110368565 -1 0 0
2184 1 42.81418185083227 19.813298895642415 8.91959741386362 0 1 0
1703 1 46.59246670269029 20.562975477403796 5.920829583301588 0 0 1
598 1 5.040513876493379 24.685409288295347 9.488902787203415 0 -1 0
4138 1 11.582835688432308 23.007417746633028 9.986962602855412 0 0 0
2890 1 6.532726401676777 24.89224152299951 4.951231232728705 0 0 0
2028 1 14.061622120397137 23.903522097282455 10.725410967234367 1 0 1
459 1 21.050131113220523 21.813143811187715 9.64703588099552 0 -1 0
2502 1 33.22516728277359 2.8441753416210642 0.4637675161927517 0 1 -1
2133 1 27.837118246551327 24.8117056675838 3.8737086798037117 0 0 0
2560 1 37.98414231869888 24.132193322516976 10.998662311538352 0 0 0
726 1 28.740862202706808 23.84935500011369 8.629933116848411 0 -1 0
2977 1 2.8021790061270315 4.5867457868805985 -0.012849425203931258 0 1 1
721 1 39.81716300976085 23.59518824602492 8.64465392998919 0 0 0
908 1 42.30636495091134 22.402331605047525 9.038341756613486 0 0 0
579 1 45.31193105770807 20.80932462027808 8.745228326006089 0 0 0
1642 1 45.89081752268309 23.356993188075258 8.200814898024172 0 0 1
1866 1 2.4565888884526608 1.318856154984076 10.22127675103375 0 0 1
1294 1 3.9496564608578817 1.1924068779974373 12.99277602425138 0 -1 0
719 1 6.055505529229448 3.043804306114971 7.768254738749377 0 0 0
712 1 6.212377185892879 2.743496340156484 14.413037748774927 0 0 0
1273 1 24.441611667114714 24.85789297653239 5.9104032015604 0 0 0
375 1 12.053684111535516 0.8191395628990414 10.221858637507895 0 0 1
3935 1 12.43096135076985 18.661509428803026 16.08448803824432 1 0 0
3990 1 18.239567251446356 2.4242048250168993 12.27490782303038 0 0 1
953 1 26.09839933537327 24.423914773364803 15.224534397693457 0 -1 0
884 1 20.92100849780857 2.587330468631443 12.334260201991349 0 0 0
3759 1 20.190052973279922 2.0954736234233846 6.787015895165242 0 1 1
950 1 23.38947586490557 1.2952120948452885 11.069733672981984 0 0 0
2583 1 25.708757099926995 1.155184918984398 12.887850060974035 0 1 0
3095 1 29.85940453627001 0.13677169014127522 10.474173612291793 0 0 0
3869 1 5.598562189714129 12.524607079912856 0.1466158157674869 0 0 1
3111 1 15.719773470646972 13.491687787218991 16.358860038064513 0 0 0
3374 1 38.045740763902295 2.0443991770663024 11.47738832824191 0 0 1
1833 1 44.81884340846851 1.0998275004622684 12.813218944777883 0 1 0