
# Create simulation box of size 50 x 50 x 50 Angstrom
#
lattice	            sc 1
Lattice spacing in x,y,z = 1.0000000 1.0000000 1.0000000
region 	            all block 0 50 0 50 0 50 units box
create_box          1 all
Created orthogonal box = (0.0000000 0.0000000 0.0000000) to (50.000000 50.000000 50.000000)
  1 by 2 by 3 MPI processor grid

# fill box with 4175 randomly distributed atoms
#
create_atoms        1 random 4175 63782 all
Created 4175 atoms
  create_atoms CPU = 0.001 seconds
mass                1 18.015

# Define potential
#
pair_style          sw
pair_coeff          * * ML_mW.sw mW
Reading sw potential file ML_mW.sw with DATE: 2019-02-27

# Run minimization
#
minimize            1.0e-8 1.0e-8 10000 1000
WARNING: Using 'neigh_modify every 1 delay 0 check yes' setting during minimization (../min.cpp:187)
Neighbor list info ...
  update every 1 steps, delay 0 steps, check yes
  max neighbors/atom: 2000, page size: 100000
  master list distance cutoff = 6.0032907
  ghost atom cutoff = 6.0032907
  binsize = 3.0016454, bins = 17 17 17
  1 neighbor lists, perpetual/occasional/extra = 1 0 0
  (1) pair sw, perpetual
      attributes: full, newton on
      pair build: full/bin/atomonly
      stencil: full/bin/3d
      bin: standard
Per MPI rank memory allocation (min/avg/max) = 4.255 | 4.258 | 4.261 Mbytes
Step Temp E_pair E_mol TotEng Press 
       0            0    7792709.3            0    7792709.3    5898794.3 
     630            0   -45180.336            0   -45180.336   -154.07449 
Loop time of 1.14778 on 6 procs for 630 steps with 4175 atoms

98.8% CPU use with 6 MPI tasks x no OpenMP threads

Minimization stats:
  Stopping criterion = max force evaluations
  Energy initial, next-to-last, final = 
      7792709.32924461  -45180.0188663597   -45180.336116598
  Force two-norm initial, final = 2.0191930e+08 4.9721331
  Force max component initial, final = 1.0948746e+08 0.73126211
  Final line search alpha, max atom move = 0.053306038 0.038980685
  Iterations, force evaluations = 630 1000

MPI task timing breakdown:
Section |  min time  |  avg time  |  max time  |%varavg| %total
---------------------------------------------------------------
Pair    | 0.89244    | 0.97949    | 1.0385     |   5.4 | 85.34
Neigh   | 0.024037   | 0.0246     | 0.025527   |   0.3 |  2.14
Comm    | 0.064754   | 0.12352    | 0.21119    |  15.4 | 10.76
Output  | 0          | 0          | 0          |   0.0 |  0.00
Modify  | 0          | 0          | 0          |   0.0 |  0.00
Other   |            | 0.02017    |            |       |  1.76

Nlocal:        695.833 ave         704 max         685 min
Histogram: 1 1 0 0 1 0 0 1 0 2
Nghost:        1494.17 ave        1515 max        1468 min
Histogram: 1 1 0 0 0 0 1 1 1 1
Neighs:        0.00000 ave           0 max           0 min
Histogram: 6 0 0 0 0 0 0 0 0 0
FullNghs:      19997.0 ave       20462 max       19320 min
Histogram: 1 1 0 0 0 0 0 2 0 2

Total # of neighbors = 119982
Ave neighs/atom = 28.738204
Neighbor list builds = 26
Dangerous builds = 0

# Add velocity/set timestep
#
velocity            all create ${TEMP} 120598 rot yes dist gaussian
velocity            all create 215 120598 rot yes dist gaussian
timestep            5.0

# Define output
#
compute	            1 all msd
thermo	            100
thermo_style        custom step temp press vol etotal ke pe c_1[4] density

# Neighbor lists
#
neigh_modify        delay 0 every 1 check yes

# Set fixes
#
fix                 1 all momentum 10 linear 1 1 1 rescale
fix                 2 all nve
fix                 3 all temp/csvr ${TEMP} ${TEMP} 500.0 928347
fix                 3 all temp/csvr 215 ${TEMP} 500.0 928347
fix                 3 all temp/csvr 215 215 500.0 928347
fix                 4 all press/berendsen iso ${PRES} ${PRES} 1000.0 modulus 20000
fix                 4 all press/berendsen iso 500 ${PRES} 1000.0 modulus 20000
fix                 4 all press/berendsen iso 500 500 1000.0 modulus 20000

# Run 0.5 ns equilibration
#
dump                1 all custom 1000 eq.${NAME}.dump id type x y z vx vy vz
dump                1 all custom 1000 eq.liquid_density_MLmW.dump id type x y z vx vy vz
run                 100000
Per MPI rank memory allocation (min/avg/max) = 3.506 | 3.508 | 3.511 Mbytes
Step Temp Press Volume TotEng KinEng PotEng c_1[4] Density 
     630          215    824.17143       125000   -42505.327    2675.0087   -45180.336 2.7295415e-33   0.99914793 
     700    137.24282    365.09338    125029.03    -41685.34    1707.5617   -43392.901   0.25122833   0.99891597 
     800    171.01898    235.67908    124815.17   -40947.303    2127.8013   -43075.104    0.6066056    1.0006275 
     900    190.81971    436.62207    124508.13   -40537.335      2374.16   -42911.495    1.0440685     1.003095 
    1000     201.0569    350.20385    124314.79    -40279.51    2501.5301    -42781.04     1.466579    1.0046552 
    1100    208.08816    637.10772    124193.76   -40115.603    2589.0123   -42704.615    1.8857591    1.0056341 
    1200    206.52149    581.31665    123956.75   -40160.568    2569.5199   -42730.088    2.2106852     1.007557 
    1300    208.76058    657.65605    124096.91   -40141.656    2597.3785   -42739.034    2.6465419     1.006419 
    1400    204.84045    445.38627    123979.28   -40156.324    2548.6047   -42704.929    3.0288774    1.0073739 
    1500    208.15471    365.38223    124124.01   -40089.902    2589.8404   -42679.742    3.3142011    1.0061993 
    1600    216.13923    472.22324    124419.17   -39993.402     2689.183   -42682.585    3.6824172    1.0038123 
    1700    210.27104    592.67026    124271.68   -40020.768    2616.1716   -42636.939    4.0768228    1.0050036 
    1800    209.53446    444.33046    124246.08   -40101.792    2607.0071   -42708.799    4.4509662    1.0052107 
    1900     212.4938    423.94501    124298.64   -40098.945    2643.8268   -42742.772    4.8452381    1.0047857 
    2000    212.93269    388.66881    124539.54   -40061.262    2649.2875    -42710.55    5.1718935    1.0028421 
    2100     216.5375    796.53462    124569.86   -40029.245    2694.1381   -42723.383    5.5420507     1.002598 
    2200    217.77416    537.86468    124776.87    -40057.44    2709.5246   -42766.965     5.824981    1.0009347 
    2300    217.89282     515.9146    124655.47   -40045.498    2711.0009   -42756.499    6.1597827    1.0019094 
    2400    217.57191    469.60287    124809.08    -40072.68    2707.0082   -42779.688    6.4458594    1.0006764 
    2500    216.45641    484.27378    124723.07   -40053.685    2693.1292   -42746.815    6.8132304    1.0013664 
    2600    221.68034    456.57853    124781.27   -40009.017    2758.1249   -42767.142    7.1660754    1.0008994 
    2700    223.96348    452.65043    125017.64   -40033.512    2786.5315   -42820.043     7.373422   0.99900695 
    2800    220.87054    538.99048    125156.91   -40031.571    2748.0495    -42779.62    7.7006997   0.99789532 
    2900    217.85187    483.24914    125017.78   -40106.493    2710.4914   -42816.984    8.0366537   0.99900583 
    3000     215.6865     577.0219    125094.72   -40137.365    2683.5501   -42820.915     8.234603    0.9983914 
    3100    216.43927    463.58416    125109.72   -40110.869     2692.916   -42803.785    8.6369687   0.99827169 
    3200    216.60345    638.46771    125041.41   -40164.803    2694.9588   -42859.762    8.7058335   0.99881703 
    3300    218.00526    437.11289    125063.42   -40162.956    2712.3999   -42875.356    9.0290796   0.99864126 
    3400    216.78948    473.96445    125126.74   -40198.363    2697.2733   -42895.636     9.291556   0.99813594 
    3500    218.20921    419.49236    125089.68   -40226.912    2714.9375    -42941.85    9.6353295   0.99843164 
    3600    217.03598    513.76463    125097.81    -40266.77    2700.3402    -42967.11    9.9772367   0.99836673 
    3700    213.16474     495.4804    125071.29   -40330.494    2652.1746   -42982.669    10.172904   0.99857845 
    3800    211.63485    516.39258    124911.84   -40287.758    2633.1399   -42920.898    10.550988   0.99985311 
    3900    213.67712    609.62716    125202.83   -40308.422    2658.5496   -42966.971    10.838208   0.99752933 
    4000    213.27303    435.25844    125279.67   -40300.442    2653.5219   -42953.964    11.125011   0.99691744 
    4100    216.33316    380.49261    125394.79   -40286.435    2691.5958   -42978.031    11.503723   0.99600226 
    4200    215.95426    366.76229    125471.19   -40300.134    2686.8815   -42987.016     11.60266   0.99539577 
    4300    212.84859    384.90444    125227.94   -40304.247    2648.2411   -42952.488    11.720159   0.99732928 
    4400    215.41114    478.43507       125300   -40296.488    2680.1241   -42976.612    12.015352   0.99675575 
    4500    212.21312    520.15956    125282.35   -40297.319    2640.3346   -42937.654    12.266207    0.9968961 
    4600    216.86852    347.16921    125220.76   -40356.995    2698.2567   -43055.252    12.406728    0.9973865 
    4700    216.14421    522.85591    125269.32   -40287.932    2689.2449   -42977.177    12.675774   0.99699987 
    4800    215.48094    516.38761    125155.53   -40344.592    2680.9925   -43025.584    12.960174   0.99790631 
    4900    218.98157    456.29341    125036.81   -40228.529     2724.547   -42953.076    13.189672   0.99885381 
    5000    221.75111    449.34807    125089.95   -40182.432    2759.0054   -42941.437     13.44017   0.99842948 
    5100    217.44209    557.34494    125127.49   -40240.544    2705.3929   -42945.937    13.730605   0.99812993 
    5200    212.66666    370.93473    124909.65   -40289.443    2645.9776   -42935.421    13.911783   0.99987064 
    5300    214.29499    568.47703    125045.21   -40252.932    2666.2371   -42919.169    14.234479   0.99878673 
    5400     215.6222    621.10066    125159.08   -40280.508    2682.7501   -42963.258    14.386454   0.99787802 
    5500    212.75721    495.91474    125114.41   -40269.036    2647.1042    -42916.14    14.782091   0.99823429 
    5600    209.52869    590.41921    125336.89   -40259.214    2606.9352   -42866.149    15.058319   0.99646234 
    5700    216.84754    672.18813     125374.3   -40260.971    2697.9957   -42958.967    15.286398   0.99616501 
    5800    213.14543    428.50757    125289.79   -40293.069    2651.9344   -42945.003    15.684484   0.99683693 
    5900    212.70216     278.6215    125132.81   -40332.132    2646.4193   -42978.551     15.89817   0.99808752 
    6000     213.5464     720.5859    125198.73   -40341.041    2656.9232   -42997.964    16.252286   0.99756196 
    6100    216.49462    441.04393    125366.96   -40283.418    2693.6046   -42977.022    16.510842   0.99622331 
    6200     214.1069    500.78538     125339.5   -40351.362    2663.8968   -43015.259    16.584074   0.99644158 
    6300    211.56616    682.86526    125241.54    -40319.29    2632.2853   -42951.575    16.847732   0.99722099 
    6400    217.07622    554.76855    125330.88   -40289.493    2700.8409   -42990.334    17.146744   0.99651012 
    6500     217.8496    731.37252    125580.51    -40261.88    2710.4632   -42972.343    17.401703   0.99452925 
    6600     214.5336    536.10904    125829.76   -40357.027    2669.2059   -43026.233    17.671302    0.9925592 
    6700     211.2159    625.74191    125995.14   -40431.841    2627.9273   -43059.768    17.774269   0.99125644 
    6800    215.11641    404.67731    125975.93    -40368.83    2676.4571   -43045.287    18.035776   0.99140761 
    6900    216.76638    605.42083       125924   -40323.835    2696.9859   -43020.821    18.184957   0.99181644 
    7000     217.5047    316.27096    125937.53   -40323.447     2706.172   -43029.619    18.363391   0.99170987 
    7100    215.84464    582.00461    126042.32   -40354.207    2685.5176   -43039.725    18.549618   0.99088537 
    7200    216.25717    301.61969    125861.38   -40417.955    2690.6503   -43108.605    18.756835   0.99230986 
    7300    211.59496    495.37965    125910.45   -40479.308    2632.6436   -43111.951     18.82672   0.99192312 
    7400    207.90328    498.05388    126075.93   -40493.829     2586.712   -43080.542    19.049174   0.99062119 
    7500    209.75525    485.89617    125925.14   -40469.035    2609.7541   -43078.789    19.170623    0.9918074 
    7600    210.89192    436.37626    126119.01    -40543.44    2623.8964   -43167.336    19.352493   0.99028287 
    7700    216.34071    434.23346    126300.77   -40435.235    2691.6898   -43126.925    19.425993   0.98885771 
    7800    219.54668    592.10924    126346.07    -40410.14    2731.5781   -43141.718    19.489112    0.9885032 
    7900    210.16596    453.71152    126131.57    -40473.22    2614.8641   -43088.085    19.853842   0.99018425 
    8000     216.6748    557.52099    125931.42   -40442.933    2695.8464    -43138.78    19.938756   0.99175795 
    8100     210.9341    455.74298    125946.16   -40519.745    2624.4212   -43144.166    20.027381   0.99164195 
    8200    209.87141    463.23419    125931.35   -40529.354    2611.1993   -43140.553    20.226362   0.99175851 
    8300    214.38721    402.22694    125967.28   -40529.823    2667.3845   -43197.208    20.572981   0.99147564 
    8400    213.34886    692.24107    126027.96   -40490.261    2654.4654   -43144.727    20.830585   0.99099829 
    8500    214.27527    520.33414    126121.55   -40430.712    2665.9917   -43096.704    20.974062   0.99026293 
    8600     214.0824    453.30691    126153.96   -40452.685     2663.592   -43116.277     21.19571   0.99000852 
    8700     217.7159    487.32229     126159.6   -40437.466    2708.7997   -43146.265     21.43664   0.98996424 
    8800     213.4225    508.89632    126072.72    -40468.97    2655.3816   -43124.351     21.65485   0.99064643 
    8900    218.01319    557.90269    126197.25   -40551.174    2712.4986   -43263.673    21.955009   0.98966889 
    9000    216.41441    299.21815    126320.99   -40505.093    2692.6067   -43197.699    22.135178   0.98869946 
    9100    210.87147    652.98514    126105.17   -40559.643     2623.642   -43183.285    22.119841   0.99039152 
    9200     214.2127    500.41346    126207.91   -40455.887    2665.2133     -43121.1    22.195524   0.98958533 
    9300    215.89103    737.99266    126271.13   -40505.968    2686.0948   -43192.063    22.543849   0.98908985 
    9400    214.61845    523.47996    126363.34   -40451.119    2670.2616   -43121.381    22.755185   0.98836807 
    9500    215.65346    429.19394    126308.56   -40468.758     2683.139   -43151.897    22.888778   0.98879673 
    9600     215.4664    565.16962    126321.64   -40445.435    2680.8116   -43126.246    23.180544   0.98869433 
    9700    217.40118     479.3894    126286.14   -40388.891     2704.884   -43093.775    23.551303   0.98897229 
    9800    215.10368     548.6706    126389.44   -40473.162    2676.2987   -43149.461     23.77099   0.98816395 
    9900    211.09433    430.01994    126189.08    -40544.04    2626.4148   -43170.455    23.935228   0.98973293 
   10000    208.54205    358.90302    125933.04   -40536.626    2594.6596   -43131.286    24.016893   0.99174519 
   10100    214.57009    524.97322    125835.51   -40507.235    2669.6599   -43176.895    24.172184   0.99251387 
   10200     208.5369    689.49001    125830.83   -40537.598    2594.5955   -43132.193    24.498896   0.99255084 
   10300    213.46199    600.23382    126113.55   -40522.921     2655.873   -43178.794    24.627898   0.99032574 
   10400    214.97921    524.04379    125949.81   -40468.439    2674.7501   -43143.189    24.852205   0.99161315 
   10500    212.82379    338.91624    126068.14   -40446.434    2647.9326   -43094.367    25.193376   0.99068243 
   10600    214.03185    418.82355    125994.48   -40379.157    2662.9632    -43042.12    25.508679   0.99126162 
   10700    214.83243    604.50077     126223.8   -40363.854    2672.9239   -43036.778    25.885215   0.98946072 
   10800    219.03775     351.4211    126247.19   -40355.566    2725.2461   -43080.812    25.830603    0.9892774 
   10900    216.02425    470.72893    126288.21   -40390.418    2687.7524    -43078.17    26.098106   0.98895609 
   11000    216.15809    350.50158    126046.08    -40387.39    2689.4176   -43076.808    26.231754   0.99085578 
   11100    210.71068    617.79244    126051.87   -40420.589    2621.6414   -43042.231    26.596885   0.99081032 
   11200    215.79469    476.55731    126347.02   -40414.553    2684.8962   -43099.449    26.839863   0.98849575 
   11300    216.55927    528.11765    126408.77   -40416.445    2694.4091   -43110.854    26.903274   0.98801288 
   11400    214.29601    479.17701    126190.03   -40428.483    2666.2497   -43094.733     26.97159   0.98972547 
   11500    213.28088     394.9638    126115.17   -40437.109    2653.6196   -43090.729    27.381709   0.99031296 
   11600    211.48379    510.32704    125887.22    -40436.37    2631.2604    -43067.63    27.648313   0.99210623 
   11700    216.17872    632.90863    125996.71   -40327.479    2689.6743   -43017.153    27.939388   0.99124405 
   11800    213.92347    480.49544    125860.84   -40400.783    2661.6146   -43062.398    28.285115   0.99231415 
   11900    216.20989    499.57454    125997.58   -40409.445    2690.0621   -43099.508    28.667078   0.99123722 
   12000    213.60998    461.25276     125921.8   -40415.702    2657.7142   -43073.416     28.66932   0.99183379 
   12100    213.00108    725.37343    125801.78   -40379.779    2650.1384   -43029.918    28.886799   0.99277996 
   12200    214.57989    545.68135    125729.16    -40364.35    2669.7818   -43034.132    29.276844    0.9933534 
   12300    215.86163    439.79808    125921.16   -40386.835    2685.7291   -43072.564    29.544451   0.99183881 
   12400     216.7773     423.5276    125833.52   -40378.653    2697.1218   -43075.775    29.682409   0.99252957 
   12500     210.1305    473.67085    125612.47   -40475.535     2614.423   -43089.958    29.790168   0.99427618 
   12600    215.86608    632.62693    125853.46   -40393.087    2685.7844   -43078.871    29.966958   0.99237231 
   12700    213.10559    543.82297    125687.12   -40370.157    2651.4387   -43021.596    30.244107   0.99368571 
   12800     219.5046    530.62065    125810.33   -40355.188    2731.0546   -43086.242    30.611375   0.99271256 
   12900    215.99281    457.13693     125933.6   -40410.439    2687.3612     -43097.8    30.744518   0.99174081 
   13000    215.63303    400.90527    125946.34   -40358.649    2682.8848   -43041.534    31.034672   0.99164046 
   13100    218.84919    599.64039    125956.25   -40367.274       2722.9   -43090.174    31.414924   0.99156249 
   13200    218.32534    517.70068    126176.41   -40290.969    2716.3824   -43007.351    31.657347   0.98983233 
   13300    218.42625    474.10527       126270   -40330.293    2717.6378   -43047.931    31.855933   0.98909871 
   13400    211.52749    530.94519    126434.36   -40400.387    2631.8041   -43032.191    32.061872   0.98781287 
   13500    219.45018    502.75618     126515.8   -40433.639    2730.3775   -43164.016     32.29405   0.98717705 
   13600    211.54116    675.72956    126515.39   -40464.557    2631.9742   -43096.531    32.418952   0.98718023 
   13700    212.80597    633.01564    126558.43   -40467.615    2647.7109   -43115.326    32.314225   0.98684451 
   13800    219.44197    498.26429    126641.04   -40396.724    2730.2753   -43126.999    32.321139   0.98620076 
   13900    216.31895    439.98868    126705.74   -40443.752     2691.419   -43135.171     32.40751   0.98569722 
   14000    217.32424    413.60665    126727.78   -40431.969    2703.9267   -43135.896    32.762116   0.98552578 
   14100    213.50825     490.5195    126678.58   -40440.005    2656.4485   -43096.454    32.958249   0.98590853 
   14200     212.8833    558.27014    126535.67   -40468.413    2648.6729   -43117.086    33.210584   0.98702202 
   14300    213.36892    597.48707    126764.14   -40498.905     2654.715    -43153.62    33.591913   0.98524306 
   14400    214.04586    365.01944    126851.39   -40473.495    2663.1375   -43136.632    33.698539   0.98456538 
   14500    215.52552    618.83018    126910.07    -40432.98    2681.5472   -43114.527    33.822202   0.98411019 
   14600    216.83857    653.41264    126768.87   -40446.947     2697.884   -43144.831    34.041603   0.98520629 
   14700     212.8367    479.29264    126855.34   -40497.617    2648.0932    -43145.71    34.185294   0.98453473 
   14800    212.79577    431.06602    126627.47   -40546.045    2647.5839   -43193.629    34.201881   0.98630642 
   14900    209.94639    374.48773    126786.82   -40615.758    2612.1322    -43227.89    34.546181   0.98506682 
   15000    214.79682    577.91614    126480.83    -40603.62    2672.4808   -43276.101    34.602682   0.98744993 
   15100    210.07408    429.72122    126469.01   -40620.232     2613.721   -43233.953    34.909465   0.98754227 
   15200    213.35969    377.83618    126445.52    -40549.55    2654.6002    -43204.15    35.307973    0.9877257 
   15300     209.2181    609.75668    126258.69   -40559.379    2603.0709    -43162.45    35.397903   0.98918728 
   15400    212.52547    289.86666    126000.15   -40534.533    2644.2209   -43178.754    35.538951     0.991217 
   15500    214.23844    564.02778    126038.14   -40505.312    2665.5335   -43170.846    35.976761   0.99091824 
   15600    214.04605    528.86563    126105.54    -40436.31    2663.1399    -43099.45    35.956611   0.99038865 
   15700     212.0286    562.72797    126192.73   -40512.118    2638.0389   -43150.157    36.340911   0.98970434 
   15800      211.222    448.26013    126246.37   -40510.502    2628.0032   -43138.506     36.47023   0.98928379 
   15900    212.42913    583.04653    126258.18   -40565.948    2643.0222    -43208.97    36.687607   0.98919131 
   16000    213.16062    496.86178     126380.1   -40513.173    2652.1234   -43165.296    37.154841     0.988237 
   16100    213.75502    519.30912    126560.85   -40466.686    2659.5188   -43126.205    37.394769   0.98682562 
   16200    214.53862    451.20975     126470.4   -40526.671    2669.2684   -43195.939    37.576244   0.98753143 
   16300    211.78642    358.99195    126569.16   -40545.695    2635.0257   -43180.721    37.791335   0.98676083 
   16400     218.2679    379.64789    126553.65   -40450.888    2715.6677   -43166.556    38.200343   0.98688176 
   16500    216.76049    646.04596    126568.63   -40437.747    2696.9125   -43134.659     38.46306   0.98676496 
   16600     217.5497    382.90295    126594.88   -40422.603    2706.7319   -43129.335    38.648657   0.98656038 
   16700    220.69119     510.9316    126476.58   -40458.715     2745.818   -43204.533    38.814279   0.98748318 
   16800    218.91231    481.14601    126497.77   -40446.412    2723.6853   -43170.098     38.90174    0.9873177 
   16900     213.7693    436.62055    126412.68   -40418.829    2659.6965   -43078.526    38.900782    0.9879823 
   17000    213.57893    616.35263    126483.41   -40440.623    2657.3279   -43097.951    39.084173   0.98742983 
   17100     217.2572    495.65879    126650.03   -40353.242    2703.0926   -43056.334    39.350606   0.98613073 
   17200    215.33299    426.38029    126543.03   -40370.685    2679.1517   -43049.836     39.33595   0.98696461 
   17300     215.2798    410.44415    126434.19    -40408.01      2678.49     -43086.5    39.655565   0.98781426 
   17400    216.13976    427.76809    126158.08   -40418.382    2689.1895   -43107.571    39.924297   0.98997616 
   17500    214.59113    480.12454    126257.01   -40413.434    2669.9217   -43083.356     40.14487   0.98920045 
   17600    217.32143    573.13471    126317.68   -40399.527    2703.8918   -43103.418    40.322443   0.98872536 
   17700    214.90292     461.5269    126434.56   -40407.266    2673.8008   -43081.066    40.631966   0.98781132 
   17800    214.43445    358.73794    126578.92   -40410.883    2667.9722   -43078.855    40.728898   0.98668473 
   17900    216.46159    347.84562     126443.7   -40385.811    2693.1937   -43079.005    41.293644   0.98773992 
   18000    220.66997    477.24222    126681.82    -40338.36     2745.554   -43083.914    41.482665   0.98588333 
   18100    215.30538    413.87207    126446.24   -40444.904    2678.8083   -43123.713    41.849701   0.98772011 
   18200    214.98943    534.51403    126145.82   -40445.847    2674.8772   -43120.725    41.992717   0.99007238 
   18300    220.52398    495.37901    126277.72   -40356.116    2743.7376   -43099.853    42.197515    0.9890382 
   18400    214.79734    384.48147    126272.67   -40396.237    2672.4873   -43068.724    42.496081   0.98907774 
   18500    216.29239    411.66538    126236.68   -40342.457    2691.0886   -43033.546    42.660052   0.98935972 
   18600      214.496    477.60806    126341.62   -40391.849     2668.738   -43060.587    42.991076   0.98853798 
   18700    216.69393    537.16428    126450.31   -40351.323    2696.0844   -43047.407    43.326706   0.98768828 
   18800    219.92385    440.01489    126499.61   -40337.488    2736.2708   -43073.759    43.506223   0.98730337 
   18900    214.88224    417.04678    126566.92   -40373.161    2673.5435   -43046.704    43.914767   0.98677831 
   19000    215.06186     520.4399    126467.28   -40357.935    2675.7784   -43033.713    44.332185   0.98755573 
   19100    212.36757    454.29987    126364.21   -40417.522    2642.2563   -43059.779     44.49993   0.98836128 
   19200    215.12901    523.91674    126276.15   -40386.046    2676.6139    -43062.66     44.67729   0.98905055 
   19300    219.45569    583.25806    126365.31   -40323.033     2730.446   -43053.479    44.692975   0.98835269 
   19400    216.51938    440.31132    126368.96   -40338.299    2693.9127   -43032.212    45.086492   0.98832415 
   19500    213.10605    514.93743    126251.08   -40338.794    2651.4444   -42990.239    45.450874   0.98924688 
   19600    215.24049    406.50784    126524.77   -40389.508    2678.0009   -43067.509    45.858287   0.98710705 
   19700    218.13495    605.39887    126558.11    -40382.05    2714.0135   -43096.064    46.358248   0.98684699 
   19800    213.46013    505.10599    126571.93   -40415.166    2655.8499   -43071.016    46.669814   0.98673925 
   19900      215.834    492.26907    126643.17   -40429.094    2685.3853   -43114.479    46.725192   0.98618421 
   20000      213.545     494.8868    126844.48   -40477.784    2656.9058    -43134.69    46.809929   0.98461905 
   20100    215.87189    631.83408    126750.51   -40449.235    2685.8567   -43135.092    47.067918   0.98534904 
   20200    213.36979    505.41896    126747.72    -40479.98    2654.7258   -43134.706    47.227862   0.98537067 
   20300    215.84477    536.91026    126664.22   -40515.408    2685.5193   -43200.928    47.225375   0.98602028 
   20400    216.34258    474.20039    126544.06   -40525.318     2691.713   -43217.031    47.177839    0.9869566 
   20500    215.36662    601.56176       126636   -40494.784    2679.5702   -43174.354    47.503835   0.98624003 
   20600    212.17787    352.99787    126603.67   -40524.365    2639.8961   -43164.261    47.963361   0.98649185 
   20700    215.26749    595.07255    126605.33   -40460.333    2678.3369    -43138.67    48.252231   0.98647892 
   20800    214.79202    452.12473    126678.11   -40455.331    2672.4211   -43127.752    48.226535    0.9859122 
   20900    211.15686    685.29368    126853.07   -40501.793    2627.1928   -43128.986      48.2917   0.98455236 
   21000    212.87602    230.31188    126867.45   -40595.552    2648.5823   -43244.134    48.298242   0.98444081 
   21100    212.74162    460.81249    126731.98   -40603.626    2646.9103   -43250.537    48.702823   0.98549312 
   21200    211.53136    529.62261    126523.78   -40578.496    2631.8522   -43210.349     49.02458    0.9871148 
   21300    212.89296     467.2864    126316.83   -40581.922    2648.7931   -43230.715    49.076552   0.98873198 
   21400    216.72928    613.60168    126331.04   -40552.945    2696.5242    -43249.47    49.485227   0.98862078 
   21500    212.24702    542.27415     126489.6   -40536.134    2640.7565   -43176.891    49.751919   0.98738154 
   21600    215.86533    425.22761     126550.6   -40481.161    2685.7751   -43166.936    49.907402   0.98690554 
   21700     217.6232    484.68424    126544.18   -40446.927    2707.6463   -43154.573    50.192379   0.98695567 
   21800    216.00906    632.96996    126687.27   -40442.644    2687.5634   -43130.207    50.382065   0.98584091 
   21900    216.87589     395.5701    126679.04   -40459.931    2698.3484   -43158.279    50.586577    0.9859049 
   22000    216.76476    375.08413    126541.88   -40507.135    2696.9657   -43204.101    50.855202   0.98697361 
   22100    217.63202     355.3375    126440.92    -40445.82    2707.7561   -43153.576    50.958145   0.98776164 
   22200    215.26019    492.24371     126383.2   -40471.107     2678.246   -43149.353    51.114852    0.9882128 
   22300    217.06682    575.44042    126329.71   -40456.433    2700.7239   -43157.157    51.292566   0.98863119 
   22400    218.29529    769.20084     126517.6   -40430.316    2716.0084   -43146.325    51.541226     0.987163 
   22500    216.62588    713.17224    126622.95   -40446.999    2695.2378   -43142.237     51.67979   0.98634169 
   22600    217.66484    489.91733    126547.35   -40411.665    2708.1644   -43119.829    51.964782   0.98693091 
   22700    217.80693    496.47552    126997.39   -40430.371    2709.9323   -43140.304    52.253889   0.98343351 
   22800    220.57056    522.66288    126862.33    -40410.23    2744.3171   -43154.547    52.208985   0.98448053 
   22900    218.34509    380.53043    126923.58   -40474.917     2716.628   -43191.545    52.796282   0.98400542 
   23000    217.56742    456.37809    126867.34   -40453.784    2706.9523   -43160.736     53.13144   0.98444165 
   23100     209.8815    618.05926    126900.25   -40545.336    2611.3249   -43156.661    53.493014    0.9841863 
   23200    214.45061    452.75456    126890.53    -40485.75    2668.1732   -43153.923    53.522608   0.98426168 
   23300    211.90742    371.85341     126806.4   -40535.581    2636.5312   -43172.113    53.810988   0.98491471 
   23400    217.97138    333.71325     126847.8    -40465.65    2711.9784   -43177.628    53.856218   0.98459329 
   23500    214.20443    633.65118    126773.18   -40504.661    2665.1103   -43169.771    53.848425   0.98517283 
   23600    215.96859    475.97813    126757.41   -40495.535    2687.0598   -43182.595    54.151263    0.9852954 
   23700     214.5761    373.73823    126698.75   -40535.606    2669.7346   -43205.341    54.496856    0.9857516 
   23800    215.10972    634.24148    126674.06   -40592.974    2676.3739   -43269.348    54.614346   0.98594372 
   23900    214.62267     514.2786    126702.58   -40616.107     2670.314   -43286.421    54.853942   0.98572178 
   24000    217.45849    467.71812    126722.26   -40544.857    2705.5971   -43250.454    54.980883   0.98556865 
   24100     218.0837    582.45761     126775.8   -40554.164    2713.3758    -43267.54    55.153003   0.98515249 
   24200    215.57487    594.17223    126902.99   -40619.776    2682.1613   -43301.937     55.39271   0.98416512 
   24300     211.8061     367.5606    126845.63    -40589.74    2635.2705    -43225.01    55.276054   0.98461016 
   24400    210.27718    387.67664    126699.39   -40623.318    2616.2478   -43239.566    55.393932   0.98574661 
   24500    214.36326    646.07745    126650.73   -40579.972    2667.0865   -43247.059     55.77474   0.98612529 
   24600    212.99818    497.11126    126589.01    -40560.39    2650.1023   -43210.492    56.056772   0.98660611 
   24700    215.22298    559.64876     126606.9   -40578.611    2677.7831   -43256.394    56.181889   0.98646669 
   24800    211.15243    683.15602    126836.88   -40575.344    2627.1376   -43202.482    56.424157   0.98467807 
   24900    216.50697    719.87575    126960.23   -40521.861    2693.7583   -43215.619    56.597936    0.9837214 
   25000    216.62983    379.46171    126864.11   -40510.905    2695.2869   -43206.191    56.802625   0.98446667 
   25100    218.06277    575.65885    126934.97   -40506.899    2713.1155   -43220.014    56.825417    0.9839171 
   25200    212.82077    336.83471    126841.31   -40552.294    2647.8949   -43200.188    56.988098   0.98464366 
   25300    212.83529    564.71371    126606.47   -40552.289    2648.0757   -43200.364    57.177822   0.98647005 
   25400     210.0006    533.59033    126600.41   -40522.484    2612.8067   -43135.291     57.23792   0.98651724 
   25500    218.55025    342.72234    126490.78   -40470.546    2719.1806   -43189.727    57.681197   0.98737232 
   25600    208.58678    438.28447    126630.62   -40556.493    2595.2161    -43151.71    58.029192   0.98628189 
   25700    214.10388    596.18921     126701.7   -40561.639    2663.8593   -43225.499    58.269834   0.98572865 
   25800    213.95288    376.79816    126792.62   -40533.097    2661.9805   -43195.078     58.49649   0.98502174 
   25900    217.09623    670.87669    126673.15   -40497.211    2701.0898     -43198.3    58.582044   0.98595076 
   26000    217.40858    537.04258    126497.16   -40433.441    2704.9761   -43138.417    58.416104   0.98732253 
   26100    214.02559    417.31141    126599.68   -40519.136    2662.8853   -43182.022    58.529006   0.98652298 
   26200    217.58148    301.48096    127011.91    -40513.77    2707.1272   -43220.897     58.95641   0.98332112 
   26300    211.72561    413.87653    126853.89   -40497.642    2634.2691   -43131.911    59.253298   0.98454602 
   26400    220.09619    596.26131    126835.44   -40482.728    2738.4151   -43221.143    59.554542   0.98468926 
   26500    219.34272    505.06649    126909.71   -40554.604    2729.0405   -43283.644    59.545869   0.98411299 
   26600    211.20036    353.60794    126802.35   -40600.303     2627.734   -43228.037    59.577501    0.9849462 
   26700    214.26398    626.89731    126937.69    -40625.76    2665.8512   -43291.611     59.69306   0.98389602 
   26800    214.46776    416.23346    126880.23   -40562.199    2668.3867   -43230.586    60.000306   0.98434164 
   26900    218.07829    662.40495    126942.43   -40557.817    2713.3085   -43271.125    60.211791   0.98385932 
   27000    212.30588    483.40409    127134.48   -40603.492    2641.4888   -43244.981    60.469552   0.98237307 
   27100    211.75509    640.45826    127163.29   -40614.325    2634.6359   -43248.961    60.540569   0.98215053 
   27200    211.53378    490.55588    127173.22   -40638.071    2631.8824   -43269.953    60.730401   0.98207382 
   27300    208.96795    435.12701     126894.2    -40648.23    2599.9585   -43248.188    60.772093   0.98423324 
   27400    218.31804    554.16051    126887.82    -40591.84    2716.2915   -43308.132    60.958841   0.98428274 
   27500    219.89584    522.78469    126891.62   -40528.101    2735.9223   -43264.023    61.120176   0.98425326 
   27600     214.0147    483.56151    126812.93   -40544.357    2662.7497   -43207.106    61.120127   0.98486405 
   27700    214.25869    538.82223    126866.67   -40542.502    2665.7855   -43208.287    61.431869   0.98444682 
   27800    218.27277    567.77678    127004.27   -40476.667    2715.7282   -43192.396    61.905438   0.98338026 
   27900    219.69744    338.28423    126933.27   -40500.395    2733.4538   -43233.849     62.10544   0.98393033 
   28000    214.35699    622.68871    126735.57    -40538.68    2667.0085   -43205.688    62.104708   0.98546517 
   28100    214.36237    583.01951    126800.16   -40509.275    2667.0755   -43176.351    61.988469   0.98496322 
   28200    214.02589    520.67854    126885.63   -40557.047    2662.8889   -43219.936    62.257385   0.98429976 
   28300    212.91891    720.74646    126861.35   -40556.743     2649.116   -43205.859    62.375014   0.98448808 
   28400    212.81246    565.32231    126868.34   -40588.528    2647.7916   -43236.319    62.608744    0.9844339 
   28500    213.53357    382.05589    126754.16   -40621.994    2656.7636   -43278.757    62.619349   0.98532069 
   28600    210.60906    424.75696    126577.53   -40568.303    2620.3771    -43188.68    62.810739   0.98669561 
   28700    212.65398    498.50537    126516.86    -40572.79    2645.8198   -43218.609    62.929614   0.98716872 
   28800    214.67089    678.20311    126516.24   -40549.069     2670.914   -43219.983    63.153137   0.98717361 
   28900    218.55963    462.54713    126687.63   -40509.544    2719.2973   -43228.841    63.613455   0.98583806 
   29000    208.96301    499.94959    126647.32   -40578.474    2599.8971   -43178.371    63.869265   0.98615185 
   29100    214.15915    520.99403    126754.61   -40514.419     2664.547   -43178.966    63.988528   0.98531714 
   29200    216.45202    479.71125    126865.98   -40481.794    2693.0746   -43174.868    64.404962   0.98445219 
   29300    212.91846    592.84117    126909.56   -40548.263    2649.1104   -43197.373    64.121628   0.98411415 
   29400    211.11686    673.19685    126879.19   -40603.746    2626.6951   -43230.442     64.33102    0.9843497 
   29500    213.92513    637.06177    126755.03   -40633.958    2661.6354   -43295.593    64.417757   0.98531389 
   29600    215.43143    494.22192    126951.12   -40564.203    2680.3766   -43244.579    64.481569   0.98379198 
   29700    215.56299    532.68712    126842.74   -40621.241    2682.0134   -43303.255    64.964069   0.98463256 
   29800    218.10947    606.68328    127024.91   -40605.871    2713.6965   -43319.568    65.181636   0.98322045 
   29900    213.68971    450.96029    127051.62   -40645.607    2658.7062   -43304.313    65.463107   0.98301379 
   30000    216.10785    409.62717    127288.55   -40630.114    2688.7925   -43318.906    65.699778   0.98118404 
   30100    214.82418    583.85072    127498.63   -40639.086    2672.8212   -43311.908     65.65511   0.97956729 
   30200    216.34765    589.36835    127369.55   -40642.315    2691.7761   -43334.091    65.807372   0.98056005 
   30300    217.54045    640.37109    127556.76   -40601.245    2706.6168   -43307.862    65.953633   0.97912093 
   30400    215.00501    654.98586    127515.11    -40601.56    2675.0711   -43276.631    66.269176   0.97944075 
   30500    217.06522    446.02073    127394.24   -40619.927    2700.7039   -43320.631    66.305794   0.98036996 
   30600    218.10078    403.35451    127202.44    -40617.28    2713.5883   -43330.868    66.415118   0.98184822 
   30700    215.55613    485.34218    127284.77   -40636.136    2681.9281   -43318.064    66.452523   0.98121314 
   30800    220.33988    405.68644    127260.16   -40574.595     2741.447   -43316.042    66.446334   0.98140293 
   30900    214.53394    341.79468    127180.59   -40678.999    2669.2101   -43348.209    66.682964   0.98201694 
   31000    211.74175     503.5327    127274.47   -40711.368      2634.47   -43345.838    66.640172   0.98129256 
   31100    209.87366    440.39779    127332.33   -40710.605    2611.2273   -43321.833    66.465291   0.98084663 
   31200     213.9207    659.87067    127452.57   -40711.014    2661.5802   -43372.594    66.807103    0.9799213 
   31300    213.62427    561.28474    127481.47   -40663.198     2657.892    -43321.09    67.119747   0.97969918 
   31400    215.24285    574.25627    127353.39   -40625.381    2678.0302   -43303.412    67.199048   0.98068446 
   31500    210.90013    503.55312    127444.83   -40685.852    2623.9986    -43309.85    67.199212   0.97998086 
   31600    214.12202    520.46296    127505.74     -40633.1     2664.085   -43297.185     67.35212   0.97951272 
   31700    213.64642     510.0704     127452.5   -40669.239    2658.1677   -43327.406     67.58466   0.97992182 
   31800    216.53757    639.80706    127441.29   -40595.451     2694.139    -43289.59     68.20577   0.98000806 
   31900    221.06653    363.62751    127495.09   -40589.817    2750.4879   -43340.305    68.717278   0.97959449 
   32000    215.95322    532.27627    127288.43   -40578.016    2686.8686   -43264.885    68.785239   0.98118495 
   32100    217.74351     403.5435    127292.94   -40589.145    2709.1432   -43298.288    68.826477   0.98115018 
   32200    218.29987    524.46202       127333   -40580.123    2716.0654   -43296.188    69.142729   0.98084154 
   32300    216.02923    384.37153    127342.12   -40564.926    2687.8143    -43252.74     69.27598   0.98077125 
   32400    215.81993    265.31625    127229.75   -40628.121    2685.2103   -43313.331    69.638713   0.98163751 
   32500    214.71396    523.68696    127100.09   -40619.617    2671.4499   -43291.067    69.588248   0.98263888 
   32600    212.73033    630.55772    127263.89   -40562.248    2646.7697   -43209.017    69.693475   0.98137415 
   32700    216.07031    328.87979    127094.09    -40634.79    2688.3254   -43323.115     69.95846   0.98268525 
   32800    211.96475    396.48761    126972.76   -40673.338    2637.2444   -43310.583    69.878654   0.98362427 
   32900    217.53724    447.59454    126976.23   -40674.617    2706.5768   -43381.193    70.187755    0.9835974 
   33000    212.90571    375.71631    127047.18   -40724.643    2648.9519   -43373.595    70.124278   0.98304809 
   33100    211.75104    448.51737    127044.32   -40647.877    2634.5855   -43282.463    70.395257   0.98307028 
   33200    211.56284    530.90428    127010.24   -40685.158    2632.2439   -43317.401    70.425741   0.98333405 
   33300    214.56635    413.92522    127236.18   -40624.546    2669.6134   -43294.159    70.621178   0.98158788 
   33400    214.69057    597.94027    127167.34   -40699.712    2671.1588   -43370.871    70.840605   0.98211925 
   33500    214.39619    523.61046    127130.41   -40662.506    2667.4962   -43330.003    70.802912    0.9824045 
   33600    214.68319      473.862    127331.38   -40636.887    2671.0671   -43307.954    71.024104   0.98085399 
   33700    212.10407    448.78175    127412.45   -40634.769    2638.9779   -43273.747    71.148178   0.98022987 
   33800    219.40504    515.30429    127470.96    -40628.45    2729.8159   -43358.266    71.415061   0.97977992 
   33900    214.79826    346.97151    127455.71   -40650.745    2672.4987   -43323.244    71.551226   0.97989719 
   34000    216.83328    503.82247     127280.7   -40624.635    2697.8183   -43322.453    71.981428   0.98124451 
   34100    212.35329    443.99948    127219.71   -40655.565    2642.0787   -43297.644    72.194507   0.98171494 
   34200    214.34373    559.71993    127266.16   -40663.169    2666.8435   -43330.012    72.377951   0.98135662 
   34300     211.0699    503.37655    127070.69   -40716.074    2626.1108   -43342.184    72.383369   0.98286622 
   34400    214.39158    488.33262    127110.78   -40642.041    2667.4388    -43309.48    72.980263   0.98255624 
   34500    213.16481    532.05056    127100.37   -40658.075    2652.1755   -43310.251    72.999331   0.98263674 
   34600    214.31512    463.22035     127065.5    -40636.37    2666.4876   -43302.858    73.102227   0.98290635 
   34700    212.83069    567.33702    126996.62   -40692.652    2648.0185    -43340.67    73.272986   0.98343951 
   34800    214.39014    439.46638    127073.74   -40667.082    2667.4209   -43334.503    73.416244   0.98284262 
   34900    214.26697    556.97983    127142.15   -40661.286    2665.8884   -43327.175    73.278482   0.98231386 
   35000    208.73369    372.86563    126809.82   -40744.968     2597.044   -43342.012    73.040808   0.98488819 
   35100     214.0387    435.62361    126722.68   -40662.717    2663.0484   -43325.766    73.128046   0.98556545 
   35200    212.41049    505.23847    126816.16   -40664.241    2642.7904   -43307.031    73.564174    0.9848389 
   35300    208.97318    448.54441    126785.91   -40644.701    2600.0236   -43244.725    74.038205   0.98507392 
   35400    211.24677    535.67401    126982.58   -40662.812    2628.3114   -43291.123    74.350253   0.98354822 
   35500    218.64733    524.01312    126770.18   -40562.294    2720.3885   -43282.683    74.403345   0.98519616 
   35600     212.8449    469.01019       126537    -40612.42    2648.1951   -43260.615    74.546106   0.98701164 
   35700    214.43717    619.51308     126716.8    -40575.95    2668.0061   -43243.956    74.769952   0.98561116 
   35800    212.13918    698.16202     126842.4   -40615.871    2639.4147   -43255.286    75.060767   0.98463522 
   35900    216.89086    413.68531    126956.79   -40562.826    2698.5347   -43261.361    75.247324   0.98374802 
   36000    215.88272    785.98259    127073.96   -40533.323    2685.9914   -43219.314    75.321741   0.98284094 
   36100    218.94799    451.66565    127203.86   -40564.995    2724.1292   -43289.124     75.42637   0.98183731 
   36200    214.24067    521.10806    127297.97   -40589.457    2665.5612   -43255.018    75.592011   0.98111145 
   36300    211.62173    405.64669    127460.91   -40628.672    2632.9767   -43261.649    75.893872    0.9798572 
   36400     220.0182    309.59649    127238.96    -40579.16    2737.4448   -43316.605    76.014567   0.98156641 
   36500    213.24042     511.7478    127115.47   -40561.806    2653.1163   -43214.923    76.223522   0.98252002 
   36600    212.24641    430.39373    126991.17   -40685.929    2640.7488   -43326.678    76.732338    0.9834817 
   36700     214.7127    644.67977    127088.24   -40627.415    2671.4341   -43298.849    77.097357   0.98273054 
   36800    211.31511     424.7372    127144.87   -40621.276    2629.1617   -43250.437    76.989932   0.98229279 
   36900    210.69727      399.047     126951.2   -40652.921    2621.4746   -43274.396    76.879073   0.98379136 
   37000    217.52258    590.12796    127134.24   -40584.031    2706.3944   -43290.426    77.258016    0.9823749 
   37100    219.85456    566.19041    127180.11   -40576.939    2735.4087   -43312.348    77.326833   0.98202065 
   37200    211.32371    419.85922     127062.2   -40633.209    2629.2687   -43262.477    77.445586   0.98293189 
   37300    215.22484     542.3406    127299.61    -40639.52    2677.8062   -43317.326    77.459688   0.98109875 
   37400    213.19864    423.23377    127213.51   -40670.636    2652.5964   -43323.233    77.900668   0.98176279 
   37500    216.12271    407.17372    127015.55   -40687.955    2688.9774   -43376.932    77.834186   0.98329293 
   37600    212.33503    535.15175    126960.39   -40643.791    2641.8515   -43285.642    78.295893   0.98372015 
   37700    213.97218    546.15298    126833.48   -40648.414    2662.2207   -43310.634    78.136729   0.98470442 
   37800    211.86352    591.86837    126828.39   -40747.756     2635.985   -43383.741    78.503865   0.98474399 
   37900    213.07165    426.99375    127101.66   -40711.289    2651.0165   -43362.305    78.829075   0.98262672 
   38000    212.79986    529.28456    127057.43   -40673.086    2647.6348   -43320.721    78.892426   0.98296884 
   38100    215.05963    503.18511    126994.19   -40611.182    2675.7506   -43286.933    79.325144   0.98345831 
   38200    213.17059    575.18907    126972.25   -40622.291    2652.2474   -43274.538    79.463566   0.98362824 
   38300    214.94804    621.51937    127084.07   -40570.591    2674.3623   -43244.954    79.496836   0.98276276 
   38400    213.53946    564.24696    127347.16   -40621.156    2656.8369   -43277.993    79.680902   0.98073241 
   38500    213.59516    427.44414    127312.63   -40648.559    2657.5299   -43306.089    79.725775   0.98099842 
   38600    214.01821    445.57822    127382.57   -40611.857    2662.7934    -43274.65    80.078881   0.98045985 
   38700    215.98439     561.1082    127312.55   -40617.532    2687.2564   -43304.789     80.13049   0.98099902 
   38800    214.37312    400.55742    127277.75   -40648.403    2667.2092   -43315.613    80.413494   0.98126727 
   38900    212.80488    396.85484    127357.97    -40599.63    2647.6972   -43247.327    80.265448   0.98064917 
   39000    219.20932    507.20719    127428.64   -40649.531    2727.3806   -43376.912    80.508026   0.98010531 
   39100    215.42133    689.83302    127486.36   -40610.556    2680.2509   -43290.807    80.557403    0.9796616 
   39200    215.60149    492.04326     127510.8   -40655.785    2682.4925   -43338.278    80.804153   0.97947383 
   39300    213.30087    623.44782    127461.67   -40639.316    2653.8684   -43293.185    81.195675   0.97985139 
   39400    214.69315    658.89552    127444.86   -40601.745    2671.1909   -43272.936     81.43759   0.97998063 
   39500    216.25737    383.69525    127309.22    -40580.86    2690.6528   -43271.513    81.628921   0.98102471 
   39600    213.40749    487.41847    127189.13   -40614.003    2655.1949   -43269.198    81.877205     0.981951 
   39700    216.18763    462.46862    126966.19   -40552.533    2689.7851   -43242.318    81.788376   0.98367516 
   39800    210.33561    446.72937    126944.03   -40590.175    2616.9749   -43207.149    81.555772   0.98384693 
   39900    211.44247    423.60395     126694.8   -40623.861    2630.7463   -43254.607    81.980143   0.98578231 
   40000    205.52289    433.47303    126714.72   -40640.868    2557.0955   -43197.964    82.394441   0.98562732 
   40100    214.62968    496.15519    126833.84   -40529.862    2670.4013   -43200.263    82.726975   0.98470163 
   40200    216.75542    522.74568    126920.57   -40541.938    2696.8495   -43238.787    83.065198   0.98402876 
   40300    214.65841    557.50294    126882.37   -40520.287    2670.7587   -43191.046    83.378821   0.98432499 
   40400    217.88266    385.69006    126730.83   -40427.976    2710.8745   -43138.851    83.113396   0.98550204 
   40500    218.51692     556.0092    126800.52   -40446.379     2718.766   -43165.145    83.565871   0.98496039 
   40600    213.68618    378.82363    126779.42   -40492.062    2658.6623   -43150.724    83.913005   0.98512435 
   40700    218.85014    527.87916    126671.91   -40533.032    2722.9119   -43255.943    84.034862   0.98596041 
   40800    213.16553    649.34079    126600.83   -40584.272    2652.1845   -43236.456    84.487336   0.98651401 
   40900    212.60771    522.46125    126732.95   -40605.642    2645.2441   -43250.887    84.749288   0.98548556 
   41000    216.06529     297.8759    126575.88   -40523.321     2688.263   -43211.584    84.838964   0.98670844 
   41100    215.63805    398.75145     126511.6   -40498.323    2682.9473    -43181.27    85.394822   0.98720978 
   41200    216.89658    649.74209    126562.54   -40518.806    2698.6058   -43217.411    85.456763   0.98681247 
   41300    212.29882    521.87745     126617.2   -40670.739     2641.401    -43312.14    85.448296   0.98638645 
   41400    210.32242    441.35749    126584.91   -40617.294    2616.8107   -43234.104     85.50739    0.9866381 
   41500    212.39374    548.27612    126566.53   -40607.079    2642.5819   -43249.661    85.527446   0.98678134 
   41600    203.74733    331.04872    126638.38   -40574.533    2535.0042   -43109.537    85.757096   0.98622151 
   41700    215.10599     488.3823    126834.68   -40549.675    2676.3275   -43226.002    85.969388   0.98469512 
   41800    213.13092    547.69216    126840.35   -40551.734    2651.7538   -43203.487    86.413943   0.98465114 
   41900    214.95176    584.93329       126926   -40523.358    2674.4085   -43197.767    86.385468   0.98398663 
   42000    214.68218    395.40573    126907.73   -40519.867    2671.0544   -43190.922    86.540257   0.98412833 
   42100     213.3132    309.33252    126867.92   -40518.078    2654.0218     -43172.1    86.838408   0.98443716 
   42200    218.21235    688.03892    127045.47   -40484.688    2714.9765   -43199.664    86.644292   0.98306133 
   42300    215.40701     741.5947     127019.3   -40467.699    2680.0727   -43147.772    86.708362   0.98326391 
   42400     212.4194    529.43583    127144.21   -40496.867    2642.9012   -43139.768    87.135313    0.9822979 
   42500    214.28784    441.18716    127099.14   -40495.661    2666.1481   -43161.809    87.158372   0.98264623 
   42600    214.33732    508.27957    126931.34   -40492.636    2666.7638     -43159.4    87.281617   0.98394529 
   42700    214.24047    416.98496    126833.69   -40503.271    2665.5588    -43168.83    87.526325   0.98470278 
   42800    213.81229    614.56251    126577.78   -40451.162    2660.2314   -43111.394    87.437896   0.98669366 
   42900    214.65443    739.43095    126655.01   -40514.703    2670.7092   -43185.412    87.499041   0.98609196 
   43000    216.33122    535.59665    126711.74    -40540.58    2691.5717   -43232.152    87.583654   0.98565053 
   43100    214.31383     494.0035    126524.28   -40522.377    2666.4715   -43188.848    87.639598   0.98711086 
   43200    216.56203    739.76767    126661.49   -40489.019    2694.4434   -43183.462    87.885713   0.98604151 
   43300    217.18224    617.88114    126691.17   -40498.915      2702.16   -43201.075    88.398117   0.98581056 
   43400    217.80925    491.42596    126830.73   -40451.578    2709.9612   -43161.539    88.667965   0.98472577 
   43500    217.57311     564.1103    127069.05   -40454.821    2707.0232   -43161.844    88.966638   0.98287889 
   43600    222.60891     598.3912    126983.54    -40364.01    2769.6781   -43133.688    89.239154   0.98354077 
   43700    219.79302    521.89669     127148.4   -40396.793    2734.6431   -43131.436    89.932308   0.98226551 
   43800    220.30292    479.52086    127089.87   -40401.843    2740.9872   -43142.831    90.397009   0.98271794 
   43900    216.29305    422.71845    127186.59   -40448.203    2691.0968     -43139.3    90.958244   0.98197056 
   44000    213.28387    683.06933    127071.11    -40486.68    2653.6568   -43140.337    90.858124   0.98286297 
   44100    218.18944    609.67212    127349.22   -40514.418    2714.6915   -43229.109    91.262207   0.98071655 
   44200    214.43072    438.21041    127340.03   -40556.794    2667.9259    -43224.72    91.047111   0.98078734 
   44300    212.91402    384.56695     127243.5   -40570.186    2649.0552   -43219.242    90.855776    0.9815314 
   44400    212.48748     458.3727    127318.44   -40543.306    2643.7482   -43187.055    91.148299    0.9809537 
   44500     213.7411    598.73903    127184.82   -40578.159    2659.3456   -43237.505    91.358898   0.98198428 
   44600    213.57857    627.89818    127242.88   -40645.646    2657.3234   -43302.969    91.433303   0.98153617 
   44700    214.55602    413.73737    127354.13   -40628.504    2669.4848   -43297.989     91.54794   0.98067874 
   44800    216.00887    498.56749    127560.46    -40602.08    2687.5611   -43289.641    91.977587   0.97909253 
   44900    221.40651    601.86201    127589.81    -40562.87    2754.7179   -43317.588    91.870087   0.97886728 
   45000    216.03477    483.91183    127385.31   -40578.738    2687.8833   -43266.622    92.080019   0.98043873 
   45100    214.37657    676.17329    127464.79   -40518.813    2667.2521   -43186.065    92.407732   0.97982735 
   45200    211.23384    472.94592    127481.38   -40569.824    2628.1506   -43197.975    92.527041   0.97969984 
   45300      216.772    569.37907    127701.77   -40596.771    2697.0558   -43293.827    92.908237   0.97800912 
   45400    216.34899    384.08603    127548.73   -40565.357    2691.7927    -43257.15    93.093951   0.97918252 
   45500    216.26323    632.70052    127601.95   -40586.466    2690.7257   -43277.191    93.131596   0.97877416 
   45600    216.02489    530.22829    127478.21   -40574.893    2687.7603   -43262.653    93.289022   0.97972422 
   45700    215.19157    445.42843    127676.29   -40592.832    2677.3922   -43270.224    93.568432   0.97820427 
   45800    216.89597     570.5381    127828.75   -40549.285    2698.5982   -43247.883    93.695938   0.97703757 
   45900    218.48991    274.90107    127639.01   -40491.423    2718.4299   -43209.853    93.687232   0.97848997 
   46000    218.30079    566.11356    127579.46   -40478.833    2716.0768    -43194.91    93.842059   0.97894671 
   46100    222.36706    575.19723    127858.74   -40418.726     2766.669   -43185.395    94.093415   0.97680844 
   46200    221.55335    408.04994    127598.65   -40416.698    2756.5448   -43173.243    94.431527   0.97879948 
   46300    217.05639    513.28613    127559.89   -40435.677    2700.5942   -43136.272    94.721114   0.97909689 
   46400     224.8077    358.09864    127251.65   -40473.927    2797.0351   -43270.962     94.82793   0.98146856 
   46500    218.84036    666.36701    127119.21   -40488.726    2722.7901   -43211.516    94.823854    0.9824911 
   46600    215.59611    457.18025    127183.05   -40474.371    2682.4255   -43156.797    95.046532   0.98199791 
   46700      213.602    537.00091    127265.38   -40544.848    2657.6149   -43202.463    94.938505   0.98136266 
   46800    213.17226    538.53318    127215.81   -40573.827    2652.2682   -43226.095    95.068468   0.98174501 
   46900    212.80497      543.402    127174.98    -40489.47    2647.6984   -43137.168    94.951196   0.98206021 
   47000    220.63264    473.34615    127364.41   -40476.491    2745.0895   -43221.581    94.957462   0.98059964 
   47100    215.78403    543.40438    127630.71   -40454.038    2684.7636   -43138.802    95.244407   0.97855361 
   47200    216.64015    334.34573     127375.4   -40512.108    2695.4153   -43207.523    95.267413   0.98051499 
   47300    213.55935    584.56562    127300.05    -40554.97    2657.0843   -43212.054    95.585315    0.9810954 
   47400     214.3716    599.50307    127312.79   -40513.748    2667.1903   -43180.938    95.635874   0.98099723 
   47500    218.60492    540.63034    127233.57   -40458.402    2719.8608   -43178.263    95.757023   0.98160803 
   47600    221.52364    444.58834    127336.55   -40412.991    2756.1752   -43169.166    95.881286   0.98081418 
   47700    220.12604    743.73246     127291.9   -40448.771    2738.7865   -43187.557    96.289834   0.98115818 
   47800    219.74259    348.69489    127352.48   -40444.106    2734.0155   -43178.121    96.754477   0.98069145 
   47900    215.47141    491.76934    127307.94   -40529.912     2680.874   -43210.786    97.212875   0.98103454 
   48000    213.83651    437.50402    127332.25   -40547.135    2660.5328   -43207.668     97.29942   0.98084729 
   48100    212.62437    572.37094    127263.83   -40511.774    2645.4514   -43157.226    97.513078   0.98137461 
   48200    215.27843    551.16424    127234.16   -40524.058    2678.4729   -43202.531     97.82067   0.98160342 
   48300    218.64897    540.34839    127177.69   -40494.369    2720.4089   -43214.778    97.908796   0.98203928 
   48400     218.6359    390.77126    127078.35   -40431.956    2720.2462   -43152.203    97.818332   0.98280703 
   48500    216.46804    614.97675    127147.59   -40511.404     2693.274   -43204.678    98.148306    0.9822718 
   48600    214.18795    644.02341    127226.61   -40515.112    2664.9053   -43180.018    98.466459   0.98166171 
   48700    217.87696    485.78491    127159.74   -40474.136    2710.8036    -43184.94    98.434138   0.98217793 
   48800    212.80291    411.11564    126922.02   -40492.157    2647.6728   -43139.829    98.648843   0.98401755 
   48900    215.21707    766.33591    127161.28   -40487.786    2677.7096   -43165.496    98.671119   0.98216603 
   49000    215.46883    525.59214    127145.69   -40530.361    2680.8419   -43211.203     98.71329   0.98228646 
   49100    215.02554    386.33832    127098.12   -40544.536    2675.3265   -43219.863     98.83117    0.9826541 
   49200    214.01068    549.38013    126896.23   -40575.205    2662.6997   -43237.905    99.188958   0.98421751 
   49300    216.70207    487.82865    127082.21   -40522.536    2696.1858   -43218.722    99.305802   0.98277716 
   49400    214.31747    439.83644    127122.03   -40490.273    2666.5167    -43156.79    98.937138   0.98246932 
   49500    216.53322    475.80258    127089.26   -40495.777    2694.0849   -43189.862    99.488619   0.98272262 
   49600     213.9473    367.25576    126924.97   -40492.725    2661.9111   -43154.636    99.812523   0.98399461 
   49700    216.93074    576.11491    127038.16   -40519.565    2699.0308   -43218.595    100.02989   0.98311793 
   49800    212.06986    384.91336    126918.27   -40574.227    2638.5523   -43212.779    100.25414   0.98404659 
   49900    218.69487    424.48267    126760.43   -40468.331      2720.98   -43189.311    100.32389   0.98527191 
   50000     212.5479    393.97551    126777.55   -40505.589       2644.5   -43150.089    100.25941   0.98513884 
   50100    216.28289    732.40409    126552.77   -40515.189    2690.9704    -43206.16    100.04873   0.98688861 
   50200    217.27995     567.7939    126964.71   -40546.896    2703.3757   -43250.272    100.67835   0.98368664 
   50300     215.3073    674.64433     127102.4   -40506.229    2678.8321   -43185.061    100.95792   0.98262102 
   50400    216.12997    597.69624    126925.69    -40529.29    2689.0678   -43218.358    101.20704   0.98398907 
   50500    214.33863    608.65307    126846.43   -40548.165    2666.7801   -43214.945     101.6149   0.98460388 
   50600     214.4417    473.41215    126911.57    -40559.99    2668.0625   -43228.053    102.06681   0.98409856 
   50700    209.62601    678.92261    126913.15    -40559.89    2608.1461   -43168.036    102.18554   0.98408632 
   50800    212.56601    402.29298    127026.49   -40552.922    2644.7253   -43197.647    102.47047   0.98320821 
   50900    216.68407     662.1093    127100.83   -40481.797    2695.9618   -43177.759    102.86366   0.98263314 
   51000    214.71879    432.05588    126943.27   -40522.741      2671.51   -43194.251    103.13434    0.9838528 
   51100    219.30786    404.41447    126983.29     -40564.3    2728.6067   -43292.907    102.83903   0.98354276 
   51200    216.32592    641.24053     127082.5   -40553.274    2691.5057    -43244.78    103.07871   0.98277491 
   51300    210.02378    579.93884     127111.8   -40608.831    2613.0951   -43221.926     103.1201   0.98254839 
   51400    210.85909    475.25663    127169.28   -40605.848    2623.4879   -43229.336    103.44547   0.98210425 
   51500    212.44717    443.40192    127144.03   -40612.124    2643.2467   -43255.371    103.60466    0.9822993 
   51600    213.56454    497.31369    127337.56   -40558.399    2657.1489   -43215.548     103.5339   0.98080639 
   51700    216.94527    650.00534    127521.14   -40546.199    2699.2117   -43245.411    103.76377   0.97939441 
   51800    215.31964     474.4706    127751.31   -40588.032    2678.9856   -43267.018    104.16221   0.97762985 
   51900    216.71929    541.15787    127698.46   -40645.725       2696.4   -43342.125    104.12916   0.97803443 
   52000    211.63478    441.22329    127631.02   -40672.916     2633.139   -43306.055    104.20671   0.97855119 
   52100    207.78624    584.70962    127525.79   -40635.422    2585.2559   -43220.678    104.40224   0.97935873 
   52200    212.14849    675.95935     127559.4   -40658.697    2639.5305   -43298.228    104.66782   0.97910064 
   52300    214.45504    512.17825    127832.49   -40656.472    2668.2284   -43324.701    105.08385   0.97700897 
   52400    218.08099    445.22317    127937.51   -40618.371    2713.3421   -43331.713    105.28616   0.97620696 
   52500    217.83314    513.44615    127767.16   -40614.105    2710.2584   -43324.363    105.43233   0.97750856 
   52600    214.44479    396.68541     127700.7   -40621.608    2668.1008   -43289.709     105.2777    0.9780173 
   52700     209.6459    544.07747    127562.49   -40630.843    2608.3936   -43239.237    105.26312   0.97907694 
   52800    218.94675    514.76828    127583.45   -40573.434    2724.1138   -43297.548     105.6994    0.9789161 
   52900    215.76361    489.97833    127381.92   -40579.163    2684.5095   -43263.673    105.89139   0.98046484 
   53000    213.57614    474.83012    127150.18   -40554.387    2657.2932    -43211.68    106.05116   0.98225181 
   53100     213.2648    440.42926    127022.92   -40588.129    2653.4196   -43241.549    106.32645    0.9832359 
   53200     210.4372    507.59447    126968.06   -40571.255    2618.2389   -43189.494     106.4286   0.98366068 
   53300    218.79496    773.44635    127126.78   -40574.195    2722.2253   -43296.421    106.68114   0.98243258 
   53400    213.76398    536.08415    127279.37   -40645.811    2659.6303   -43305.441    106.81913   0.98125481 
   53500    211.44193     455.7759     127338.6   -40651.949    2630.7395   -43282.688    106.95098   0.98079837 
   53600    212.84716    536.42686    127192.47   -40635.672    2648.2234   -43283.895    107.17537    0.9819252 
   53700    211.29489    476.20197    127078.89   -40668.419    2628.9101   -43297.329    107.70341   0.98280281 
   53800    212.91555    526.56634    127193.69   -40572.229    2649.0742   -43221.303    108.03953    0.9819158 
   53900    217.10369    485.31592    127075.14   -40632.933    2701.1826   -43334.116    108.22216   0.98283182 
   54000    217.07892    520.04456    127311.77   -40606.287    2700.8744   -43307.161    108.64537   0.98100507 
   54100    214.12843    376.91987     127228.6   -40623.887    2664.1647   -43288.052    108.63033   0.98164639 
   54200    215.11913    602.13795    127299.64   -40610.823    2676.4909   -43287.314    108.63704   0.98109857 
   54300    213.68587    554.42487    127264.48    -40603.09    2658.6585   -43261.749    108.82479   0.98136957 
   54400    211.48773     373.4044    127223.29   -40641.006    2631.3095   -43272.315    109.25246   0.98168734 
   54500    217.60102    474.22074    127220.76   -40625.978    2707.3703   -43333.349    109.28943   0.98170687 
   54600    213.00986    471.96854    127120.87   -40534.113    2650.2476    -43184.36    109.15416   0.98247826 
   54700     216.9809    452.51033    127174.68   -40554.455    2699.6549    -43254.11      109.508   0.98206258 
   54800    212.95856    439.94248    127138.97   -40614.824    2649.6094   -43264.433    109.55091   0.98233836 
   54900    212.34635    531.86102    126959.54    -40651.41    2641.9923   -43293.402    109.81218   0.98372672 
   55000    210.93014    525.50561     127219.6   -40717.617    2624.3719   -43341.989    110.43919   0.98171581 
   55100    214.34094    346.86721    127161.94   -40698.736    2666.8087   -43365.544    110.10954   0.98216092 
   55200    212.55373    591.25517    127217.32   -40707.272    2644.5725   -43351.845    110.09694   0.98173342 
   55300    212.92501    467.40133    127454.37   -40652.897    2649.1919   -43302.089     110.4064   0.97990749 
   55400    213.32507    377.28444    127410.48   -40623.553    2654.1694   -43277.722    110.77973   0.98024503 
   55500    219.52503    319.36936    127379.66   -40559.314    2731.3087   -43290.623    110.95195    0.9804822 
   55600    212.13498    659.53702    127470.87   -40596.579    2639.3625   -43235.942    111.49932   0.97978068 
   55700    214.31942    603.61861    127503.01   -40595.365     2666.541   -43261.906    111.59995   0.97953363 
   55800     214.4061      493.338    127370.82   -40584.207    2667.6195   -43251.827    111.73485   0.98055024 
   55900     214.7342    484.85757    127334.42   -40540.773    2671.7017   -43212.475    111.80553    0.9808306 
   56000    216.26213    420.19184    127234.85   -40533.435    2690.7121   -43224.147    111.94704   0.98159816 
   56100    213.88203    555.38428    127060.14   -40508.473    2661.0991   -43169.572    112.15673   0.98294784 
   56200    213.75926    679.03071    127324.61    -40499.41    2659.5716   -43158.982    112.65887   0.98090616 
   56300    221.79229    313.71548    127236.67   -40552.431    2759.5178   -43311.949    112.51572   0.98158408 
   56400    212.59234    469.33852    127412.88   -40535.818    2645.0529   -43180.871    112.54506   0.98022659 
   56500    213.02261    497.20479    127133.09   -40614.016    2650.4062   -43264.422    112.61724   0.98238381 
   56600    212.97682     512.1896    127026.67    -40619.94    2649.8366   -43269.777    112.66343   0.98320685 
   56700    213.22762     551.8784    126964.84   -40659.983     2652.957    -43312.94    112.87849   0.98368568 
   56800    215.93853    578.33964    127054.99   -40596.102    2686.6858   -43282.787    113.31188   0.98298769 
   56900    212.52484    374.79932    127165.24   -40572.423     2644.213   -43216.636    113.24383   0.98213542 
   57000    217.61953    558.19329    127088.15   -40519.546    2707.6007   -43227.147    113.31637   0.98273123 
   57100    212.15175    516.40257    127023.68   -40574.905    2639.5711   -43214.476    113.58027   0.98323001 
   57200    215.54285    429.43354    127122.77   -40618.718    2681.7628   -43300.481    113.35924   0.98246356 
   57300    210.86249     460.6729    126889.75   -40677.633    2623.5302   -43301.163    113.48533   0.98426778 
   57400    210.99243     522.2632    127066.57   -40682.319    2625.1469   -43307.466    113.95528   0.98289811 
   57500    210.58675    500.58285    127080.35   -40732.431    2620.0995    -43352.53    113.84351   0.98279151 
   57600    214.05962    578.55531    127108.81   -40693.848    2663.3087   -43357.157    114.00437   0.98257147 
   57700    211.17214    335.63256    127124.54   -40741.082    2627.3829   -43368.465    114.51655   0.98244989 
   57800    212.00658    509.71825    127123.97   -40766.185    2637.7649   -43403.949    114.62625   0.98245426 
   57900    211.08782    442.36792    127086.45   -40750.771    2626.3338   -43377.105    114.87433   0.98274436 
   58000    209.61719    397.01609    126916.11   -40743.203    2608.0363    -43351.24    115.05481   0.98406334 
   58100    209.86995    509.73963    126950.66   -40664.219    2611.1812     -43275.4     114.8983   0.98379552 
   58200     217.2815    679.27877    127033.09   -40616.051    2703.3949   -43319.445    115.36695   0.98315712 
   58300    216.72116     451.8791    127315.29   -40550.322    2696.4232   -43246.745    115.53849   0.98097792 
   58400    216.36122    517.47226    127044.95   -40544.189     2691.945   -43236.134    115.57763    0.9830654 
   58500    220.44595    451.94514    126972.06   -40550.431    2742.7667   -43293.197    116.18675   0.98362973 
   58600    215.77674    621.10474     126995.6   -40521.909    2684.6729   -43206.582    116.58167   0.98344737 
   58700    217.76082    633.42129    126988.64   -40521.808    2709.3586   -43231.166    116.90481   0.98350129 
   58800    214.88708    376.18462    126932.09   -40577.137    2673.6038    -43250.74    117.39511   0.98393949 
   58900    217.34956    563.92895    126964.44   -40623.105    2704.2418   -43327.347    117.47661   0.98368875 
   59000    214.64473    412.93369    127017.25   -40612.428    2670.5885   -43283.016    117.63265   0.98327976 
   59100    211.21451    443.57693    127005.95   -40616.808      2627.91   -43244.718    117.63911   0.98336724 
   59200    216.01984    524.23686    127017.56   -40630.171    2687.6974   -43317.868    117.96471   0.98327733 
   59300     213.5763    456.55605    127025.27   -40623.514    2657.2952    -43280.81    118.07706   0.98321769 
   59400    211.89814    532.49789    127030.32   -40677.254    2636.4157    -43313.67    117.93387    0.9831786 
   59500    210.84053    410.99871    126823.91    -40635.15     2623.257   -43258.407    118.22288   0.98477873 
   59600    218.99329    364.35793    126885.09   -40623.453    2724.6929   -43348.145    118.53228   0.98430396 
   59700    211.21095    463.92805    127076.15   -40645.034    2627.8658     -43272.9    118.69692   0.98282403 
   59800    213.86548    441.63283    126768.83   -40638.751    2660.8932   -43299.644    118.44034   0.98520663 
   59900    217.41717     634.6858    126865.74   -40615.826    2705.0829   -43320.909     118.5098   0.98445404 
   60000    214.08635    609.29257    126881.19   -40651.176    2663.6413   -43314.817    118.93314   0.98433414 
   60100    215.99291    579.05361    126816.47   -40602.808    2687.3624   -43290.171    119.08541    0.9848365 
   60200    216.17674    613.52947    127174.85   -40572.456    2689.6496   -43262.106    119.47221   0.98206126 
   60300    214.39104    449.42712    127101.44   -40528.717    2667.4322   -43196.149    119.32826   0.98262846 
   60400    216.96842    611.18865    127233.79   -40487.767    2699.4996   -43187.267    119.31991   0.98160633 
   60500    213.01789    504.27459    127155.41   -40497.985    2650.3475   -43148.333    119.52672   0.98221136 
   60600     217.1021    365.49107    127115.89   -40544.835    2701.1629   -43245.997    119.77947   0.98251678 
   60700    214.46145    549.74696    126876.67   -40560.956    2668.3082   -43229.265    119.71398   0.98436922 
   60800    215.95077    501.57053    126706.59    -40521.49    2686.8381   -43208.328    119.54991   0.98569054 
   60900    215.35236    571.61592    126809.34   -40506.383    2679.3928   -43185.776    119.95309    0.9848919 
   61000    214.52691    649.91114    126862.05   -40539.553    2669.1227   -43208.676    119.79569   0.98448272 
   61100    212.43349    631.71949    126975.84   -40557.386    2643.0765   -43200.462    120.15794    0.9836004 
   61200    214.91777    491.72638    127021.03    -40560.74    2673.9856   -43234.726    120.32834    0.9832505 
   61300    214.11327    484.97455    127082.32   -40541.826    2663.9761   -43205.802    120.35444   0.98277632 
   61400    214.06899    538.17891    126972.06   -40573.967    2663.4253   -43237.392    120.64765   0.98362971 
   61500    211.98807    377.74012    126938.37   -40582.556    2637.5346   -43220.091    121.09507   0.98389077 
   61600    216.97108     480.3162    126997.76   -40549.025    2699.5327   -43248.557    121.19601   0.98343063 
   61700    213.52207    441.83613    126985.19   -40616.609    2656.6205   -43273.229    121.33165   0.98352802 
   61800    207.67205    505.90416    126878.66   -40681.813    2583.8351   -43265.648    121.45616   0.98435378 
   61900    205.73607    481.48305    126746.17   -40611.003    2559.7478   -43170.751    121.81814   0.98538276 
   62000    213.36163    489.62856    126498.73   -40554.764    2654.6243   -43209.388    121.72455   0.98731021 
   62100    209.06537    509.81278    126596.35   -40569.522    2601.1707   -43170.693    122.04845   0.98654893 
   62200    217.78241    637.65281    126645.75   -40523.212    2709.6272   -43232.839    122.56144   0.98616408 
   62300    214.36718    336.97032    126473.64   -40552.266    2667.1353   -43219.401    122.68453   0.98750609 
   62400      214.456    500.74169    126539.14   -40496.656    2668.2404   -43164.896    122.33385   0.98699492 
   62500    213.44313    708.16157    126595.19   -40506.243    2655.6383   -43161.881    122.62961   0.98655792 
   62600    214.27515    416.54296    126578.42   -40513.816    2665.9903   -43179.806    122.63237   0.98668865 
   62700    213.88853     314.0588    126624.66   -40554.286    2661.1799   -43215.466    122.61967   0.98632831 
   62800     216.8505     352.4991    126626.41   -40538.801    2698.0325   -43236.834    122.62247   0.98631468 
   62900    217.70676    359.18348    126827.38   -40505.834     2708.686    -43214.52    122.84986   0.98475181 
   63000    218.63457    597.44033       126898   -40467.692    2720.2297   -43187.922    122.87976   0.98420381 
   63100    216.77753    653.20773    126862.41   -40463.003    2697.1246   -43160.127    123.55319   0.98447988 
   63200    217.00326    379.23428    126794.17   -40494.478    2699.9331   -43194.411     123.6026   0.98500975 
   63300    214.81974    473.41974     126637.3    -40531.69    2672.7659   -43204.456    124.05845   0.98622986 
   63400    218.65071    444.70791    126703.15   -40461.368    2720.4305   -43181.799    123.97666   0.98571737 
   63500    215.71871     458.8348    126728.01   -40565.049    2683.9508       -43249    124.30846   0.98552395 
   63600    217.02857    639.82094    126737.95   -40561.735     2700.248   -43261.983    124.56507   0.98544666 
   63700    211.66303     567.8864    126806.63   -40575.836    2633.4904   -43209.326    124.67429   0.98491297 
   63800    210.67338    474.20777     126716.6   -40676.791    2621.1774   -43297.968     124.8608   0.98561274 
   63900    211.58688    532.20807    126918.22   -40672.013    2632.5431   -43304.556    124.97406   0.98404697 
   64000    212.95043    577.18923     126848.1   -40658.873    2649.5082   -43308.381    125.03815   0.98459094 
   64100    214.61726     562.7452    127006.77   -40587.755    2670.2467   -43258.002    125.29852   0.98336087 
   64200    215.16184    438.30575    126964.56   -40576.215    2677.0223   -43253.238    124.94929   0.98368781 
   64300    218.60285     622.5285    127043.32   -40488.301    2719.8351   -43208.136    125.04258   0.98307796 
   64400    214.96749    464.01441    127013.44   -40503.412    2674.6043   -43178.016      125.766   0.98330926 
   64500     218.5451    595.27463    127145.56   -40488.537    2719.1165   -43207.654     126.3432   0.98228751 
   64600    216.95736    588.56049    127191.62   -40546.908     2699.362    -43246.27    126.37063   0.98193173 
   64700    216.74188    439.77018    127054.14   -40565.306    2696.6811   -43261.987    126.38102   0.98299426 
   64800    216.14393     272.7697    126984.32   -40585.657    2689.2414   -43274.898    126.61646   0.98353478 
   64900    218.09456    502.04062    126997.45   -40573.623     2713.511   -43287.134    126.77935   0.98343305 
   65000    220.13907    626.26805    127131.97   -40540.495    2738.9485   -43279.444    127.01659   0.98239248 
   65100    212.62604    604.14618    126993.92   -40570.814    2645.4721   -43216.286    127.31529   0.98346043 
   65200    213.72504     488.9255    127179.33    -40555.53    2659.1458   -43214.676    127.83502   0.98202662 
   65300    216.60871    592.59342     127245.8   -40563.506    2695.0241   -43258.531    127.91333   0.98151365 
   65400    219.92624    611.60194     127352.9    -40514.68    2736.3005   -43250.981    128.01772   0.98068824 
   65500    212.64819    231.77041    127436.97   -40587.607    2645.7478   -43233.355    128.26854   0.98004125 
   65600    215.94002    494.96874    127572.42   -40631.321    2686.7044   -43318.025     128.5947   0.97900075 
   65700    214.47052    633.99486    127645.36   -40686.832     2668.421   -43355.253    128.82536    0.9784413 
   65800    210.87403    504.57489    127748.36   -40691.629    2623.6738   -43315.303    129.37984   0.97765237 
   65900    213.00376    460.97168    127656.64    -40665.69    2650.1717   -43315.861    129.29003   0.97835487 
   66000    218.85872    552.50286    127974.91   -40583.891    2723.0186   -43306.909    129.40732   0.97592166 
   66100    216.10055    260.08044       127737   -40540.219    2688.7017   -43228.921    129.37586   0.97773932 
   66200    219.97166    568.42397    127741.35    -40522.22    2736.8657   -43259.086    129.49306   0.97770603 
   66300    219.37427    583.18232     127493.6   -40556.348     2729.433   -43285.781    129.48363   0.97960598 
   66400    215.32845    550.16087    127470.71    -40608.72    2679.0954   -43287.815    129.57121   0.97978187 
   66500    215.72368    558.02234    127564.72   -40632.916    2684.0127   -43316.929    129.63203    0.9790598 
   66600    213.06937    581.78009    127551.61   -40654.313     2650.988   -43305.301    129.77632   0.97916046 
   66700    214.75035    536.80307    127413.32   -40681.884    2671.9026   -43353.786    129.43683    0.9802232 
   66800    213.95272     595.4257    127595.41   -40616.658    2661.9786   -43278.637    129.60918   0.97882433 
[...]
   84600    217.22644    553.39365    127605.24   -40716.501    2702.7099   -43419.211    156.59791   0.97874894 
   84700    216.46897    542.92742    127535.84   -40737.915    2693.2856     -43431.2    157.01066   0.97928151 
   84800    213.02774    486.38643    127527.16   -40719.841    2650.4701   -43370.311    156.90798   0.97934818 
   84900    214.27759    631.62466    127653.83   -40700.712    2666.0206   -43366.732     157.2795   0.97837635 
   85000    215.81377    605.00423    127645.36   -40655.253    2685.1336   -43340.387    157.36841   0.97844126 
   85100    214.01863    475.00159     127770.9   -40648.436    2662.7986   -43311.235    157.45362   0.97747996 
   85200    213.52743    442.21309    127741.59   -40651.483    2656.6872   -43308.171    157.46595   0.97770422 
   85300    215.20129    434.25854    127726.72   -40695.796    2677.5132   -43373.309    157.59918   0.97781807 
   85400    215.59465    372.13389    127608.81   -40685.865    2682.4074   -43368.272    157.94631   0.97872153 
   85500    211.48788    604.98629    127459.99   -40656.139    2631.3112   -43287.451    158.09718   0.97986427 
   85600    214.46611    368.57186    127581.36   -40633.999    2668.3662   -43302.366     158.5944   0.97893215 
   85700    213.68642    509.89055    127455.06   -40673.331    2658.6654   -43331.997    158.93295   0.97990219 
   85800    213.02524    299.80296    127410.95   -40670.142     2650.439   -43320.581    158.94299   0.98024139 
   85900    217.25155    588.42146    127557.01   -40572.958    2703.0223   -43275.981    158.59007   0.97911896 
   86000    217.08858    444.01028    127446.63   -40651.051    2700.9946   -43352.046    158.75764   0.97996698 
   86100    214.95991    474.01696    127483.79   -40636.755    2674.5099   -43311.265    158.83357   0.97968135 
   86200     211.7309    405.30399    127464.16   -40602.803    2634.3349   -43237.138    159.22229   0.97983221 
   86300    214.93842    500.99462     127346.4   -40633.289    2674.2426   -43307.531    159.30655   0.98073828 
   86400    215.20315     440.9487    127333.12   -40647.896    2677.5363   -43325.432    159.54872   0.98084054 
   86500    213.51646    577.40565    127335.92   -40638.004    2656.5507   -43294.554    159.83391   0.98081898 
   86600    216.12545    465.64659    127315.12   -40581.626    2689.0115   -43270.637    159.99823   0.98097921 
   86700    220.51539    606.65755    127523.16   -40576.609    2743.6307    -43320.24    160.32387   0.97937889 
   86800    215.97534    669.65236    127795.85   -40651.103    2687.1438   -43338.247    160.59177   0.97728908 
   86900    215.30586    446.28652    127772.07   -40610.545    2678.8143   -43289.359    160.89835   0.97747098 
   87000    215.83066    554.61303    127736.64   -40612.574    2685.3438   -43297.918    160.69876   0.97774211 
   87100    210.62568    565.34218    127803.55   -40645.616    2620.5839     -43266.2    161.01025    0.9772302 
   87200    217.02933    594.61974    127786.33   -40631.924    2700.2575   -43332.181    160.62859   0.97736191 
   87300    211.62393    537.88651    127752.65   -40634.444    2633.0041   -43267.448    160.92884   0.97761954 
   87400    214.77886    513.29257    127738.52   -40640.981    2672.2574   -43313.238    160.95873   0.97772771 
   87500    214.62611    630.39905    127678.19   -40653.097    2670.3568   -43323.454    161.28171   0.97818974 
   87600    211.51311    461.84625    127868.97   -40660.768    2631.6253   -43292.393    161.46518   0.97673024 
   87700    213.81225    529.60716    127613.44    -40678.44    2660.2308   -43338.671    161.50705   0.97868604 
   87800    216.02533    489.98763    127679.84   -40659.309    2687.7658   -43347.075    161.74107   0.97817704 
   87900    212.96072    357.61549    127751.88   -40673.367    2649.6362   -43323.003    162.16882   0.97762546 
   88000    212.33204    537.22023    127964.08   -40703.656    2641.8143   -43345.471    162.65326   0.97600427 
   88100    212.53923    576.16015    128011.42   -40650.472    2644.3921   -43294.864    162.86302   0.97564336 
   88200    219.90118    407.51173    127847.79   -40628.891    2735.9888    -43364.88    162.51953    0.9768921 
   88300    213.01064    605.51487    127816.32   -40656.208    2650.2573   -43306.466    162.60282   0.97713259 
   88400    212.76641    491.88194    127670.48    -40751.62    2647.2186   -43398.839    162.75923    0.9782488 
   88500    215.43497    675.41315    127680.84   -40647.595    2680.4206   -43328.016    163.11674   0.97816937 
   88600    216.18523    350.53666    127617.21   -40609.008    2689.7552   -43298.763    163.16639   0.97865709 
   88700    216.77594    452.44224    127486.95   -40591.829    2697.1048   -43288.933    163.01601   0.97965703 
   88800    215.50608    584.92373    127582.03   -40534.309    2681.3054   -43215.615    163.31663   0.97892698 
   88900    216.51906    521.15355    127600.11   -40583.344    2693.9087   -43277.252    163.73975    0.9787883 
   89000    217.55881    456.64123    127522.37   -40563.486    2706.8452   -43270.331    163.83639   0.97938498 
   89100    216.13723    502.54031    127466.47    -40661.86    2689.1581   -43351.018    164.27539   0.97981447 
   89200    208.25327    450.44939    127534.74   -40684.379    2591.0666   -43275.445    164.48251   0.97928994 
   89300    215.73423    540.33549    127691.82    -40695.19     2684.144   -43379.334    164.55768   0.97808526 
   89400    213.79004    644.90536    127629.92   -40727.715    2659.9546    -43387.67    164.52913   0.97855968 
   89500    210.82304    493.51378    127489.86   -40763.981    2623.0394    -43387.02    164.36018   0.97963473 
   89600    211.09154     466.3414    127536.62    -40809.35    2626.3801    -43435.73     164.4057    0.9792755 
   89700     212.6912     550.2069    127561.15   -40780.731    2646.2829   -43427.014    164.67023   0.97908718 
   89800     211.0464    568.62333    127543.29   -40749.606    2625.8185   -43375.424    164.43413    0.9792243 
   89900    212.43766    590.11103    127663.36   -40812.541    2643.1284   -43455.669    164.97139   0.97830331 
   90000    213.22127    553.86284    127905.89    -40723.79     2652.878   -43376.668    165.33451   0.97644829 
   90100    213.90446    567.12675    128090.29   -40728.427    2661.3782   -43389.806    165.70354   0.97504259 
   90200    211.29611    493.71703    128026.67   -40772.658    2628.9253   -43401.583    166.54292   0.97552712 
   90300    215.01594    492.87418    128016.55   -40780.536    2675.2071   -43455.743    166.64721   0.97560427 
   90400    218.11278    394.85807    128110.71   -40767.731    2713.7376   -43481.469    166.97913   0.97488721 
   90500    212.56976     570.5996    127918.09   -40754.551    2644.7719   -43399.323    166.37926   0.97635521 
   90600    220.83019    563.86671    127958.15   -40668.964    2747.5473   -43416.512    166.30792   0.97604954 
   90700    219.93829    711.86484    127869.53   -40687.361    2736.4505   -43423.811    166.34493   0.97672599 
   90800    218.30084    692.58524    128072.79    -40718.86    2716.0775   -43434.937    166.70527   0.97517582 
   90900    208.47547     474.9354    128202.21   -40803.445    2593.8312   -43397.276    166.91556   0.97419142 
   91000    212.83468    563.35609    128267.01   -40816.436     2648.068   -43464.504    167.32367   0.97369927 
   91100    210.53064    572.04501     128282.5   -40815.325    2619.4015   -43434.726    167.76977   0.97358164 
   91200    214.68402    519.43014    128417.85   -40789.136    2671.0774   -43460.213    167.93286   0.97255551 
   91300    212.48655    304.32231    128151.76   -40697.596    2643.7366   -43341.333    168.24372   0.97457489 
   91400    220.14384    410.12314     128201.1   -40673.508    2739.0079   -43412.516    168.40934   0.97419987 
   91500    218.68714     610.3467    128116.34   -40685.338    2720.8838   -43406.222    168.10065   0.97484434 
   91600    215.02007    340.84622    128073.97    -40720.17    2675.2585   -43395.429     168.2349   0.97516689 
   91700     214.4211    609.14414    128092.99    -40798.52    2667.8062   -43466.327    168.36495   0.97502205 
   91800     214.2075    548.20762    128249.91    -40767.49    2665.1485   -43432.638    168.32782   0.97382905 
   91900    218.57077    379.26116    128410.16   -40770.761    2719.4359   -43490.197    168.78568   0.97261377 
   92000    215.06068    387.82279    128336.97   -40789.686    2675.7637   -43465.449     169.0523   0.97316849 
   92100    214.63128    583.23993    128298.52   -40845.314    2670.4211   -43515.736    169.51838   0.97346014 
   92200    224.02236    490.47505    128208.41   -40792.874     2787.264   -43580.138    169.44627    0.9741443 
   92300    218.94007    589.60078    128181.47   -40734.109    2724.0307    -43458.14    169.36648   0.97434904 
   92400    216.18918    432.40879    128125.39   -40736.238    2689.8044   -43426.043    169.76581   0.97477551 
   92500    213.77633    395.10642    128083.41   -40781.912    2659.7839   -43441.696    169.90305   0.97509501 
   92600    219.35235    575.77923    127893.35   -40750.434    2729.1603   -43479.595    169.91045   0.97654408 
   92700    217.02791    310.65735    127993.26   -40743.063    2700.2399   -43443.303    170.17169   0.97578181 
   92800      215.175    527.20489    127911.31   -40791.477     2677.186   -43468.663    170.23279   0.97640696 
   92900    218.01236    452.66593    128090.64   -40756.433    2712.4882   -43468.922    170.78183   0.97503993 
   93000    211.98522    440.82865    128054.82   -40788.616    2637.4991   -43426.116    170.55912   0.97531269 
   93100    216.10242    442.07376     128170.7   -40711.873    2688.7249   -43400.598    170.82875   0.97443094 
   93200    218.76716    539.29499    128188.75   -40729.611    2721.8794   -43451.491    170.93954   0.97429368 
   93300     217.2139    644.78642    128136.39   -40732.911    2702.5538   -43435.465    171.10133   0.97469181 
   93400    213.49946    501.64455    128131.19   -40760.982    2656.3392   -43417.321    171.45473   0.97473136 
   93500    214.09827    488.64417     128545.9   -40805.758    2663.7895   -43469.547    172.10845   0.97158675 
   93600    207.18588    565.07194    128241.92   -40865.836    2577.7862   -43443.622     172.1599   0.97388972 
   93700     213.7585    660.94229    128367.78   -40818.548    2659.5621    -43478.11    171.85092   0.97293485 
   93800     216.3148    501.46289    128303.86    -40797.55    2691.3673   -43488.918    171.52018   0.97341962 
   93900    215.23132      529.515    128264.09   -40775.909    2677.8867   -43453.796    171.61164   0.97372139 
   94000    215.24376    419.32656    128168.55   -40794.419    2678.0415   -43472.461    171.90377   0.97444729 
   94100     213.3758    446.77655     128173.9   -40810.346    2654.8007   -43465.146      172.262   0.97440658 
   94200    213.31926    448.84749    128296.53   -40809.685    2654.0971   -43463.782    172.36796   0.97347521 
   94300    215.17256    560.43279     128187.8   -40772.494    2677.1558    -43449.65    172.15542   0.97430089 
   94400    216.65215    353.77786    128135.14   -40764.669    2695.5647   -43460.234    171.98434   0.97470133 
   94500    216.12276    301.44781    127998.83   -40692.112     2688.978    -43381.09    172.37641    0.9757393 
   94600    215.91756    475.03731    127858.01   -40726.661     2686.425   -43413.086    172.69687   0.97681399 
   94700    213.05662    577.17969    127776.22   -40745.366    2650.8294   -43396.196    173.20157   0.97743922 
   94800    213.21378      605.065    127915.41    -40735.35    2652.7847   -43388.135    173.22282   0.97637562 
   94900    213.75738    491.57995    127943.59   -40695.922    2659.5482    -43355.47    173.40588   0.97616059 
   95000    216.08208    518.45118    128027.44   -40683.936    2688.4719   -43372.408    173.76524   0.97552127 
   95100    218.97015    351.59615    127928.49   -40682.628    2724.4049   -43407.033    173.78679    0.9762758 
   95200    213.26227    532.03145    128062.03   -40703.781    2653.3881   -43357.169    174.05976   0.97525776 
   95300    220.78502    394.33395    128124.35   -40599.675    2746.9854   -43346.661     174.3886   0.97478341 
   95400    219.32978    441.30322    128226.85   -40665.831    2728.8794   -43394.711    174.49154   0.97400417 
   95500    212.62166    573.48877    128191.22   -40675.191    2645.4177   -43320.609    174.57541   0.97427489 
   95600    217.76218    555.59137    128323.19    -40674.03    2709.3755   -43383.406    174.77152   0.97327298 
   95700     215.5313    452.20098    128075.77   -40743.814    2681.6192   -43425.433    174.54466   0.97515317 
   95800    211.58126    512.76855    128003.99   -40802.368    2632.4732   -43434.841    174.67033   0.97569998 
   95900    218.15065    482.54526    128059.72   -40757.126    2714.2089   -43471.335    174.90089   0.97527535 
   96000    212.09478    420.50927    128023.92   -40816.586    2638.8623   -43455.449    175.04619   0.97554812 
   96100    213.70918    503.16463    128205.99   -40762.616    2658.9485   -43421.564     175.4989   0.97416268 
   96200    213.17125    559.62046    128364.68    -40797.65    2652.2556   -43449.906    175.46461   0.97295838 
   96300    216.95966    525.14632    128464.15   -40751.354    2699.3906   -43450.744     175.5706   0.97220502 
   96400    217.22119    413.62938    128424.98   -40746.308    2702.6446   -43448.953    175.17002   0.97250155 
   96500    213.75607    393.33412    128177.18   -40794.603    2659.5318   -43454.135    175.09574   0.97438163 
   96600    212.19193    591.69534    128185.72   -40773.398    2640.0711   -43413.469    175.71309    0.9743167 
   96700    212.61028    488.04607    128348.31   -40839.722    2645.2761   -43484.999    176.17559   0.97308249 
   96800     210.0689    553.02652    128330.07   -40884.366    2613.6564   -43498.022    176.23468   0.97322076 
   96900    209.89295    473.46009    128552.37   -40826.876    2611.4673   -43438.343    176.41202   0.97153785 
   97000    213.03162    612.49723    128728.78   -40844.286    2650.5184   -43494.804    176.82891   0.97020646 
   97100    216.04044    555.73963    128855.44   -40837.186    2687.9538   -43525.139    176.78882   0.96925279 
   97200    210.30706      558.721    128717.74   -40847.363    2616.6197   -43463.983    177.19554   0.97028964 
   97300    213.98763    528.78314    128678.34   -40853.739    2662.4129   -43516.152    177.27431   0.97058676 
   97400    208.74326    422.77456    128781.67   -40867.656     2597.163   -43464.819    177.87935   0.96980798 
   97500    216.89869    633.11501    128983.69   -40783.899    2698.6321   -43482.531    178.23688   0.96828903 
   97600    212.42761    375.91957     128902.7   -40842.173    2643.0034   -43485.177    177.87893   0.96889742 
   97700    216.31872    423.60851    128888.51   -40768.948    2691.4162   -43460.364    178.23363   0.96900405 
   97800    217.19727    570.25047    128727.34   -40757.389     2702.347   -43459.736    177.96176   0.97021732 
   97900    216.10704    353.11171    128644.06    -40723.24    2688.7825   -43412.022    178.14939   0.97084536 
   98000    217.42806    566.11424    128679.69   -40745.182    2705.2185     -43450.4    178.20797   0.97057657 
   98100     210.3668    360.28598    128492.86   -40816.442     2617.363   -43433.805    177.87006   0.97198782 
   98200    213.32494    470.89257     128331.3   -40801.672    2654.1679    -43455.84    177.90667   0.97321145 
   98300    215.27497    485.79629    128165.12   -40828.681    2678.4299   -43507.111    178.11961   0.97447332 
   98400    214.49151    531.91236    128424.36   -40837.634    2668.6822   -43506.316    178.61268   0.97250621 
   98500    212.07611    396.04824    128401.97   -40836.246      2638.63   -43474.876    178.70573   0.97267582 
   98600    212.50521    558.98781    128332.92   -40858.162    2643.9688   -43502.131    178.83485   0.97319915 
   98700    210.60238    467.38459    128495.63   -40899.881     2620.294   -43520.175    179.01448   0.97196682 
   98800    209.74542    552.49062    128570.22     -40871.5    2609.6318   -43481.131    179.24544   0.97140292 
   98900    214.01334     355.4524    128504.46   -40886.297    2662.7328    -43549.03    179.27444   0.97190008 
   99000    212.54917    438.49632    128469.93   -40929.024    2644.5158    -43573.54    179.69951   0.97216127 
   99100    212.09024    388.43703    128338.48   -40847.854    2638.8059   -43486.659    179.55045   0.97315699 
   99200    213.52985    313.05037    128346.49   -40832.914    2656.7173   -43489.632    179.56174   0.97309625 
   99300    215.83332    487.25625    128360.33   -40786.899    2685.3768   -43472.276    179.16892   0.97299135 
   99400    216.77031    453.97524    128174.87   -40771.249    2697.0347   -43468.284    179.06753   0.97439922 
   99500     218.9048    436.85075    128023.15   -40655.221    2723.5919   -43378.813    179.70895   0.97555398 
   99600    220.64812    448.88299    128078.98   -40664.318    2745.2821     -43409.6    179.52831   0.97512873 
   99700    217.17137    513.05478    128163.06   -40659.293    2702.0247   -43361.317    179.67868   0.97448899 
   99800    215.17361    503.33909    128119.58   -40684.723    2677.1688   -43361.892    179.59167   0.97481967 
   99900     214.5528    395.79135    128211.36   -40758.445    2669.4447    -43427.89    179.81512   0.97412185 
  100000    213.73165    589.92183    128468.84   -40768.583     2659.228   -43427.811    180.11345   0.97216954 
  100100    216.22142    326.31103    128363.27   -40700.602    2690.2055   -43390.807     180.4143   0.97296908 
  100200    211.80309     493.8302    128261.93    -40684.44    2635.2331   -43319.673    180.25654   0.97373784 
  100300    215.61418    610.92189    128115.38   -40657.061    2682.6503   -43339.712    180.58889   0.97485164 
  100400     213.3405    492.25173    128139.67    -40685.28    2654.3615   -43339.642    180.78789   0.97466689 
  100500    217.56289    479.08982     128077.6   -40589.706    2706.8959   -43296.602    180.56169    0.9751392 
  100600    213.20295    584.69019    128017.92   -40664.718    2652.6501   -43317.368    180.78545   0.97559383 
  100630    216.25902    490.65912    127948.26   -40650.973    2690.6733   -43341.647    180.69952   0.97612494 
Loop time of 91.9899 on 6 procs for 100000 steps with 4175 atoms

Performance: 469.617 ns/day, 0.051 hours/ns, 1087.075 timesteps/s
98.7% CPU use with 6 MPI tasks x no OpenMP threads

MPI task timing breakdown:
Section |  min time  |  avg time  |  max time  |%varavg| %total
---------------------------------------------------------------
Pair    | 73.382     | 76.088     | 77.291     |  16.2 | 82.71
Neigh   | 5.0148     | 5.048      | 5.0665     |   0.9 |  5.49
Comm    | 7.0637     | 8.2625     | 10.993     |  49.4 |  8.98
Output  | 0.15976    | 0.16062    | 0.16416    |   0.4 |  0.17
Modify  | 1.7692     | 1.7918     | 1.8065     |   0.9 |  1.95
Other   |            | 0.6389     |            |       |  0.69

Nlocal:        695.833 ave         708 max         688 min
Histogram: 1 1 1 1 0 0 0 1 0 1
Nghost:        1474.33 ave        1491 max        1466 min
Histogram: 2 0 2 0 1 0 0 0 0 1
Neighs:        0.00000 ave           0 max           0 min
Histogram: 6 0 0 0 0 0 0 0 0 0
FullNghs:      19717.3 ave       20140 max       19409 min
Histogram: 2 0 0 2 0 0 0 1 0 1

Total # of neighbors = 118304
Ave neighs/atom = 28.336287
Neighbor list builds = 5444
Dangerous builds = 0

undump              1
unfix               2
unfix               3
unfix               4


################################################
#######         Run Simulation         #########
################################################

reset_timestep      0
log                 log.run_${NAME}
log                 log.run_liquid_density_MLmW
