LAMMPS data file via write_data, version 29 Oct 2020, timestep = 800000

4175 atoms
1 atom types

-0.25067291218707055 50.250672912181116 xlo xhi
-0.25067291218707055 50.250672912181116 ylo yhi
-0.25067291218707055 50.250672912181116 zlo zhi

Masses

1 18.015

Atoms # atomic

2063 1 0.9712608372235327 0.7181104634320422 1.668336889656049 1 0 1
2313 1 32.62123757894947 0.8664000272097419 0.13465546667698952 0 1 0
2321 1 5.705452219001406 2.5520218892027517 2.0896266248031736 1 1 0
3366 1 22.776694758318865 19.021454093108115 0.6613820129688293 0 1 1
456 1 44.956513063483115 24.888934876206502 11.721720808931813 0 0 0
1813 1 25.679524085740198 1.7788347603581034 1.264305282635504 0 0 1
3083 1 16.257429000012003 0.9003592050007245 1.5876010997021044 0 1 0
2300 1 18.855576226501842 1.0951801169743254 2.3917391115435467 0 1 0
3974 1 32.16692748971632 17.52654781280511 0.3470252944542953 0 1 1
3114 1 21.96326115691026 4.1404735126232985 0.7425804860444943 0 1 0
1928 1 25.140166961784214 4.511180679574474 1.3529276531258687 0 0 1
930 1 28.042428985015587 1.030817942774982 2.157159575705681 0 0 0
2131 1 29.918851732089408 -0.057974636057483486 0.016045425803425772 0 1 0
557 1 0.10862660194766138 0.14303931005775022 6.1654650002259155 0 1 -1
410 1 38.452317372176786 2.740310125182418 1.1258085049453086 0 0 0
1499 1 19.843395154007737 -0.15568024055651314 0.3098683624567061 0 0 1
2385 1 48.26929567635495 21.622194686849433 0.08902535830047514 -1 0 0
2088 1 11.483533285858115 22.105714751663733 15.830830155945073 0 0 0
3778 1 43.33671078502848 2.275812550236406 2.611873051731172 0 1 1
4104 1 46.13490949054709 1.885698149521485 1.8533293318545954 0 1 1
391 1 13.321488603659395 17.89934203280037 16.52070289749848 1 0 0
1853 1 39.24170897296702 24.594862689807975 2.445286973027052 0 0 1
3634 1 6.824577577019181 4.497420195600884 0.5002672924789382 0 1 1
1462 1 8.747056194820562 5.032820124725064 2.4197057973286267 1 0 1
1166 1 10.523976886726725 1.542630795693032 0.7645748688185365 0 0 1
101 1 15.401436574911637 3.174066463460624 0.2476909044696104 0 0 0
1501 1 13.186518773051747 4.804705245959774 1.4553763192694085 0 0 1
4077 1 17.501916963753565 10.260322537782674 2.8491295344332777 1 0 1
1721 1 19.19561994483415 3.4575337076517756 1.1666649995165896 0 0 1
1589 1 23.004481271548148 6.647262027693865 2.275856673009109 0 0 1
2652 1 8.329576869940784 15.457613291306295 0.030341424879738232 1 1 0
2680 1 30.766317361608156 5.036045494075211 0.6856637897818313 0 0 0
3805 1 33.00631586874687 4.878126391131857 2.352124722619396 0 0 1
3433 1 34.422870306376595 2.4543031195361493 1.6469385294215257 0 1 0
214 1 36.33509126911297 4.215267049022576 0.4769663298206799 -1 1 0
3031 1 42.78139562741988 4.154131920761415 0.36518870345237864 -1 0 1
535 1 41.85834372399216 5.35903151272763 2.361034105590526 0 0 0
1490 1 49.04829738151974 5.61627260684212 1.0953997707363325 0 0 1
411 1 4.631368970984425 6.251427099517374 0.5655804983965802 1 0 0
3696 1 13.702336841944073 7.658031359577512 1.3356965886434287 0 0 1
2724 1 19.199970277025894 5.328216675741444 3.024524805054658 0 1 0
1074 1 16.510828856900833 7.974971207125611 1.5013372858746536 0 0 0
115 1 20.288161215524923 7.563764549862146 1.9491673886578913 0 0 0
1364 1 0.229679107122421 7.466846932399263 -0.0830474214989039 1 0 1
676 1 25.282885262882925 8.172128468117956 1.4426111447268513 0 0 0
1218 1 28.594852320193773 8.326884849114123 1.5252070811991756 0 0 1
1454 1 38.42253216464687 8.551384830925814 2.307929699118762 -1 0 1
1951 1 40.30124985670077 7.129429266956753 0.6692525689381928 0 0 1
2224 1 25.126337193610937 24.00929206244883 11.870061737862178 0 0 0
1728 1 47.54109247303538 3.7012126825533316 0.14413323312272186 0 0 1
1898 1 18.665344587936893 0.19792162316793022 13.537097816424298 0 0 1
1814 1 1.7625539706976547 11.489676998706392 2.3445090245476474 1 0 1
321 1 4.268948481100341 10.52515077738905 2.901750520891138 0 0 0
1090 1 5.327098397827528 9.169267993164832 0.56658357193589 0 0 1
3665 1 8.138881667017042 9.534023804950989 1.074454755332865 0 0 1
1732 1 8.740040327815857 11.711377555001603 2.5268545931032533 0 0 1
2040 1 11.914447183711872 10.967517681870088 3.9429545193122424 1 0 1
1164 1 14.28731824144806 12.844022290767139 0.7750295431573204 1 0 1
534 1 18.601801670722264 12.193981229099068 0.9136728005989847 0 0 0
2139 1 21.113739621939562 11.538946791380877 0.5957014022000059 0 1 0
2032 1 27.464772755597263 12.76977237055033 0.9482375455692047 0 0 1
3661 1 41.55032809766976 21.352224760084134 -0.13939352571220132 0 0 1
1707 1 34.43207086457121 11.111778361444314 1.0296756340106812 -1 0 1
1058 1 36.985361718477954 9.932579869498667 0.06333216476639802 -1 0 1
548 1 43.3490508192491 9.748785512962556 1.8252598561737035 0 0 0
2885 1 45.647195757609985 8.347316672181968 1.6058941680956114 0 1 1
334 1 47.78814286321686 10.263586315722126 1.8366966497737844 -1 0 0
1691 1 50.23246144042707 9.519905312626367 2.28700858048108 -1 0 1
963 1 0.048366666587334406 13.672207723610223 2.7578580282948013 0 0 1
449 1 6.11900405818394 15.168733117214627 1.8947149331769984 1 0 0
2638 1 5.871777163663832 12.656708295998545 3.435967567261805 1 1 0
4008 1 10.11145696324767 15.057396527513433 2.436971416519058 0 0 1
2275 1 19.891378882545762 19.196741979311962 0.5175734074342901 0 0 0
2384 1 15.280621845168117 14.689985305886275 2.879772950300215 1 0 0
402 1 33.33802302397321 24.453517819509887 9.65123644701297 0 0 0
2490 1 17.930063348948 14.799416239561706 1.6327854336950047 0 0 0
765 1 23.898311560404828 14.598381423498815 2.957860629039225 0 0 0
2676 1 25.49138393385846 14.882240437991008 0.919774832635786 1 0 0
4083 1 29.852992458244266 13.868761456813044 0.4846155672325413 0 0 1
3451 1 33.75501879473528 13.558384505288098 2.172208267114202 0 1 1
733 1 31.260402191578866 13.363609606506364 2.873572114843456 0 0 0
539 1 35.62689848149905 15.55919693472465 -0.039658563889013065 1 0 0
477 1 40.44511082208228 12.400020299231839 1.800412829484328 0 0 0
2064 1 43.20750039018259 12.347013366493684 1.1334227498775435 -1 0 1
3836 1 45.08168512497042 13.744951715706645 2.4857553505892893 -1 1 1
1038 1 49.36101112821586 14.983595619984738 0.5810610706992432 -1 0 0
4043 1 2.9736049505208735 16.779080208912607 1.35247267178164 1 0 1
2045 1 4.823833257898821 17.62913780615372 3.333206050170851 0 0 1
28 1 11.276079009290932 16.793289212696767 0.565779220469971 0 0 0
1946 1 11.714496987740013 23.804211294497957 6.793586443260752 0 0 1
1581 1 15.10835299287875 18.376105021096823 3.7431433128523 0 0 1
2201 1 22.277589847425048 16.649029320836853 2.7654575723371377 0 1 0
3942 1 18.503605444061225 16.86232507359321 -0.12026926336607568 0 0 1
60 1 24.97163507383209 18.59031902735236 2.9571101692400164 0 0 0
3642 1 27.135065329011393 17.089752277110293 1.7880929648508541 0 0 1
120 1 33.20001185102925 17.070734079952572 2.994343125302139 0 0 0
2450 1 4.087589232798346 0.17937803306947836 1.3296775800141385 0 1 0
501 1 36.372925939276186 16.322730295689333 2.8574839473949596 0 0 0
3898 1 38.75147126279821 16.48528116554768 1.3593707516638924 0 1 1
3057 1 28.964504468188355 24.96375773431072 1.3845809532384092 0 0 1
1419 1 42.24903905602711 16.780439728945552 1.8913488818344408 0 0 1
123 1 46.67628324294185 14.958899477432823 0.5473819509762615 0 0 0
1679 1 10.379837835571799 6.09812979975307 16.118782750806528 0 0 0
1576 1 1.9576344163833692 21.2608409207307 2.2004840899468556 1 0 1
2663 1 3.509845878402036 19.57609865128094 0.825530490682691 1 0 0
1645 1 6.068350382048273 20.059000076877936 2.078143986290461 0 0 1
3876 1 10.425703218676263 19.358633754550524 0.7628065935589727 0 0 1
2685 1 11.952524733682509 21.47522727270479 2.0674785508260896 0 0 0
838 1 14.56899399288393 20.783068081400298 2.823226557484009 1 0 0
1984 1 16.824958045449034 22.12620257946832 2.563951285141673 0 0 1
2604 1 10.616531428405697 0.30505471802623985 3.3145556477991165 0 0 0
2758 1 19.270008764642444 20.43402618636351 2.7800349559444606 0 0 0
3840 1 26.905285913866013 20.443784048846364 1.5868304897149688 0 0 1
2271 1 31.058986523633543 20.721249627316322 0.905697299131671 0 0 0
773 1 32.33905342958944 19.734309612408243 3.2374362399259304 -1 0 0
2467 1 35.19677208946865 18.58330216469558 0.9958406891110536 -1 1 0
3189 1 37.88799133539548 19.4921064086639 1.4316989326286966 -1 0 0
1683 1 35.718837279392275 21.70187404039893 3.480549188309019 -1 0 1
420 1 36.84120215053559 0.5096416675488828 2.001234285543431 0 0 0
1989 1 44.33531006593857 18.530676203614146 1.8297009041410512 0 0 1
2831 1 37.911285764760215 1.28449617367782 6.56090194769019 0 1 0
3879 1 48.747903373253266 19.213144638877065 1.2029078243561684 -1 1 1
708 1 1.500417665304519 23.84477503741752 0.9131388711580921 0 0 0
3939 1 41.65061431835826 6.917653104094335 16.08548182560923 0 1 0
2506 1 6.418351367997717 22.79417551095928 2.8429166497299825 0 0 0
2370 1 11.249629492345163 23.936083401154903 0.75100224874372 0 0 0
1243 1 0.17577737521374598 17.60197261883979 0.44890307098998383 0 0 1
1996 1 21.812770982716938 22.764104171735323 2.4750042236170384 0 0 1
2221 1 24.525987829748438 23.527068394189545 3.1579997682396086 0 0 0
1895 1 25.559395697646682 22.91690124060594 0.6056944535262679 -1 0 1
3048 1 26.38205013689823 -0.13678421815839875 15.53219424433202 0 1 0
3587 1 31.126712983070895 23.62567148305488 0.6147969479309964 0 0 1
1315 1 26.47157748473312 4.009270537130277 16.077293610251896 0 0 0
2114 1 1.7010377946560584 23.962370130468404 10.283373057485312 0 0 0
3620 1 35.53091335246375 23.039824191487156 1.0814458776428517 -1 0 1
2411 1 37.29547971895687 24.727413370389367 12.541221926460214 0 0 0
2854 1 45.8864537762796 0.2968408554765797 6.19985087711554 -1 1 0
2284 1 46.696654208033046 23.663323940697687 1.3367925065826147 0 0 0
1623 1 24.187497650611657 0.18680813499670923 3.0196954387891357 0 0 1
1689 1 28.023053083254453 0.41507455810566585 11.514600373839428 0 0 1
3338 1 0.28548074235170484 2.195223961828956 4.2565036192285985 0 1 0
2922 1 27.62340430636143 23.17117970241406 14.892897097177274 0 0 0
4070 1 3.1718923753752457 1.3391636318230957 4.272025275457675 1 0 1
2345 1 8.716480056933037 2.1807057300241697 7.148997557626006 0 1 0
397 1 7.822006272604117 0.7349340123155322 3.865459606938347 0 0 0
4069 1 12.488783592609293 1.319198171976287 5.075272207765766 0 1 1
2583 1 14.85436319223162 -0.19249347034747763 3.956439859288876 0 1 0
1575 1 19.398212714742705 1.0886922880844145 5.190855411007911 0 0 1
2484 1 21.724258646889147 2.6291324420499986 6.328096916556414 -1 1 0
3002 1 24.19573004852071 1.749379566119467 5.513664968889022 0 1 0
4118 1 25.714127554308313 -0.24276719182863304 6.969051230172603 0 1 1
1317 1 14.541593864508792 20.085389815895024 0.2269582220915493 0 0 0
754 1 10.482444153757287 17.713203973830016 16.037579357803843 0 0 0
2342 1 33.988637770171536 1.565214434688168 4.134715276744324 0 1 0
2129 1 36.23329030889747 -0.11970043550463641 4.685471778229947 0 1 0
2939 1 15.69704415237737 17.584510167725973 0.4425733304812539 0 0 1
255 1 40.4767292545594 1.5713377721775066 5.3792331476738 0 0 0
2542 1 46.0272050451032 2.44694342373308 4.759236885839136 0 0 0
3875 1 48.50747394642672 0.6315230635723935 2.9809555961481857 -1 1 1
2938 1 50.188697764426436 18.498891670971258 16.474247016347586 0 0 0
1964 1 0.7267645340571176 4.144845015413503 2.1118133209412178 1 0 1
110 1 4.4522041400623396 3.82828738665759 4.470789369162662 0 0 0
8 1 2.9813161293835657 5.521052797048453 2.690811049554427 1 0 0
2725 1 7.61477442967062 3.632245979425734 4.554770049988943 0 0 0
1580 1 13.358265996227207 4.091127618883404 4.141725012140397 1 0 1
2576 1 15.711377980658837 2.912087554106675 3.6742611745369533 1 1 0
2098 1 14.881223745343206 5.301542941510543 6.231977491628571 0 0 1
586 1 17.055287054681305 2.173009995461815 6.138754332480402 0 0 0
297 1 21.088220618606243 4.912338454566409 5.245327834679208 0 0 0
2010 1 26.11584975211765 3.715990580930125 6.44850991605041 0 0 1
1750 1 27.331332535707684 5.911255924283106 2.3240548562247687 0 1 1
3956 1 29.161560570519853 3.533286803720275 2.4414932391924564 0 1 1
3175 1 30.05842557997119 3.951826155007291 5.037302230192997 0 1 1
25 1 32.67730220043433 5.1230286102889515 5.258143534178062 0 0 0
3576 1 34.35104198974628 3.2333598441123668 6.060589514707487 0 0 1
3210 1 37.08107412290485 6.100592936301244 2.3814633304901913 0 0 0
624 1 39.89610648206658 3.247093673284635 3.40765299695424 0 0 0
2550 1 38.56340426348139 5.2095488866708175 4.532929399099071 0 1 0
269 1 44.123967927260004 3.9449146583828005 6.169735608191425 0 0 0
1238 1 48.57296587870892 3.509857405549417 5.523920571731158 -1 0 0
2777 1 50.074500803987014 8.031808870484406 4.563725104696659 -1 0 0
2046 1 4.701301699018325 4.156524106346761 7.657867811187906 1 0 1
3645 1 2.0239613605497073 7.19073631127246 4.9172662028278475 1 1 1
70 1 9.291817386371218 7.613172154153319 2.9255105096428706 0 0 0
2078 1 6.582576215833903 5.857775286217602 6.206401792194986 1 0 0
1958 1 10.302903695115068 4.808850189085624 5.429984349188401 0 0 1
1355 1 11.838048002306484 8.071500351990025 3.370950929390134 1 0 0
2034 1 12.680500115319145 7.301542925207111 5.669375446971615 0 0 1
918 1 16.55391568633954 5.736076637655733 3.298459519002234 0 0 0
675 1 19.209379387004763 5.7076917618725895 7.289445704813791 1 0 0
1091 1 23.637580500438677 6.198813019074848 5.1088905920142835 0 0 0
2297 1 28.087347305281796 8.274459619953417 6.246105293060364 0 1 0
424 1 34.88360401351873 6.7637921818158215 3.758522599155339 0 0 0
629 1 36.843348961987445 8.952231855069051 4.634374891176571 0 1 0
3144 1 40.003974977503034 6.8631525315397575 6.35352546774333 -1 1 1
679 1 43.6162231890791 5.953528663535047 4.397401194081415 0 0 0
266 1 42.48985544272187 7.87592708135219 6.132967993280295 0 0 0
1784 1 46.01178872989669 7.157662171129318 4.014981637232157 -1 0 1
1968 1 48.54253555895629 5.777274677469377 3.829424444067107 0 0 1
2435 1 50.13110470594081 11.870196556641998 7.063585299046795 0 1 0
881 1 3.5735079632866262 9.440475786591064 5.279723570659823 1 0 0
2276 1 2.7317365711711217 11.648676267625039 6.718736620141495 0 1 0
671 1 6.885927725215604 12.39727174552427 5.945849424383765 1 0 0
169 1 5.690523636678467 8.728184611831924 6.608396694687303 0 0 0
1359 1 8.399720969920324 8.719537998295676 5.378030878741957 0 0 0
2439 1 14.47216705083495 10.509910292084996 2.2784488285506352 0 0 0
1931 1 15.620973397314753 11.125662610627323 4.848049727733512 1 0 0
2794 1 19.20319535875702 8.70203755359469 4.417640870572744 0 1 0
3568 1 20.75878535401361 12.754223337246207 4.886684967862591 0 0 0
1711 1 23.89477760337181 8.91352249015166 5.281337229927816 0 0 1
2698 1 22.830780262619083 12.108244292010589 2.763055041347995 0 1 0
3103 1 24.859719315754607 10.41402152656145 2.988509416288647 0 1 1
1173 1 27.450131139578133 11.571082560962967 3.560020757481127 0 0 0
3284 1 28.93931810192877 9.362357427411329 3.994163326089085 0 1 0
1786 1 31.19512303921066 10.810353561079745 4.362014949478103 0 0 1
3535 1 33.69632065024561 9.69495533674814 3.399134365240106 0 1 1
1866 1 35.1569420900703 11.530123048014284 5.122725716949067 0 0 1
372 1 39.79210792423456 10.654202654004768 3.6432607622487696 0 0 0
1739 1 38.161089452418594 11.681436067423864 5.860812578056334 0 0 1
3681 1 42.41153358999403 10.282050352607257 4.364239765113918 0 0 1
393 1 46.570325172911915 9.501237023662314 5.469154928137451 0 0 0
2421 1 3.878455329016427 13.867738194435095 5.384272757698837 1 1 0
2442 1 8.070158953365622 14.89216654444175 6.428520661810952 0 0 0
1640 1 11.336203167409629 12.620635633323273 1.5946038626001713 0 0 1
2480 1 15.309866900902522 14.410763390866139 5.627813627259507 0 1 0
787 1 19.84205447652139 15.315371044624717 3.7343229580246016 0 0 0
659 1 22.449034322234205 13.983736895611704 6.821215199592281 0 0 0
1318 1 25.051490003552004 14.452082986588135 5.474536958330415 0 0 0
2409 1 31.234619637260685 15.736134116534544 4.133776978362897 -1 0 0
583 1 35.24655224641299 14.213967491123876 4.487268226894212 0 0 0
873 1 38.119658599754025 14.166890855249319 5.1913865291451495 0 0 1
2613 1 40.13655493078266 14.711540125153963 3.4355287855273504 0 1 0
44 1 42.546764613299715 12.837418114542366 5.671427498295623 0 0 0
17 1 46.818059343825304 11.839817904533133 3.889237364281027 -1 0 0
3419 1 45.25386930990728 12.792821097003227 6.105000279492953 0 1 0
2573 1 48.81033572397696 13.355007870190308 4.791756399353357 0 0 0
3466 1 2.0534946427423626 15.442592410468949 3.9129357026342664 1 0 0
1284 1 0.3717918921296255 17.787047772028348 4.548945896722437 0 0 0
2277 1 9.03347804319627 17.04233100337013 4.638908073541985 0 0 0
1505 1 6.23370126749113 17.986976488977522 5.936919658471866 0 0 1
53 1 8.719768611667572 19.35387464351723 3.1727466574695247 0 0 0
3671 1 11.92104391837474 15.468764331441442 5.073433518448163 0 1 1
1875 1 13.178707826284429 16.43448067334946 2.7278622606149314 0 0 1
1147 1 14.184650823967708 16.77149626116469 6.44819061988536 0 0 0
2630 1 18.84522922531774 16.586200423412794 6.418786796685768 0 1 0
1781 1 21.49051390929536 16.64581675462404 7.300205920028677 0 0 1
22 1 22.39781295232891 18.33894571904647 5.055646680749059 0 0 0
682 1 25.040050144624413 18.641885923451373 6.01819261070696 0 0 0
3889 1 26.94941113729322 16.479373688763662 5.970814076055817 0 0 1
2932 1 28.797803380506764 16.793074570861673 3.9687931931887777 0 0 1
292 1 40.612839547580606 18.900675494537634 2.4183083420095386 0 0 0
479 1 43.26479446256797 15.102985144647535 3.9003255321363124 0 0 0
1448 1 46.49664934400264 17.272016532053623 2.1771626629970613 0 0 1
2003 1 47.08184582591732 17.391471477336367 4.903038987530382 -1 0 1
668 1 49.01680137549996 15.846526994658312 5.876108163281438 0 0 0
2418 1 50.150225230258364 20.192003959030306 3.3484136606908614 0 0 0
1994 1 10.519822530517514 21.020188324636674 4.548130544828996 1 0 1
398 1 10.293854842081904 18.892475285940726 6.461999276895653 0 0 0
3137 1 14.213595353677174 19.677226245638913 6.624474518324669 0 1 0
1367 1 17.77881303195499 18.259103106962634 4.121383961990841 0 0 0
1118 1 17.18559956113319 20.42462358939022 6.068706414126181 0 0 0
2065 1 19.702262939566523 20.951673506101212 7.149350354258964 0 0 1
2515 1 21.12938638611867 20.797029248372635 4.700638081999632 0 0 0
1503 1 26.304390549960225 21.05560236746299 5.986171077958613 0 0 1
4054 1 28.143406163442034 21.204369407364055 4.041229305341133 0 0 1
3860 1 29.893233514200137 19.41443513655317 4.813357039428272 0 1 1
32 1 33.27210198299308 21.677171449444764 4.819177596306349 0 0 0
689 1 36.77884542665113 19.143390611051146 4.152363353454951 0 0 0
494 1 39.69946216261025 19.002845725988347 5.1764167469436275 -1 0 0
3584 1 44.6037910089592 20.628454322702794 3.7330034798435876 0 0 1
312 1 2.919847424637941 23.604691103881077 5.725703348794487 1 0 0
2274 1 33.54334359201633 24.88265094806008 1.2078498556233985 0 0 0
663 1 4.079859366954897 22.03310680119539 3.945805182555966 1 0 0
1654 1 8.429076473429408 22.96145822276562 4.829558333788271 0 0 1
2145 1 14.838448879139996 24.203377647402803 5.485501408372027 0 1 0
2755 1 13.13309860496017 22.01481130430443 5.401412887719398 0 0 0
4163 1 17.584259163247296 22.896298050496778 4.933679118150463 0 0 1
3635 1 19.794527636158968 24.2059929429245 3.8155519089308116 0 0 1
1962 1 23.557044756530676 22.02715500747043 5.483510256434327 0 0 0
3732 1 29.225596582593337 23.790135974460156 3.901026347389455 0 0 1
3863 1 31.645594074217566 23.961318178583703 4.99489931924954 0 0 1
2243 1 37.86172845722495 23.183355045674563 4.399059154201159 0 0 0
4028 1 40.046402205928054 21.819330548709203 4.8226149360328465 0 0 1
3127 1 41.96259175842453 21.364147894733623 2.863730010311205 -1 0 1
4172 1 46.68404061217348 22.482177407751948 3.876916016594577 0 0 1
2509 1 49.056575478784254 21.926268800676148 5.159580225509373 0 0 0
209 1 1.5641725833023388 1.4588116321087585 8.164733985070253 0 0 0
2772 1 2.8468449957283366 0.3116019527834122 10.939770285681588 0 1 0
2739 1 11.387355307542963 2.770907587117213 7.008054511777846 0 0 0
1572 1 14.833540550638814 0.38355948964359254 7.145138826517631 0 0 0
1927 1 20.530772551796566 17.625938626818858 16.302501290935602 0 0 0
1051 1 21.18946845286675 2.2346198981427885 9.146427854110902 0 0 0
2793 1 23.13696516818318 0.9827710201060378 10.50759741100988 0 1 0
2235 1 25.865065860052546 1.1888062126772103 9.756981556145993 0 1 0
3087 1 30.373379863537895 1.2087633528736192 6.097834344418187 0 1 0
3628 1 31.38443745996543 1.7186925991203508 8.823400403878114 0 1 1
195 1 33.96091911147145 1.2683177509133186 8.19201641631305 0 0 0
51 1 42.780392580563635 1.6978089400521272 9.639419542032847 0 0 0
610 1 10.082118392882203 23.47837246303413 10.569117752925562 0 0 0
694 1 7.3405237669126775 24.07764703190132 15.503449226766264 1 0 0
4018 1 0.6442135932288297 4.123518346881397 8.08629441822879 0 1 1
778 1 4.3470226794502915 1.2740427236467295 7.320238091252996 0 1 0
1777 1 8.107678463218658 3.0333439948718257 9.79341952692217 0 0 1
1269 1 6.497589404072498 5.306820639227282 9.9728292510887 1 0 0
4159 1 9.026179034323038 6.455245270269697 7.825062579813379 0 1 1
1504 1 13.324756857174286 4.63779742326561 8.652988420335264 0 0 1
150 1 15.230311427526853 2.474407814663423 9.278218383854158 0 0 0
2599 1 16.945898435942333 4.182481281531888 7.735800995165609 0 0 0
3203 1 22.52267704237285 6.028453390007283 8.061164359676606 0 1 0
3467 1 28.668729408283173 5.37344305123435 7.0564671126964775 0 1 0
814 1 37.72230887213313 5.568724549448621 8.851462565077668 0 0 1
2245 1 37.11362766972003 3.7910400673791793 6.505379362823404 0 1 0
3529 1 40.516308820976384 5.288297550074927 8.64433958027382 0 0 1
2620 1 41.8443046519461 3.0984466040634975 7.372676132441299 -1 1 0
1375 1 45.304916936082215 4.612058989630072 8.622989402259329 0 0 0
2047 1 48.05250398661481 3.925065824322676 8.426762479237736 -1 0 1
2441 1 2.395830035531503 6.3736029163834305 7.682160167854513 0 1 0
1386 1 0.06967483716707912 7.698440966982846 8.43673083611644 0 0 0
1045 1 3.5817552806703503 5.964366763450049 10.277652932508364 0 0 0
3409 1 7.810016586666746 7.870248326796203 9.666832142272552 1 1 0
2197 1 10.64085228821151 8.375750022068157 7.021627628481647 0 0 0
2252 1 17.197377059927767 7.214865701965241 5.601051910480928 0 0 0
3132 1 20.23086205998207 4.951381585112606 9.758632179209371 0 1 0
2674 1 20.06769615045341 8.333040152528316 7.804474739394177 0 1 0
1416 1 24.74963651511606 6.001627429044184 10.007576414048343 0 0 1
396 1 26.395634824006482 6.271867026605498 4.904731737803032 0 0 0
284 1 25.8030298668332 8.615249374528346 9.70673519590121 0 0 0
2266 1 30.544764352848464 8.694505122748756 7.860813106704514 0 1 0
199 1 31.584884347089062 6.187351150986413 7.847083276903705 0 0 0
503 1 34.4608166247241 6.177948795146435 8.982018199728119 0 0 0
487 1 36.50323672032481 8.273719927348752 8.927479906097588 0 0 0
4158 1 38.37250405320586 9.111815761291666 7.239313901274625 0 0 1
27 1 44.073981854297074 8.681134041137696 8.47773679354454 0 0 0
1415 1 48.61096617632957 6.315775688559428 9.812015771717299 0 0 1
313 1 0.9795320481835532 9.222545413454023 10.53829257881254 1 0 0
1621 1 1.768942400720762 11.63529020592457 9.385480402525081 0 0 1
1554 1 5.587128612590906 9.658226588310663 9.233757950214848 0 0 0
233 1 9.067608101415484 10.494474283979965 8.364069810476591 0 0 0
1380 1 14.807513663370328 9.004507623185487 6.53126941823311 0 0 0
3230 1 13.1376265623575 8.947761459117665 8.892507667697226 0 0 1
1050 1 10.972387834824156 11.145643160150783 10.098771908437516 1 0 0
2746 1 16.422259733430135 8.842635460010865 8.877895566223875 0 0 0
2422 1 18.447544473166126 10.552845426316571 8.737056361715371 0 0 0
2367 1 21.595711243507573 10.08228697897395 6.241197282711753 0 1 0
1941 1 25.977051976233884 9.543351185848511 7.12021067311259 0 0 1
1664 1 34.73481368553575 10.400158952508178 7.737149808858358 0 0 1
285 1 32.1113411735295 11.14479648179561 7.175807691787443 0 0 0
1579 1 40.013651065220095 11.028138560268632 8.693359408472334 -1 0 1
2977 1 45.470549874118596 10.81989046682909 8.114082882077291 -1 1 1
330 1 49.09892412253413 9.485332331540045 6.899035361590356 -1 0 0
3105 1 49.86247917089158 13.339359020244435 9.92480360505273 0 0 0
3755 1 5.080672075172765 12.235088214365572 8.189567806180783 1 1 1
2785 1 9.421101757427799 11.39703406006649 5.442383402209974 1 1 0
2581 1 13.046154090593214 12.838395297119503 5.751368033761073 0 0 0
1106 1 17.94097890949196 13.863265433842283 7.163873433384454 1 0 0
337 1 13.253383013256638 12.446921316092514 8.656211207270848 0 0 0
2427 1 18.4478614066336 11.173702612858444 6.131757348987964 0 0 0
4019 1 20.539984837625333 11.933041976610932 11.069656162229908 0 0 0
2152 1 23.5740877916888 14.14538005864988 10.732832962576028 0 1 -1
3557 1 26.584499509295664 12.23546188507025 6.4639195023302385 0 1 0
2841 1 28.13489038231434 12.956959932794346 8.56560123506799 0 0 0
79 1 31.58160752082821 15.378935204938738 6.833283371579587 0 0 0
2005 1 30.96306295487971 13.267348687825866 8.478396200879097 -1 0 1
231 1 35.52216178424383 14.687507170877184 8.818509555645216 0 0 0
3276 1 38.12992693734322 15.416359885406862 7.895282115618853 0 0 1
3826 1 34.88485548980156 12.096504453410711 9.775276091147104 0 1 1
648 1 40.5305440168215 13.35982126064253 7.351765551517226 -1 0 0
3683 1 45.24936064304863 14.991644542324407 10.147469249286415 0 1 1
575 1 -0.20224222995926 15.630781077882748 8.419718411980401 1 0 0
2369 1 2.4510042729765678 16.016298645891347 8.823447498098886 0 0 0
256 1 4.845933502476887 15.960905708594325 7.191200488331407 1 0 0
2113 1 7.293647082496502 15.619467716472812 8.908771130679506 1 0 0
1381 1 11.741126101667119 18.760845711907738 10.669343880751022 0 0 0
62 1 11.075598032711296 16.417787444556012 8.162426112707971 0 0 0
1506 1 14.58505591755716 15.202141594777967 8.765815537165281 1 0 1
3798 1 17.540127894867343 17.692641729291616 8.970192477713274 0 0 1
730 1 21.85598560098637 16.68225467539015 10.222048927220806 0 0 0
718 1 28.09732761809507 15.613895806686866 8.466793704639665 0 0 0
2800 1 30.60985207244307 17.387665882665807 8.624482289797621 0 0 0
463 1 34.216151944641496 15.671491472825045 6.543383801578086 0 0 0
2567 1 34.993648835321025 18.311373843626413 6.142961865050237 0 0 0
3460 1 37.53990027128191 18.237075592892005 7.501340449998149 0 1 0
1797 1 40.95221465423535 18.552204865073676 7.8350375596662065 0 0 1
685 1 42.84193848120732 16.588420857835683 8.725804147571282 0 0 0
2383 1 43.937231790742786 16.848631895648474 6.150179299450177 0 0 0
840 1 46.05102930127603 15.19051711394188 7.13331523292308 0 0 0
167 1 46.73348827978364 17.819802419382995 9.437619492395159 -1 0 0
854 1 2.1445235438917027 18.49161192533655 6.6905829140689805 1 0 0
1225 1 0.7590642478396792 20.17332326944507 8.44795514549125 0 0 0
1174 1 4.088108309944371 20.138778130837192 5.857956970039326 0 0 0
567 1 7.716425837629758 19.268649729914824 7.997697072610222 1 0 0
2787 1 11.991628829272306 20.666856960691533 8.656822087488711 1 1 0
553 1 15.820116044325896 19.99178755514123 9.03281801327346 1 0 0
3818 1 20.231916246560733 18.981444275763035 8.786058613873733 0 0 1
4016 1 24.116370189911784 18.24134741464099 8.67583911499301 0 0 1
2079 1 30.864434138867242 19.990940938289526 7.284800134537088 0 0 1
2006 1 30.14594322032039 22.05541267110839 8.891069118388092 0 -1 0
587 1 33.59636946222388 20.38229726239546 7.040362826889156 0 0 0
1651 1 39.105288949592364 20.06656970505648 9.528882169299129 0 0 1
1820 1 44.13877385588428 19.74282745952947 6.254745988209841 0 0 1
287 1 46.537189735639664 19.006462195133494 7.017130608882949 0 0 0
2679 1 48.64579823192365 20.757133850175066 7.376526946630186 0 0 0
2801 1 2.6088457233263207 22.354577139739963 8.201323112637358 1 0 0
784 1 5.386276296698815 21.082522459151605 7.92822531574668 0 0 0
2562 1 43.29452777482238 0.316096759473142 4.829520201436928 0 1 0
14 1 7.083235001755127 23.154395282766277 7.42232388910515 0 0 0
3779 1 9.565723208889796 21.91430281285971 8.274134748144254 1 0 1
2883 1 17.631537833701543 22.53321867120338 8.917591741622926 1 0 0
2212 1 0.4280352858405173 24.1192779645759 4.880771078093185 1 0 0
3080 1 20.18623451435246 23.709612141402864 8.590196684969516 0 0 0
316 1 22.60712690207465 22.677604822984247 7.905413805666392 0 0 0
357 1 27.43037925891739 22.3089394302634 8.24552604721478 1 0 0
305 1 31.214842820952597 24.225647966119258 7.697087198291556 0 -1 0
363 1 34.65695996129138 21.951493848679075 8.778460762545723 0 0 0
3169 1 36.56674834899657 23.4951853798625 8.277659913198855 0 0 0
468 1 38.9794378918394 22.822072860228857 9.25841474704343 -1 0 0
2445 1 40.95831222184958 22.697478697879873 7.221801660314421 0 0 0
849 1 43.25001522114521 21.693982758677098 8.442281319372105 0 0 0
517 1 45.13484536492807 23.81606675677478 7.831059805650945 -1 0 0
2672 1 47.66042093830698 22.97241301811256 8.984890252581366 0 1 0
2655 1 0.4067465176000119 1.8609304146480068 11.18332529598145 0 1 0
347 1 5.787242721062338 0.8279283538198745 9.988548808770329 0 0 0
1322 1 6.689839209197372 0.5547912544748465 12.742655349821195 0 1 0
506 1 20.47640435615822 20.520048820185373 16.41308033535089 1 0 0
3307 1 48.11207941668958 6.8826749447822495 15.619769437935409 -1 1 0
2818 1 10.453897115723546 2.3214603175731576 10.821585719366658 0 1 0
1350 1 13.454902169006306 2.2203703055785247 11.434209811294794 0 0 0
3267 1 29.965956317318806 7.100405193189321 15.440829985611456 0 0 0
585 1 18.873101454787964 1.21355525005974 10.539408559304743 0 0 0
9 1 22.96278249518492 2.2810842174515438 12.848235097126526 0 0 0
1633 1 26.194733906869402 3.9325794961259977 9.196889732959512 0 0 1
3600 1 8.016936490979496 7.50453722580171 16.495080457080515 0 1 0
1194 1 32.33810900733458 0.8846149373245775 13.299589049123059 0 1 1
2340 1 27.655399222646828 1.6442001137105346 5.162031940011966 0 1 0
3448 1 35.637578439705116 1.714288365469115 10.478548941518074 0 1 0
2393 1 35.25573276814695 0.09615355351365323 12.884557436260836 0 1 0