LAMMPS data file via write_data, version 29 Oct 2020, timestep = 800000

4175 atoms
1 atom types

-0.7314830227814291 50.73148302277946 xlo xhi
-0.7314830227814291 50.73148302277946 ylo yhi
-0.7314830227814291 50.73148302277946 zlo zhi

Masses

1 18.015

Atoms # atomic

2119 1 0.5857259524267664 2.0545604373631137 0.9152025434178659 0 1 0
2741 1 14.491729779052267 -0.3977959585066746 6.07942446532174 0 1 0
2763 1 11.192579015629683 2.3608805583528683 1.446963454771066 0 1 0
2539 1 14.211203092118437 0.40565000984027355 1.379796496092656 0 1 0
1883 1 47.875718887334784 19.024419276239453 -0.2395052022475378 0 0 1
410 1 26.630175405547114 13.38280394985783 -0.5096651023223888 0 0 0
2153 1 27.2376253252583 1.1267282491286716 0.5080523182614054 0 1 0
2593 1 31.24751130823942 1.1078040896894406 1.4385452103589214 0 1 0
2256 1 18.850743163926285 -0.22926252131937253 9.649547266361981 0 1 0
3810 1 29.724073554327425 1.8089427803461389 -0.6277943539856298 0 1 1
2532 1 38.92956088056593 0.48246226978063733 2.503614656957139 0 1 0
2699 1 48.98418771204109 23.065048500616186 15.605934373430017 0 0 0
268 1 47.35228524610713 1.1036773335756054 0.6341665128030864 0 0 0
2728 1 50.40804428645842 24.862857341678865 11.12053925894602 -1 0 0
80 1 0.23053346132671582 4.63918089150183 1.5088143198383746 0 0 0
3599 1 5.210850353790605 3.2884350077485767 0.1889427151364389 0 1 1
150 1 4.954215503234355 6.041286793013302 0.48545514119549127 0 0 0
2524 1 20.45101041046052 0.28551225247491785 7.458297485688417 0 1 0
2620 1 13.647193452182032 2.9404065958567633 0.5979136808783858 0 1 0
704 1 14.734462633350962 5.159193603021446 1.9278729569367963 0 0 0
143 1 17.698806883012434 4.347360697885449 2.050963989266672 0 0 0
1480 1 18.881914603879455 2.6961330043265415 -0.0018022302936817614 0 0 1
109 1 20.96390603683888 5.279331664420508 2.1408099806276293 0 0 0
1914 1 39.18289019805697 -0.2659501465890628 -0.08328637788986426 0 0 1
534 1 29.427975532777054 5.848829143788448 1.7559807514840147 0 0 0
1455 1 6.581001645677228 9.061956162774305 -0.016244078625490488 0 0 1
411 1 33.57557382640478 2.4315254895118734 2.3120649743846964 0 0 0
1771 1 34.61146419812441 3.3506977919858922 0.024029098659966386 0 0 1
1538 1 37.21000354617114 4.380261727950092 -0.0031592745207544848 0 0 1
581 1 39.003527822556634 3.233036656825569 1.9985539495819857 0 0 0
1506 1 41.505118617647184 4.117004661036393 0.9375319920710818 0 0 1
468 1 43.33458180064049 3.063236422295316 2.7755904769783406 -1 0 0
1851 1 45.46883948728758 3.6528345390025647 1.2454763871188101 0 0 1
359 1 47.34482326164836 5.455473594630519 2.292670606795972 0 0 0
616 1 3.02047464785603 8.157484111091238 0.8429850184357244 0 0 0
343 1 7.513915558624184 6.717359050597303 0.7051571217643768 0 0 0
486 1 11.055377442762381 7.578823541352023 -0.04058013167406693 0 0 0
328 1 13.838595861594737 7.350695127514625 0.4282162427401732 0 0 0
195 1 17.494922910018097 9.146874919268447 0.924048767823161 0 0 0
324 1 18.616596253716516 6.9378009562433585 2.3072968240946254 0 0 0
570 1 22.768428403461666 7.168072471018924 1.488590339246223 0 0 0
106 1 25.24043334305215 6.190255535900783 0.5734842122726491 0 0 0
662 1 28.874097286701133 8.325336737235249 1.9517355523855455 0 0 0
430 1 26.67638542189591 8.732684149875992 0.6013437037527891 0 0 0
671 1 0.9702338112271798 -0.0167510232357313 2.5792641066463053 1 0 0
253 1 36.43840919376507 6.5645517458506495 1.226765520655354 0 0 0
456 1 40.993781343827166 6.564610160884404 2.5991216840322005 0 0 0
337 1 38.992699719666234 7.980379124335229 0.9370545919751383 0 0 0
1534 1 43.394906311346986 7.591050098075641 2.1356403933478108 0 0 1
2714 1 30.38079375871916 22.812447894901446 15.03495393069288 0 0 0
1482 1 48.0348029883158 7.781175748722369 0.6943956603348747 0 0 1
1582 1 4.632362466911094 10.427042419123696 1.671354183280381 0 0 1
164 1 45.82167114752552 -0.7114342898470526 4.33343906233885 0 0 0
1850 1 8.75970494774993 10.809010438299055 0.20557997988120935 0 0 1
219 1 9.85662726004656 10.550992712758298 2.705730721433655 0 0 0
336 1 14.574717057609933 9.788123648480257 0.9242096934309374 0 0 0
1667 1 19.62051179966222 11.009065408863828 1.5213981365086506 0 0 1
1695 1 21.737921720603282 9.444450032580828 0.27938698700857745 0 0 1
1501 1 25.41526825408075 11.119937269742667 1.0381458873447358 0 0 1
537 1 31.005353569340162 9.163346317129754 0.33710561670565253 0 0 0
489 1 30.794678634854282 11.7468845046704 0.4095735098211317 0 0 0
1854 1 33.511258975952245 8.433658577921713 1.0916766527122732 0 0 1
202 1 34.58796428853833 10.880169766607427 2.129373295992899 0 0 0
144 1 39.01911330057297 10.58258722559836 0.8640490780538219 0 0 0
23 1 41.65791167541833 11.73760363406856 1.1973453728625327 0 0 0
699 1 43.71851894307693 10.224011644432887 2.323357396172834 0 0 0
167 1 46.02396789263972 9.539196601177066 0.5182613101196463 -1 0 0
2053 1 50.50873536093955 8.960058920836177 1.4211070437045783 -1 0 1
1806 1 50.40185898329172 11.706455960502188 0.5235680028011738 -1 0 1
254 1 3.43168786198642 12.57078440402019 0.7365457856198383 0 0 0
1819 1 8.026600439581589 13.373567601707334 0.3667794955711474 0 0 1
1969 1 8.901826115598753 15.234584879028988 2.617226923417102 0 0 1
2515 1 16.001510957371778 -0.5319311378568281 -0.49539571192609444 0 1 0
213 1 11.538878047175503 14.884943702392325 2.1799071276973505 0 0 0
370 1 16.86009202539692 15.658345232411964 0.6310453794623687 0 0 0
495 1 18.239220318322715 13.237479297079107 -0.0072945215170767685 0 0 0
530 1 21.05712149431913 14.036605026540522 0.6533897898988206 0 0 0
141 1 44.110823146645544 -0.5688856910874122 15.12083666883566 0 0 0
608 1 36.15494368508574 15.314132091796374 0.8470859543018319 0 0 0
394 1 41.993792495657715 13.903181174706646 -0.6022067961197269 0 0 0
644 1 25.427775716528124 10.780264098354847 16.105175810677686 0 0 0
647 1 1.2179992789242486 19.37073124437703 -0.12969243990569557 0 0 0
7 1 45.89435308256596 15.38449415688454 2.416407621197223 0 0 0
1956 1 50.46042820839632 13.75120086142528 2.477892142290327 -1 0 1
54 1 1.1579646452515087 17.564602328590748 1.9866279951384813 1 0 0
62 1 4.08352288954024 16.40630620522524 1.6445232459106571 0 0 0
1770 1 13.328217558956723 19.069099806660056 1.2923269252627558 0 0 1
548 1 19.34564004556967 18.434321483615076 1.6361380115541957 0 0 0
1783 1 21.553110263378084 16.857479127654738 0.9248210827052799 0 0 1
660 1 27.96415210523633 15.58065357018971 0.7410268493064356 0 0 0
1780 1 26.779680907177656 18.10307600788646 0.8965446710288816 0 0 1
226 1 44.88524368259806 -0.33861646313257515 6.987083488587678 0 0 0
1583 1 33.60626299816461 16.224108828261198 1.4074063140050068 0 0 1
1764 1 40.79248993303564 16.01182262624344 0.5689772763387462 0 0 1
1728 1 42.57014822314619 18.04544419524584 0.6630380896669996 0 0 1
536 1 44.24119752651366 17.68210019955152 2.7143222003755128 0 0 0
37 1 50.19990539748693 16.125104754280077 1.4188478248968073 0 0 0
2899 1 47.01249263973723 -0.48212042523315846 12.134919973254028 0 1 0
139 1 2.600796412835152 21.167765070398048 1.6645975274585862 0 0 0
457 1 7.1575955985720725 21.75943802240012 1.415953304873426 0 0 0
1948 1 8.657781243187884 19.617192910375426 1.100638355377064 1 0 1
205 1 11.094597000695737 20.74780159961566 0.3349978918913201 0 0 0
1761 1 15.072859496714516 20.91122112594628 2.410626717342252 0 0 1
1794 1 19.81034005866532 20.971278519257993 0.5344831308847153 0 0 1
452 1 23.952499027522126 21.282571825176493 1.3254442398985002 0 0 0
201 1 28.81218787831114 19.886222464417912 0.768474469280882 0 0 0
2138 1 18.45725892715028 -0.016387040646246964 0.4301773253150647 0 1 0
4081 1 32.91924712002643 18.924514922681496 1.8070513689580214 0 0 1
2099 1 38.56493538300694 19.073797467476215 1.8066117383247486 0 0 1
212 1 28.51247291470846 21.817026810281288 13.17493500862215 0 0 0
1494 1 41.010997390101295 19.63854253416722 2.6978973811722557 0 0 1
2231 1 46.704318629794955 19.028887834449947 2.192724478232955 0 0 0
436 1 35.356250732495454 12.67462165731063 -0.11242077842960663 0 0 0
298 1 21.265364301902117 24.897184325188874 1.643131925440752 0 0 0
2164 1 47.228572624299034 21.8205900393984 13.713319973810716 0 0 0
2269 1 3.8136132549867465 23.440511925339855 0.5741572237011356 0 0 0
1845 1 41.322483117381594 24.782495525589834 -0.5281519678054842 0 0 1
617 1 11.438621224672513 23.19596103931873 1.6548661205133124 0 0 0
2201 1 -0.4235103109349094 -0.6992131578711707 9.118126328139995 0 1 0
2633 1 17.098175858020298 22.142416959797867 1.039588151029164 0 0 0
3050 1 21.073964900753687 21.960366783944316 16.111333397297948 0 0 0
1426 1 33.593248199072775 -0.3307382603534959 0.7900847372426263 0 0 1
2042 1 21.494811472732543 22.02630465712659 2.147134289282643 0 0 1
678 1 27.445801220745714 23.377013687857207 2.513913669050719 0 0 0
273 1 28.547107139170308 22.47787207625924 0.11041164774977996 0 0 0
1835 1 31.0580088781861 23.801710981203925 0.6160582105078969 0 0 1
296 1 35.11683892668728 22.86822502315927 1.196662352046411 0 0 0
553 1 46.34964613690518 14.643318956658888 -0.08051030333299591 0 0 0
460 1 37.64026909599083 21.766064157454334 0.9186730681575441 0 0 0
159 1 15.649763938018683 13.514786658443478 15.8896870807724 0 0 0
2241 1 43.12979777481226 23.238088652376206 1.0768204664915342 0 0 0
3701 1 45.40598461627505 24.730138680343977 2.151411195579701 -1 0 1
1132 1 1.7162697888247838 4.133850600201912 15.952175007911471 0 0 0
520 1 49.65833788839241 22.98405914466766 0.9440460712757452 -1 0 0
200 1 -0.02461257134657535 1.8216103636675176 6.127706792043342 1 0 0
169 1 2.604583481015886 0.4725719159224866 4.755895941943072 0 0 0
2782 1 6.795989092455147 -0.0934974911190527 2.86850364964486 0 1 0
280 1 6.0119613211043905 2.6048938814599594 2.8599833976270372 0 0 0
2507 1 9.185457199571422 -0.005527848825722548 4.7283144192304745 0 1 0
36 1 10.13723011552097 2.5431248691785706 4.058924813043786 0 0 0
179 1 15.710986739571918 0.4997989818879389 3.8996480227946266 0 0 0
2803 1 26.36955236289036 0.21600807758199447 5.986993789254376 0 1 0
599 1 20.029595395620213 2.23047425985786 5.299956777657321 0 0 0
686 1 2.954529774040313 2.372090519690216 -0.5578772187914325 0 0 0
2752 1 30.31282917176057 -0.6280071882252555 11.45125043575044 0 1 0
95 1 23.902876072150114 2.2092951506211747 3.7243125482501442 0 0 0
2174 1 24.472519422756495 2.402346541670461 6.352495224071542 0 1 0
11 1 28.168448388295364 1.2921470667672623 4.501295104849413 0 0 0
576 1 26.304823991909437 2.553558394188643 2.754205525727867 0 0 0
3898 1 30.03734086493168 -0.39525922628388843 3.5808378835326895 0 1 1
2029 1 35.249823471701944 2.3647955741535323 4.742582611438102 0 0 1
571 1 33.10843566441905 2.2221516595370434 6.5304833982925725 0 0 0
43 1 36.45393604135138 -0.042996126885253116 4.2350099491992355 0 0 0
166 1 40.80400887927509 1.416729156801356 5.903955322865338 0 0 0
2587 1 41.17069049576082 -0.21274857608906816 3.8667061794324162 0 1 0
92 1 43.5858470186879 0.4431275659746998 2.801700640486363 -1 0 0
73 1 47.9721169918473 0.38391735995610743 3.2636819143582 0 0 0
1906 1 48.76966922905655 2.4636477171421665 4.959902911118944 0 0 1
3183 1 2.595323717069785 5.129742606128426 2.547194017870682 0 1 0
2286 1 3.697749965131292 3.1699095367243224 4.234211331546071 0 1 0
211 1 7.625235374220589 4.076617666262401 4.407590976079758 0 0 0
690 1 13.770792084621876 5.359840003039166 4.501845809228207 0 0 0
479 1 11.75346255422168 3.9499308517768315 5.988806776258474 0 0 0
2644 1 15.871259950456839 4.9553677096024815 6.048749223442851 0 1 0
2502 1 17.264958570176 2.9577034161790365 4.548763153473342 0 1 0
247 1 22.011838397390285 4.079086875150791 4.464944141070843 0 0 0
2707 1 26.87708220080578 5.230686268829439 2.590516186792975 0 1 0
604 1 31.788808493886595 4.794068454983905 3.0378002161614264 0 0 0
349 1 37.03413753010871 4.420670392329258 5.262545832368736 0 0 0
809 1 39.69670090249831 3.8397621006981764 4.610334225177146 0 0 0
69 1 41.070228801474514 6.34093800304109 5.385722616898748 0 0 0
123 1 43.541850356665634 4.8670915017652625 4.727439620108328 0 0 0
2063 1 49.642083075671934 4.492679356849005 3.3920326628161153 0 0 1
323 1 1.6544669597454988 6.661335715471022 4.463460041278369 0 0 0
133 1 6.140733345776468 8.442434741135907 5.003899969195253 0 0 0
540 1 8.028382374431764 6.751019697461154 3.2918811338595573 0 0 0
532 1 10.463597976505454 7.914215416512148 2.949514668836873 0 0 0
306 1 12.975393516248335 7.8877038712069325 4.330585241655979 0 0 0
135 1 19.229063133789243 8.024919262227849 4.933755506664834 0 0 0
115 1 21.868566472304543 8.461215130341332 5.6953756168079614 0 0 0
225 1 23.734782165410543 8.212103536566216 3.8428658916339584 0 0 0
612 1 26.086402909218634 6.958327643524458 4.937693459028637 0 0 0
313 1 31.868108777833992 8.502733873689332 4.939366844067734 0 0 0
1463 1 33.47543227625225 6.842182561545091 3.10350397586995 0 0 1
360 1 36.14805124135799 6.770942728995312 4.152396434605013 0 0 0
462 1 45.59678521509102 6.856752359925972 3.7111527157412034 0 0 0
2225 1 47.06825850529988 7.97401134746776 5.675548029920433 0 1 0
579 1 50.39692423848638 6.44137540928699 5.139827210831567 0 0 0
730 1 49.38076541163946 9.090013012167228 4.4899073878018365 0 0 0
626 1 1.61087428985459 8.974561504364525 3.166831442951751 0 0 0
415 1 2.1753007527966153 10.791395621071748 5.000004432263037 0 0 0
496 1 5.0508618104135925 10.911335944041436 4.253174355664385 0 0 0
447 1 7.943876863888635 11.344708830120977 4.628368431702764 0 0 0
333 1 14.152748620711 10.443652170840187 3.4172996861515204 0 0 0
656 1 16.236785417074287 11.795550554700633 4.428411672336117 0 0 0
465 1 18.752746190902574 10.77173558382142 4.193992807951546 0 0 0
338 1 20.696185921781012 12.572830988874264 5.282527101499989 0 0 0
351 1 24.214742203053152 10.808605688417945 3.536461678918016 0 0 0
504 1 25.872620815232853 11.583618123313592 5.675700584977758 0 0 0
339 1 27.457992967690835 9.370382490700715 5.597354353451326 0 0 0
121 1 29.597920070597723 9.913046772685037 4.105959489429997 0 0 0
472 1 33.447107450148934 10.420840715650533 5.974140600626633 0 0 0
242 1 35.94083510894394 9.148133606372621 5.6641505234021325 0 0 0
600 1 37.318932092974805 11.678281941682503 2.9487553139989937 0 0 0
249 1 38.15800039263853 10.629092656644074 5.32276476647948 0 0 0
255 1 45.42991571279721 11.302639984047907 3.9964999815088014 0 0 0
281 1 47.974303454438626 11.10845561376338 2.7937181013189276 0 0 0
623 1 0.9801509114138347 13.203906077677418 4.431240616780606 0 0 0
409 1 3.207013614591353 14.134334771963806 2.954029053647578 0 0 0
286 1 5.037464180225758 13.875650374150503 5.286474590092433 0 0 0
302 1 7.775332508619531 14.159246110027405 4.902452239330616 0 0 0
439 1 12.063398641514317 12.279237768739 3.2709353963022387 0 0 0
1716 1 16.634292178111767 14.461312602223401 5.045012057093742 0 0 1
606 1 19.42542387818797 14.85872499497027 6.2756352873524 0 0 0
531 1 22.315000874488955 12.707653640796453 3.107363944152052 0 0 0
342 1 23.891303405338142 14.960585331851075 3.882265286427578 0 0 0
125 1 26.6750979853576 14.150979643968112 4.5330155378722585 0 0 0
1858 1 28.967203390779527 14.758962739638095 3.1889348513274935 0 0 1
645 1 30.463605030086974 12.430007357989219 3.291853914004128 0 0 0
10 1 33.24128586724288 12.378669094652961 3.883430865188422 0 0 0
488 1 33.887835153523156 14.942111122098638 3.826831549755747 0 0 0
669 1 37.628040291365664 14.413422817063523 2.9856687586814203 0 0 0
137 1 36.36099645890114 15.267188884680843 5.335807629732342 0 0 0
237 1 40.27805780053319 15.046750734808036 3.510074754945536 0 0 0
287 1 41.89475660544471 12.892848593928207 3.6312662784653327 0 0 0
590 1 44.40878874106929 13.88941582080482 4.116211479365246 -1 0 0
187 1 48.14343469304629 13.683077908908466 3.740818705751094 0 0 0
657 1 2.3800033966720338 17.4198428644329 6.326177425059691 0 0 0
19 1 5.255696718063796 16.93514124558181 5.863481352323366 0 0 0
127 1 5.537839327867893 17.97025391769264 3.3648831735637685 0 0 0
476 1 8.180794233694906 18.022543080810486 3.285387437139148 0 0 0
492 1 13.207460919900225 16.800447003433526 3.1629354389745576 0 0 0
1877 1 13.234529039507539 16.947021341406327 5.807438033751991 0 0 1
709 1 15.97894315566645 16.02534963690493 3.1998808981287397 0 0 0
1808 1 17.87088433985459 17.76100481158883 4.023675404951396 0 0 1
239 1 19.35432129604705 17.992731840871684 6.533866267757338 0 0 0
1912 1 22.993877662741685 17.56021852621532 3.1228715561297706 0 0 1
2788 1 21.860495018689374 18.588994321502362 5.583156044320722 0 0 0
188 1 30.093943585829734 16.744672204027623 4.4445809033261465 0 0 0
177 1 32.35027829182418 16.240651758126035 5.687873145150148 0 0 0
675 1 37.63243073985274 17.664952843456984 5.989858691069486 0 0 0
40 1 40.301163188785196 16.619758544608064 5.763224856075143 0 0 0
381 1 43.68487958949365 18.56454334589711 5.483399207696923 0 0 0
2548 1 48.17966089303671 16.852410911303828 3.1710571063331954 0 0 0
575 1 49.46696745513741 17.600812552429716 5.513229032663734 0 0 0
145 1 0.376667624768213 18.65765349341949 4.558508511160037 0 0 0
648 1 0.8771748937929995 21.328913322283626 4.194185065036273 0 0 0
633 1 5.076119415312072 20.55661540186615 2.674147756732499 0 0 0
367 1 9.246094894024449 19.139527515059946 5.793589733961899 0 0 0
38 1 9.786632821882508 21.540292584382264 4.853788241136833 0 0 0
170 1 12.567507704102049 21.82422928127986 5.605739032421594 0 0 0
565 1 14.041986448628105 19.721437451915133 5.955852221366607 0 0 0
90 1 16.45624762899348 20.26942447847841 4.531852872648125 0 0 0
596 1 18.400726975294376 22.076164744438312 5.122927274070231 0 0 0
363 1 21.1339636122174 21.456029410808778 4.848856565819769 0 0 0
556 1 25.159140175462134 19.099406407888072 2.7986245529765403 0 0 0
1656 1 26.39601306111187 19.516614233095943 5.108360354299103 0 0 1
1632 1 30.492629238867337 18.837305687766474 2.6673983454183103 0 0 1
424 1 30.18180271711352 20.812852842951543 4.677564022680699 0 0 0
405 1 34.33853405941407 19.86019947461174 4.2168265877155475 0 0 0
529 1 37.2331261711779 19.66849189808488 4.267445236811143 0 0 0
490 1 41.095142694990585 19.11004319906004 5.49851503376184 0 0 0
175 1 47.20833550209021 20.834449281439618 4.2633880696103015 0 0 0
480 1 44.22147145903304 16.608626254042697 16.287898128540196 0 0 0
297 1 3.772603910954264 22.161788557195564 4.903816701549212 0 0 0
1699 1 9.066164352002653 23.3894977063476 2.859786104168639 0 0 1
431 1 13.612311223431126 23.083046226787868 3.2856331106670496 0 0 0
454 1 17.62893004456561 23.889510171447636 3.4179699479028907 0 0 0
665 1 42.91896087882223 22.214713094937622 13.837843913050344 0 0 0
501 1 23.560623248094707 23.123680308422802 5.234964156042317 0 0 0
2105 1 24.906119031338108 23.497992181000658 2.6213198697509457 0 0 1
1485 1 27.629289655770183 21.962157599310125 4.859447425341489 0 0 1
524 1 31.502868181828955 22.92057478412936 3.3195169566590303 0 0 0
2410 1 34.19002345502146 22.494563522637243 3.704007792311433 0 0 0
1733 1 35.562527328149486 23.794830399686642 5.679417367461258 0 0 1
366 1 38.06666186516502 22.393827331698812 5.229316907889466 0 0 0
252 1 39.140477831609175 23.562030880336383 2.8258590520905393 0 0 0
191 1 41.53272705372528 22.22673495745592 3.085646758644846 -1 0 0
1412 1 43.012028717759804 23.2926060858975 5.422237181150448 0 0 1
384 1 31.978523906417177 13.643446375449392 15.927882785342366 0 0 0
2795 1 45.38935540137507 23.326677317107514 4.521615251533941 0 0 0
340 1 49.399902076822 24.28149628765742 5.362077519394273 -1 0 0
377 1 49.59607006034133 22.203357322952087 3.599119672806143 -1 0 0
1195 1 4.7786056923948035 1.542635826562695 9.588916474484313 1 0 0
2454 1 39.38308992591571 3.099914735842176 16.309382499281966 0 1 0
1115 1 7.269352753817159 2.2064529764652128 8.814710751797888 0 0 0
233 1 13.13553311140418 1.9205691061911656 7.338748679785867 0 0 0
2443 1 12.168910217814679 0.5372121827846188 9.419639575439735 0 1 0
34 1 17.811597363545022 2.1800555674410966 7.810476845802848 0 0 0
1527 1 12.111632655741694 13.883832094620361 -0.33353143980101546 0 0 1
1592 1 49.96450245790648 1.4016548916416487 -0.7050728080985196 0 0 1
385 1 22.704745318687312 1.7836236723379346 8.096144808069806 0 0 0
2368 1 26.941768121183213 0.22885668186175512 8.755313642233382 0 1 0
82 1 28.899933902706316 2.244068702882724 9.107477054241727 0 0 0
2581 1 25.26744541422294 23.078034505049914 15.979008723315523 0 0 0
96 1 31.5924174215296 1.0700009395507972 9.904026209674843 0 0 0
618 1 46.83252292107585 24.872484929738032 8.800857523010334 -1 0 0
2338 1 19.959366007571674 14.412799023431868 16.19849448628139 0 0 0
464 1 43.051734270253235 1.7898144904275708 7.28250351372537 0 0 0
535 1 47.69800962831174 1.987783348767922 9.264840354857728 0 0 0
2717 1 8.091857735914084 -0.19976839038717642 7.243915698429348 0 1 0
2683 1 40.24411256950313 23.623516756499235 14.082352643611397 0 0 0
282 1 0.40158054455306624 3.6859731919581966 8.349113222914735 0 0 0
659 1 4.417678458216574 4.594503950583701 6.5281511656070315 1 0 0
2723 1 2.985683673534155 3.6178389932542343 8.556094310982356 0 1 0
203 1 7.096042142899811 4.26052101964556 7.095583742428123 0 0 0
466 1 7.56795046510668 6.52100899668901 8.454064053886354 0 0 0
194 1 11.862649751817436 6.021424966611905 8.395212185032408 0 0 0
24 1 15.100471307802673 3.3968519536918933 8.058062459994273 0 0 0
449 1 19.2187793462911 3.870705353276132 9.410321600877444 0 0 0
522 1 22.122085936745584 4.069697435262649 9.608451051606771 0 0 0
130 1 23.53626662532059 5.81998811692456 6.146250728619821 0 0 0
66 1 26.548189123043105 4.567217078651887 6.602853273378816 0 0 0
605 1 28.84468445248286 3.141572444528531 6.361128760982252 0 0 0
568 1 31.41649007963606 4.262606926033943 5.8680667053298965 0 0 0
2133 1 34.21730643938366 3.6840085461401193 8.739629666037889 0 1 0
450 1 36.662712138879584 4.780132137543654 7.9888280758564285 0 0 0
388 1 44.19223823358277 4.187931263513031 7.161328818041176 0 0 0
326 1 47.10887445961448 3.28675799662856 6.9531428189972875 -1 0 0
83 1 47.50927585846175 5.991048533956331 7.544452370795206 0 0 0
1400 1 50.238940540761064 5.843187925268556 7.799857652847354 0 0 0
39 1 3.897874199366105 7.358503989997018 6.357202308192922 0 0 0
154 1 3.468330986954097 8.514688375495094 8.897487735966887 0 0 0
316 1 7.604614739006166 9.093260335996844 7.052501608795765 0 0 0
592 1 12.001687341597135 8.61349467801007 7.062247695795642 0 0 0
107 1 17.392996596030716 7.3811983990566485 6.503203968060088 0 0 0
2288 1 18.195206909358205 6.487523336028977 9.1195006207575 0 1 0
620 1 22.323874150591624 6.895673223435728 8.482466210402798 0 0 0
461 1 27.22521358666997 6.363543815139001 8.725902925958778 0 0 0
206 1 28.90776909693389 8.338535680469265 7.901239722459669 0 0 0
646 1 31.154451908718173 6.856249268444692 6.99472913789452 0 0 0
585 1 32.93204459949335 6.099412423796771 9.157287197149834 0 0 0
293 1 37.664326641377386 7.201480462213146 9.002293915859577 0 0 0
25 1 40.238972320650646 6.637683784292718 8.177766255449644 0 0 0
156 1 42.07109242127554 8.806962507178017 8.689358622485514 0 0 0
353 1 42.41636338450927 8.747317929378996 5.9858459276697324 0 0 0
793 1 45.563923931032846 5.74237227995575 9.433842055600703 0 0 0
427 1 50.48096765509645 8.4729210361332 9.288371783450572 -1 0 0
526 1 0.9332380036260961 10.508752183505422 7.639790289704685 0 0 0
245 1 6.328459485163709 10.932136107664961 9.128152853919987 0 0 0
386 1 8.84808914289216 11.77096413362821 9.213456618620633 0 0 0
251 1 9.984267660536476 10.387581252336748 6.779041106602429 0 0 0
129 1 14.146283840525088 10.069568468260412 8.002168020632462 0 0 0
554 1 16.701755151377473 10.29024246429987 6.9163507799178685 0 0 0
178 1 18.255248309154286 11.688836127597563 8.876261357585333 0 0 0
459 1 21.753785062852696 10.80633678590492 7.032451742247349 0 0 0
15 1 20.627260167444543 10.535897609019788 9.453539607159348 0 0 0
6 1 24.218725482796444 11.899697847731131 7.734014048580132 0 0 0
72 1 33.45892640940782 11.776988351862897 8.32039058720803 0 0 0
654 1 35.53123717286154 9.003525402214212 8.490372974783721 0 0 0
393 1 36.24618963680099 11.824596501401285 8.756226843323295 0 0 0
332 1 40.92711376946325 10.998658519067675 5.750847227764079 0 0 0
707 1 45.05063887026054 9.796114612416211 6.308251921321682 0 0 0
603 1 46.314981324139154 10.798493136919602 8.519851261749773 0 0 0
131 1 50.32170787712448 11.243517604317104 5.890674192647789 0 0 0
628 1 49.20011418149326 11.0426478832899 8.741226310239712 -1 0 0
295 1 0.7622133163920133 14.856618310919027 6.836269900359064 1 0 0
335 1 2.142609588152295 13.08177524084534 8.446877467202224 0 0 0
134 1 4.8764773969829545 13.072870019927368 7.9384534962578055 0 0 0
429 1 6.576277130259355 14.642464696522472 9.485752298245375 0 0 0
607 1 11.222813809765812 12.848296629933273 6.063778041779614 0 0 0
31 1 9.456184060703132 14.868234767144811 6.8051600528129645 0 0 0
446 1 9.23396389605869 14.486709506309355 9.55020983149423 0 0 0
49 1 13.167394732176811 12.823773877310053 8.059159654897137 0 0 0
640 1 14.668612576832208 14.89717181531983 6.951798596011243 0 0 0
48 1 18.61518987506716 14.259475000632975 8.874226248948387 0 0 0
105 1 23.345288523070348 14.480950377654663 8.259618699286333 0 0 0
58 1 27.76675653629576 15.49225616439919 6.79352978617661 0 0 0
1118 1 29.886493539245553 14.27742989738102 8.3393685425436 0 0 0
51 1 32.49341254063627 14.536897123073134 7.904543715868513 0 0 0
182 1 37.621510064334004 13.09974052114427 6.6374188061165 0 0 0
698 1 39.886120189182506 14.772055994609444 7.887707328247087 0 0 0
108 1 41.526645807585936 12.542593260985715 8.000808159808768 0 0 0
505 1 44.469663757893855 12.90529149981795 8.68862384606271 0 0 0
594 1 45.36752000848493 14.223432331536026 6.628400281485689 0 0 0
263 1 48.09423488415834 13.307927981361136 6.517700430319787 -1 0 0
651 1 6.631719844555372 17.473034942256405 8.897047458542383 0 0 0
112 1 10.707944451611498 17.281155777999906 6.901683528700096 0 0 0
376 1 11.218091744360635 17.44524366346944 9.740708121672618 0 0 0
625 1 16.143891005814694 15.793346815417756 9.271015170440469 0 0 0
653 1 16.656005183867826 18.269691480267074 10.251534352273078 0 0 0
1459 1 22.155104537183075 15.687379860066155 6.194459606016881 0 0 1
442 1 25.859079728271134 15.474403776544833 9.159866775989828 0 0 0
2068 1 28.64346590436006 18.12124743331966 6.230397498392575 0 0 1
91 1 37.372209704181444 17.91067879328929 8.74076364360045 0 0 0
320 1 42.09962175055183 16.324644014052655 9.061344926856451 0 0 0
519 1 44.459169764041036 16.762897328699903 7.358219002689582 0 0 0
204 1 46.80802475118682 18.040243806590567 8.204310575538281 0 0 0
637 1 48.866817312843196 16.56611838234199 9.440578317702437 0 0 0
256 1 49.743724995241266 15.405593108371225 7.202950871510182 0 0 0
398 1 1.3006979054480525 21.42867352334659 6.8472655085463074 0 0 0
214 1 1.809665069090988 19.19956805541562 8.386832299470665 0 0 0
622 1 6.658795136998509 19.409538095628434 6.67621160167298 0 0 0
311 1 6.154665291347289 22.011327423906128 6.631334537405923 0 0 0
440 1 14.937533518841684 19.945140609610984 8.644289134235382 0 0 0
234 1 19.337197421114684 18.80325077222043 9.277081699249006 0 0 0
2361 1 20.515808473763627 21.349314330671366 9.075239220784377 0 0 0
86 1 23.011600570649552 21.642737096907386 7.664463399104882 0 0 0
77 1 24.22035767622838 19.17729110677921 6.982131474072792 0 0 0
2745 1 25.580672015105 18.195575275653006 9.14828814424073 0 0 0
128 1 28.019693521691604 19.524769863553132 8.759817727136216 0 0 0
2729 1 30.835088676332077 20.3734698009464 7.331222660036476 0 0 0
587 1 35.001632124726584 18.72292274008353 9.15171840130559 0 0 0
2452 1 33.30251335179874 18.67925906207955 6.9431636007819 0 0 0
3123 1 39.04189131865495 20.0611658517115 9.395301158501015 0 0 0
2118 1 41.603958577420954 21.35317140383943 7.0146869303297725 0 0 0
2575 1 43.61989007421707 21.300515649956658 9.04597285591663 0 0 0
463 1 44.957713943015875 20.65727523658023 6.51858907083607 0 0 0
601 1 48.19863718826342 19.7331707126664 6.569808368651061 -1 0 0
822 1 2.447174643466902 23.555961163002326 8.285632379225813 0 0 0
642 1 4.969781733505013 22.133992791269634 9.166719344795862 0 0 0
352 1 8.688183329131325 23.370411320800468 6.611947098439639 0 0 0
533 1 10.57512239207685 23.954017508400153 8.77813533377709 0 0 0
79 1 13.059641449465104 23.69838365889362 7.56812792081452 0 0 0
422 1 15.663228102085615 22.422703597776703 8.802770512939563 0 0 0
543 1 18.320638341367765 22.886909110069325 7.92109750150623 0 0 0
911 1 27.80570148931809 23.75134002135751 7.077225337379813 0 0 0
2485 1 30.214867247509268 24.605403378669653 6.85564092849672 0 0 0
52 1 31.95008062189815 22.928208884045866 8.014471933263195 0 0 0
329 1 34.83130864363345 23.052128645746116 8.371462203357035 0 0 0
4084 1 39.28627222054044 22.47620370743554 7.882987614818321 0 0 1
1176 1 -0.18318515246093015 21.395420173862068 16.323149939827886 1 0 0
110 1 50.04102994470114 22.249958023936447 7.1686167688462765 -1 0 0
2884 1 1.6559888835329342 0.23968009301625381 13.809856166339555 1 1 0
1301 1 3.967897549419046 1.234921472763611 12.304006545831262 0 0 0
2308 1 11.009919071879937 1.8291178864695334 11.509588317182502 0 1 0
399 1 37.827047863426515 19.99118390898781 13.873734149289197 0 0 0
706 1 19.28509851181907 0.5455319110628092 11.98809629490173 0 0 0
2406 1 24.375132134689448 0.2417712321433524 9.66216935218082 0 1 0
2952 1 23.630368039130914 0.9864836250350864 12.27852069009816 0 1 0
433 1 34.01658548013937 2.144874535846498 10.841521135392469 0 0 0
2350 1 36.05587121153974 0.3902471509476102 11.233951541015402 0 1 0
291 1 38.99301311485981 1.016673693065103 10.462281239963 0 0 0
2927 1 40.96474330835335 0.5117638906911091 12.710106931205399 0 1 0
174 1 43.58042546193376 1.5847706016826724 11.700583249552697 0 0 0
140 1 41.934832906455966 2.2767943812772002 9.71129913464331 0 0 0
304 1 38.146737099697575 22.33198287877642 15.33678790446357 0 0 0
2430 1 50.60123717309929 2.0055689340236085 9.803904905082158 0 1 0
619 1 -0.6903800913236686 2.0029303190216288 12.67757491050384 0 0 0