
# Create simulation box of size 50 x 50 x 50 Angstrom
#
lattice	            sc 1
Lattice spacing in x,y,z = 1.0000000 1.0000000 1.0000000
region 	            all block 0 50 0 50 0 50 units box
create_box          1 all
Created orthogonal box = (0.0000000 0.0000000 0.0000000) to (50.000000 50.000000 50.000000)
  1 by 2 by 3 MPI processor grid

# fill box with 4175 randomly distributed atoms
#
create_atoms        1 random 4175 63782 all
Created 4175 atoms
  create_atoms CPU = 0.001 seconds
mass                1 18.015

# Define potential
#
pair_style          sw
pair_coeff          * * ML_mW.sw mW
Reading sw potential file ML_mW.sw with DATE: 2019-02-27

# Run minimization
#
minimize            1.0e-8 1.0e-8 10000 1000
WARNING: Using 'neigh_modify every 1 delay 0 check yes' setting during minimization (../min.cpp:187)
Neighbor list info ...
  update every 1 steps, delay 0 steps, check yes
  max neighbors/atom: 2000, page size: 100000
  master list distance cutoff = 6.0032907
  ghost atom cutoff = 6.0032907
  binsize = 3.0016454, bins = 17 17 17
  1 neighbor lists, perpetual/occasional/extra = 1 0 0
  (1) pair sw, perpetual
      attributes: full, newton on
      pair build: full/bin/atomonly
      stencil: full/bin/3d
      bin: standard
Per MPI rank memory allocation (min/avg/max) = 4.255 | 4.258 | 4.261 Mbytes
Step Temp E_pair E_mol TotEng Press 
       0            0    7792709.3            0    7792709.3    5898794.3 
     630            0   -45180.336            0   -45180.336   -154.07449 
Loop time of 1.18205 on 6 procs for 630 steps with 4175 atoms

99.4% CPU use with 6 MPI tasks x no OpenMP threads

Minimization stats:
  Stopping criterion = max force evaluations
  Energy initial, next-to-last, final = 
      7792709.32924461  -45180.0188663597   -45180.336116598
  Force two-norm initial, final = 2.0191930e+08 4.9721331
  Force max component initial, final = 1.0948746e+08 0.73126211
  Final line search alpha, max atom move = 0.053306038 0.038980685
  Iterations, force evaluations = 630 1000

MPI task timing breakdown:
Section |  min time  |  avg time  |  max time  |%varavg| %total
---------------------------------------------------------------
Pair    | 0.96404    | 1.0362     | 1.0868     |   3.7 | 87.66
Neigh   | 0.024214   | 0.024795   | 0.025245   |   0.2 |  2.10
Comm    | 0.049734   | 0.10068    | 0.17239    |  12.0 |  8.52
Output  | 0          | 0          | 0          |   0.0 |  0.00
Modify  | 0          | 0          | 0          |   0.0 |  0.00
Other   |            | 0.02035    |            |       |  1.72

Nlocal:        695.833 ave         704 max         685 min
Histogram: 1 1 0 0 1 0 0 1 0 2
Nghost:        1494.17 ave        1515 max        1468 min
Histogram: 1 1 0 0 0 0 1 1 1 1
Neighs:        0.00000 ave           0 max           0 min
Histogram: 6 0 0 0 0 0 0 0 0 0
FullNghs:      19997.0 ave       20462 max       19320 min
Histogram: 1 1 0 0 0 0 0 2 0 2

Total # of neighbors = 119982
Ave neighs/atom = 28.738204
Neighbor list builds = 26
Dangerous builds = 0

# Add velocity/set timestep
#
velocity            all create ${TEMP} 120598 rot yes dist gaussian
velocity            all create 210 120598 rot yes dist gaussian
timestep            5.0

# Define output
#
compute	            1 all msd
thermo	            100
thermo_style        custom step temp press vol etotal ke pe c_1[4] density

# Neighbor lists
#
neigh_modify        delay 0 every 1 check yes

# Set fixes
#
fix                 1 all momentum 10 linear 1 1 1 rescale
fix                 2 all nve
fix                 3 all temp/csvr ${TEMP} ${TEMP} 500.0 928347
fix                 3 all temp/csvr 210 ${TEMP} 500.0 928347
fix                 3 all temp/csvr 210 210 500.0 928347
fix                 4 all press/berendsen iso ${PRES} ${PRES} 1000.0 modulus 20000
fix                 4 all press/berendsen iso -450 ${PRES} 1000.0 modulus 20000
fix                 4 all press/berendsen iso -450 -450 1000.0 modulus 20000

# Run 0.5 ns equilibration
#
dump                1 all custom 1000 eq.${NAME}.dump id type x y z vx vy vz
dump                1 all custom 1000 eq.liquid_density_MLmW.dump id type x y z vx vy vz
run                 100000
Per MPI rank memory allocation (min/avg/max) = 3.506 | 3.508 | 3.511 Mbytes
Step Temp Press Volume TotEng KinEng PotEng c_1[4] Density 
     630          210    801.42152       125000   -42567.537    2612.7992   -45180.336 2.7295415e-33   0.99914793 
     700    134.13935   -346.20735    125864.35   -41761.804    1668.9485   -43430.752   0.24380657   0.99228645 
     800      163.736   -646.66699    126129.81   -41030.888    2037.1871   -43068.075   0.55484503   0.99019807 
     900    186.31107   -208.30108    126106.86    -40623.42    2318.0639   -42941.484   0.92648783   0.99037825 
    1000    191.75085   -465.07881    126074.79   -40362.545    2385.7452    -42748.29    1.3504137    0.9906302 
    1100     201.8137    -370.2493    126286.79   -40193.994    2510.9461    -42704.94    1.7724517   0.98896715 
    1200    201.14683   -340.31279       126623   -40234.033     2502.649   -42736.682    2.1628039   0.98634126 
    1300    204.64589   -331.41215    126900.99   -40239.958     2546.184   -42786.142    2.4736795   0.98418056 
    1400    205.69271   -401.73642       127179   -40270.928    2559.2084   -42830.137    2.7327296   0.98202923 
    1500    207.51049   -320.53694       127552   -40241.665     2581.825    -42823.49    3.0568559   0.97915747 
    1600    211.71728   -556.96932    127626.85   -40174.301    2634.1654   -42808.466    3.4267769   0.97858319 
    1700    210.23992   -370.78991    127921.04   -40219.194    2615.7842   -42834.978    3.8373238   0.97633267 
    1800    209.33708   -541.35787    127928.49   -40324.022    2604.5512   -42928.573    4.0336393   0.97627582 
    1900      206.945   -391.19939    128176.52   -40338.592    2574.7892   -42913.381    4.2182991   0.97438669 
    2000    212.67903   -475.82297    128363.37   -40313.232    2646.1314   -42959.363    4.4935951   0.97296829 
    2100     210.8926   -420.90588    128357.13   -40284.834    2623.9049   -42908.739    4.7273482   0.97301562 
    2200    207.49295   -504.92783    128536.14   -40327.643    2581.6068    -42909.25    4.9825418   0.97166051 
    2300    214.05883   -532.82189    128501.14   -40325.729    2663.2987   -42989.028    5.2141065   0.97192515 
    2400    216.26763     -571.904    128294.15   -40353.232    2690.7805   -43044.012    5.3742564   0.97349326 
    2500    216.43305   -309.52166    128678.41   -40319.169    2692.8387   -43012.008    5.5629696   0.97058622 
    2600    217.04699   -355.10663    128830.01   -40292.328    2700.4772   -42992.805    5.7695264   0.96944408 
    2700    220.33816   -355.70717    128853.86   -40342.941    2741.4256   -43084.367     6.106445   0.96926462 
    2800    219.25516    -560.6185    128850.47   -40355.491    2727.9511   -43083.442    6.4546455   0.96929013 
    2900    213.84899   -449.56992    128809.63   -40435.474    2660.6879   -43096.162    6.5763091   0.96959743 
    3000    211.94442   -506.92654    128849.55   -40469.277    2636.9915   -43106.269    6.6072754    0.9692971 
    3100    209.83385   -464.72291    128929.68   -40455.896     2610.732   -43066.628    6.8216871   0.96869462 
    3200    210.12547   -355.04699    129049.06   -40499.783    2614.3604   -43114.143    7.0166315   0.96779856 
    3300      211.234   -419.76466     129342.9   -40495.748    2628.1525     -43123.9    7.2122149   0.96559991 
    3400     212.8066   -463.38769    129311.49   -40549.746    2647.7186   -43197.465     7.557607   0.96583445 
    3500    211.21073   -325.88486    129251.53    -40568.13     2627.863   -43195.993    7.7674618   0.96628249 
    3600     208.4759   -322.63838    129357.41   -40624.674    2593.8365    -43218.51    7.9073007   0.96549162 
    3700    206.43499   -373.02666    129600.13   -40690.522    2568.4438   -43258.966    8.1452667   0.96368341 
    3800    208.96442   -481.30226    129538.56   -40645.241    2599.9146   -43245.155     8.205345   0.96414143 
    3900    209.77864   -490.49767    129673.02   -40678.482    2610.0451   -43288.528     8.202413   0.96314171 
    4000    209.01967    -628.5318    129450.57   -40683.602    2600.6021   -43284.204     8.408519   0.96479675 
    4100    210.48172   -456.35871    129494.16   -40677.991    2618.7928   -43296.783    8.6127468   0.96447198 
    4200    208.57515   -263.58334    129707.84   -40686.131    2595.0714   -43281.202    8.7119033   0.96288311 
    4300    210.30591   -445.72528    129792.04   -40681.488    2616.6053   -43298.093    8.8034726   0.96225849 
    4400    207.88532   -272.48896    129938.29   -40689.151    2586.4886   -43275.639    8.9265246   0.96117545 
    4500    209.11714   -461.55812    130016.33    -40710.62    2601.8148   -43312.435     9.164125   0.96059848 
    4600    206.25224   -402.10466    129980.66   -40776.989      2566.17   -43343.159    9.3116598    0.9608621 
    4700    213.64265   -435.06605    130160.18     -40701.1    2658.1207   -43359.221    9.4369909   0.95953687 
    4800    208.03977   -439.90962    130036.06   -40769.627    2588.4103   -43358.037    9.4693485   0.96045275 
    4900    213.40018   -340.37492     130057.5   -40664.086    2655.1039    -43319.19    9.6525864   0.96029439 
    5000    212.97159   -322.13412    130082.17   -40638.406    2649.7714   -43288.177    9.7151816   0.96011231 
    5100    212.93864   -566.71964    130095.77   -40709.928    2649.3615   -43359.289    9.7943515   0.96001194 
    5200    213.16268   -647.71554    130107.67   -40775.888     2652.149   -43428.037    9.9757139   0.95992414 
    5300    212.85502   -470.60278    130115.76   -40757.165    2648.3211   -43405.486    10.159981   0.95986447 
    5400    211.31409   -428.13094    130129.37   -40798.786     2629.149   -43427.935    10.252868   0.95976402 
    5500    207.65317     -445.745    130290.59   -40793.219    2583.6002   -43376.819    10.379569   0.95857643 
    5600    210.73051   -347.81346    130314.51   -40807.764    2621.8882   -43429.652    10.429724   0.95840051 
    5700    211.42021   -470.85589    130354.83   -40809.344    2630.4693   -43439.814    10.659091   0.95810406 
    5800    212.15602   -631.48219     130290.4   -40851.865    2639.6242   -43491.489    10.611476   0.95857786 
    5900    206.67141   -386.63379    130262.81   -40889.538    2571.3853   -43460.923    10.771493   0.95878091 
    6000    206.20875   -354.94471    130228.23   -40897.663    2565.6289   -43463.291     10.91791   0.95903544 
    6100    209.74713   -573.29424    130202.61   -40845.362    2609.6531   -43455.015    10.991177    0.9592242 
    6200    207.84503   -451.91979    129934.86   -40911.813    2585.9873     -43497.8    11.036606   0.96120081 
    6300     211.3288   -329.79941    130071.69   -40870.275    2629.3321   -43499.607    11.017148   0.96018966 
    6400    211.32749   -523.44398     130032.7   -40855.559    2629.3158   -43484.875    11.183671    0.9604776 
    6500    212.65609   -368.90881    130101.96   -40821.259     2645.846   -43467.105    11.217359   0.95996626 
    6600    207.55197    -495.1054     130117.5   -40896.719     2582.341    -43479.06    11.301477   0.95985163 
    6700    207.39353   -484.11364    130200.43   -40954.642    2580.3697   -43535.012    11.549149   0.95924025 
    6800    210.31063   -455.55858    130345.83   -40876.061    2616.6641   -43492.725    11.649763   0.95817024 
    6900    209.55387   -380.57544    130415.22   -40837.382    2607.2485   -43444.631    11.762466   0.95766037 
    7000    216.02043   -522.39995    130279.11   -40843.678    2687.7048   -43531.383    11.854107   0.95866092 
    7100    209.31943   -310.12914     130311.5   -40876.527    2604.3316   -43480.858    11.980891   0.95842261 
    7200    210.74674   -288.37857    130423.45    -40928.75    2622.0901    -43550.84    12.190509   0.95759999 
    7300    207.28653   -388.72211    130532.48   -40983.294    2579.0385   -43562.332    12.252499   0.95680011 
    7400    208.18304   -279.60704    130610.71   -41012.692    2590.1928   -43602.885    12.279102   0.95622701 
    7500    206.12349   -478.43111    130704.34   -40971.622    2564.5681    -43536.19    12.320596   0.95554207 
    7600    205.96513   -509.11602    130571.01   -41056.829    2562.5977   -43619.426    12.484423   0.95651778 
    7700    207.13469   -326.69334    130625.19   -40965.061    2577.1494    -43542.21    12.689316     0.956121 
    7800    206.58071   -448.60018    130724.15   -40940.165    2570.2568   -43510.422    12.708046   0.95539721 
    7900    204.92204   -459.68461     130630.4   -41016.354    2549.6198   -43565.974    12.751342    0.9560829 
    8000    210.29129   -513.00435    130812.76   -40996.286    2616.4234   -43612.709    12.799879    0.9547501 
    8100    208.19363   -400.10217    130710.89   -41067.095    2590.3245    -43657.42    12.969288   0.95549416 
    8200    205.25884    -306.0593    130785.55   -41081.378    2553.8102   -43635.188    13.033081   0.95494871 
    8300    208.54367   -488.78297    131071.44   -41076.878    2594.6798   -43671.557    13.178621   0.95286578 
    8400    206.95733   -347.88819    130962.84   -41035.349    2574.9426   -43610.292    13.172619   0.95365595 
    8500    210.87945   -516.78277    131157.52   -40976.355    2623.7412   -43600.096    13.379167   0.95224039 
    8600    210.41787   -470.08391    131254.21    -40998.01    2617.9984   -43616.009    13.539306   0.95153892 
    8700     212.4787   -421.85115    131202.38   -40990.805    2643.6389   -43634.444    13.575217   0.95191481 
    8800    210.29899    -612.2885    131376.42   -41049.904    2616.5192   -43666.423    13.694472   0.95065375 
    8900    210.38452   -540.93099    131330.02    -41125.01    2617.5834   -43742.593    13.750124   0.95098968 
    9000    208.75806   -486.09747     131222.9   -41085.534    2597.3471   -43682.882    13.877602   0.95176596 
    9100    208.82732   -454.59464    131211.76   -41157.511    2598.2089   -43755.719    13.948767   0.95184678 
    9200    207.78713   -410.54998    131224.68   -41068.157    2585.2669   -43653.424    14.052894   0.95175308 
    9300    208.80354   -315.71748    131257.06   -41124.242     2597.913   -43722.155    14.163683   0.95151829 
    9400    210.18115   -431.30064     131237.4   -41086.339    2615.0531   -43701.392    14.106721   0.95166083 
    9500     207.9025    -510.7778    131155.39   -41105.973    2586.7023   -43692.675    14.224227   0.95225589 
    9600      210.831   -432.48791    131448.51   -41067.326    2623.1384   -43690.465    14.363746   0.95013242 
    9700    211.91832   -447.98186    131524.42    -41010.73    2636.6668   -43647.397    14.462877   0.94958404 
    9800    210.76781   -409.05769    131504.61   -41093.045    2622.3523   -43715.397    14.431526   0.94972711 
    9900    206.94993   -560.80857    131499.16   -41179.704    2574.8505   -43754.555    14.586727   0.94976646 
   10000    208.35572   -550.44542    131600.44    -41174.35    2592.3413   -43766.692    14.472665   0.94903551 
   10100    210.68509    -475.5086    131518.25   -41155.103    2621.3231   -43776.426    14.587876   0.94962858 
   10200    205.67074     -298.951    131453.29   -41205.161     2558.935   -43764.096    14.752044   0.95009789 
   10300    204.98724   -486.13906    131607.69   -41195.859     2550.431    -43746.29    14.809521   0.94898324 
   10400    214.79625   -469.91147    131523.18   -41142.006    2672.4737   -43814.479    14.844465   0.94959299 
   10500    208.44722   -454.56371    131490.08   -41118.919    2593.4797   -43712.399    15.006059   0.94983203 
   10600    209.45835   -347.03873    131524.43    -41056.13    2606.0601    -43662.19    15.012507   0.94958395 
   10700     211.8719    -488.3781    131712.82   -41039.756    2636.0892   -43675.845    15.114373   0.94822579 
   10800    212.20629   -469.76797    131575.75   -41022.164    2640.2497   -43662.414    15.330993   0.94921359 
   10900       213.84   -419.32558    131537.02    -41054.97    2660.5761   -43715.546    15.429836   0.94949307 
   11000    213.67915   -653.86791    131528.76   -41059.908    2658.5749   -43718.483    15.295023   0.94955275 
   11100    209.11724   -496.01689    131593.15   -41107.462     2601.816   -43709.278     15.32237   0.94908808 
   11200    209.44668   -445.11921    131405.33   -41097.978    2605.9149   -43703.893    15.433366   0.95044464 
   11300    213.02256   -319.26198    131557.65    -41081.98    2650.4057   -43732.386    15.519515   0.94934416 
   11400     212.6983   -426.39827    131729.12    -41096.98    2646.3713   -43743.351    15.648942   0.94810847 
   11500     207.3353   -496.83757    131661.27   -41140.511    2579.6453   -43720.157    15.856583   0.94859707 
   11600    209.42883     -281.643    131708.45   -41130.323    2605.6928   -43736.016    15.995931   0.94825721 
   11700    213.00812   -348.09684    131796.48   -41030.167     2650.226   -43680.392    15.792245   0.94762389 
   11800    208.49175   -432.47296    131938.42   -41100.328    2594.0337   -43694.362    15.956002   0.94660439 
   11900    210.60016    -470.2454    131819.96   -41122.019    2620.2664   -43742.285    16.070919   0.94745508 
   12000    206.46733   -424.78397    131872.49   -41107.849    2568.8461   -43676.695    16.153316   0.94707764 
   12100    209.21658   -359.56985     131846.9   -41057.181     2603.052   -43660.233    16.178082   0.94726152 
   12200    213.74935   -482.34401    131729.55   -41070.765    2659.4483   -43730.213    16.139311   0.94810534 
   12300    212.53653     -361.737    131874.58   -41091.874    2644.3585   -43736.232    16.091016   0.94706267 
   12400    210.72454    -347.2893    131841.39   -41081.469    2621.8139   -43703.283    16.266549   0.94730111 
   12500    206.29759   -556.32971    131820.32   -41190.849    2566.7343   -43757.583    16.610829   0.94745251 
   12600    212.66536   -479.76885    131877.36   -41104.763    2645.9614   -43750.724    16.662165   0.94704274 
   12700    213.06805   -450.26799    131851.59   -41088.514    2650.9716   -43739.485    16.680866   0.94722778 
   12800    216.72576   -385.47316    132016.26   -41064.259    2696.4805    -43760.74    16.825436   0.94604626 
   12900    210.89567   -440.30679     132128.1   -41120.089    2623.9431   -43744.032    16.747631   0.94524547 
   13000    215.99168   -441.59883    132144.41   -41076.175    2687.3471   -43763.522    16.867058    0.9451288 
   13100    214.91142   -396.79432    132157.77   -41083.898    2673.9067   -43757.805    17.028224    0.9450333 
   13200    214.76194    -361.5696    132290.92   -41025.488    2672.0468   -43697.534    17.148014   0.94408214 
   13300    216.60099   -390.09278    132457.15   -41073.185    2694.9281   -43768.113    17.292251   0.94289735 
   13400    208.17935   -464.65989    132623.94   -41168.254    2590.1468   -43758.401    17.251862    0.9417115 
   13500    212.18722   -399.91717    132582.41   -41213.987    2640.0125       -43854    17.222701   0.94200646 
   13600    208.76397   -399.48038    132553.33   -41253.508    2597.4207   -43850.928    17.252551   0.94221315 
   13700    206.98407   -573.76498    132586.96   -41262.567    2575.2753   -43837.842    17.254412   0.94197415 
   13800    212.45534   -310.69842    132425.64   -41185.876    2643.3484   -43829.224    17.489299    0.9431217 
   13900    212.46603   -549.35378    132405.12   -41223.737    2643.4813   -43867.219    17.550589   0.94326781 
   14000    210.34084   -373.40985    132562.69   -41204.926    2617.0399   -43821.966    17.610796   0.94214659 
   14100    210.68618   -491.37027    132637.82   -41208.571    2621.3366   -43829.907    17.641843   0.94161296 
   14200    208.94592   -500.26324    132749.67   -41256.236    2599.6845   -43855.921    17.673878    0.9408196 
   14300    206.66726   -440.63411    132642.76   -41301.207    2571.3336   -43872.541    17.562821   0.94157791 
   14400    209.42759   -659.14877    132712.49   -41267.858    2605.6774   -43873.535      17.6407    0.9410832 
   14500    206.74981   -363.83175    132810.86   -41209.033    2572.3607   -43781.393    17.858485   0.94038611 
   14600    212.37527   -509.99778    132687.25   -41215.844    2642.3521   -43858.196    17.861693   0.94126216 
   14700    209.69976   -538.51684    132748.58   -41251.394    2609.0636   -43860.458      17.9298   0.94082735 
   14800    209.96037   -380.48506    132671.38   -41286.516    2612.3061   -43898.822      18.0804   0.94137477 
   14900    206.30344   -459.18707    132757.79   -41356.067     2566.807   -43922.874    17.979602   0.94076204 
   15000    202.23511   -396.28354    132877.79   -41352.659    2516.1892   -43868.848    18.151565   0.93991247 
   15100    203.70658   -497.31923    132914.65   -41382.058    2534.4971   -43916.555    18.288772   0.93965181 
   15200    214.09623   -370.28199       132830   -41314.402    2663.7641   -43978.166    18.387878   0.94025065 
   15300    210.05405   -476.73244    132827.89   -41330.892    2613.4717   -43944.364    18.329158   0.94026556 
   15400    206.63291   -516.02341    132736.01   -41309.961    2570.9062   -43880.868    18.151228   0.94091639 
   15500    204.95966   -498.85285    132677.94   -41295.242    2550.0878   -43845.329    18.338807   0.94132822 
   15600    208.95401   -437.97462    132876.64   -41233.647    2599.7851   -43833.432    18.387199   0.93992063 
   15700     208.5813   -441.09603       132818   -41321.389    2595.1479   -43916.537    18.340985   0.94033555 
   15800    208.91492   -467.53929     132834.6   -41320.345    2599.2988   -43919.644    18.545402   0.94021804 
   15900    208.86526   -525.17614     132928.7   -41357.021    2598.6809   -43955.702    18.437736   0.93955247 
   16000    211.01013   -415.16107    132984.85   -41306.195    2625.3671   -43931.563    18.367535    0.9391558 
   16100    211.26611   -323.64262    133088.95   -41254.618    2628.5521    -43883.17     18.40493    0.9384212 
   16200    209.39274   -479.88841       133076   -41328.091    2605.2438   -43933.335    18.441302   0.93851254 
   16300    209.00193    -483.9721    133003.95   -41341.486    2600.3813   -43941.867    18.464034   0.93902092 
   16400    210.40128   -470.10506    132866.28   -41260.633     2617.792   -43878.425    18.453229   0.93999389 
   16500    210.05614   -539.07585    132856.25   -41254.768    2613.4977   -43868.265    18.582377   0.94006485 
   16600    209.04647   -486.85066    132925.45   -41240.856    2600.9356   -43841.791    18.639032   0.93957549 
   16700    209.45599   -615.83486    132905.99   -41277.829    2606.0307    -43883.86    18.709617     0.939713 
   16800    208.67555   -441.85987    132731.74   -41265.281    2596.3206   -43861.601    18.933556    0.9409467 
   16900    212.18808   -383.11613    132904.98   -41222.933    2640.0231   -43862.956    18.826289   0.93972016 
   17000    211.20759   -513.21236    132936.45   -41241.867    2627.8239   -43869.691    18.855181    0.9394977 
   17100    215.14291   -349.72218    132905.47   -41172.611    2676.7868   -43849.398    18.877722    0.9397167 
   17200    209.86783    -502.8417    132669.31   -41193.785    2611.1548   -43804.939    19.042076   0.94138948 
   17300    208.58412   -417.27819    132603.96   -41247.227     2595.183    -43842.41    19.037499   0.94185342 
   17400     210.5234   -661.06758    132537.91   -41270.677    2619.3113   -43889.989    19.124472    0.9423228 
   17500    211.07607   -436.82665    132635.96    -41241.74    2626.1876   -43867.928    19.224002   0.94162616 
   17600    213.70201   -563.87805    132607.51   -41231.594    2658.8592   -43890.453    19.190752   0.94182819 
   17700    208.60243   -548.64506    132364.93    -41258.87    2595.4108   -43854.281    19.231306   0.94355423 
   17800    210.48192   -618.36395     132510.3   -41247.475    2618.7953    -43866.27    19.163102   0.94251913 
   17900    211.30523   -505.18683     132609.6   -41220.068    2629.0388   -43849.106     19.29056   0.94181334 
   18000    213.67478   -369.53822     132673.7   -41168.354    2658.5204   -43826.874     19.44063   0.94135835 
   18100    209.19625   -461.73205    132544.87   -41259.444     2602.799   -43862.243     19.42878   0.94227332 
   18200    210.15729   -560.90658     132585.5   -41266.589    2614.7563   -43881.345    19.545469   0.94198452 
   18300    214.33988   -384.53741    132633.51   -41194.918    2666.7957   -43861.713    19.533138   0.94164357 
   18400    211.57034   -532.90194    132516.78   -41263.943    2632.3372    -43896.28    19.514388   0.94247302 
   18500    210.24054   -492.09777    132523.34   -41230.724     2615.792   -43846.516    19.637346   0.94242635 
   18600    210.05672   -417.77684    132534.57   -41290.746     2613.505   -43904.251    19.706899    0.9423465 
   18700    211.88672   -475.49375    132606.78   -41260.824    2636.2736   -43897.098    19.741008   0.94183337 
   18800    211.41764   -509.39616    132552.26    -41237.59    2630.4373   -43868.028    19.798811   0.94222076 
   18900    214.95593   -534.19776     132612.8   -41287.697    2674.4605   -43962.157    19.885472   0.94179065 
   19000    211.02828   -408.83175    132650.02   -41279.389     2625.593   -43904.982     19.84482   0.94152636 
   19100    206.28357   -570.70517    132733.28   -41323.356    2566.5597   -43889.916    19.967153   0.94093577 
   19200    213.67757   -442.22301     132745.8   -41299.935    2658.5552    -43958.49    19.886687   0.94084703 
   19300    212.98782   -402.81572    132787.77   -41248.417    2649.9734    -43898.39    19.892562   0.94054963 
   19400    207.89419   -300.63284    133053.78   -41260.765    2586.5989   -43847.364    20.009756   0.93866926 
   19500    212.69231   -689.36063    133046.61   -41255.511    2646.2967   -43901.808    20.190765   0.93871984 
   19600    212.49169   -496.95317    132926.01   -41292.909    2643.8006    -43936.71    20.214312   0.93957148 
   19700    210.24635   -360.80746    132849.38   -41267.309    2615.8643   -43883.173    20.182262   0.94011346 
   19800    215.12732    -463.3483    132948.06   -41313.128    2676.5928   -43989.721    20.280316   0.93941567 
   19900     208.8709   -449.43276     132959.7   -41318.856    2598.7511   -43917.607     20.36724   0.93933344 
   20000    206.88785   -445.05398    132905.79   -41363.501    2574.0782   -43937.579    20.427248   0.93971445 
   20100    209.90505   -427.20507    133014.47    -41318.52    2611.6178   -43930.138    20.412257   0.93894666 
   20200    212.67005   -414.55578    133087.86   -41358.678    2646.0197   -44004.698    20.431143   0.93842887 
   20300    210.38043   -411.05851    133334.76   -41378.855    2617.5325   -43996.388     20.46879   0.93669116 
   20400    206.15177   -454.28769    133330.73   -41376.976      2564.92   -43941.896    20.363195   0.93671945 
   20500    208.92972   -425.65539    133486.62   -41345.965    2599.4829   -43945.448     20.34609   0.93562557 
   20600    208.31404   -510.38956    133651.04   -41378.731    2591.8227   -43970.554    20.636834   0.93447452 
   20700    212.41453   -386.66211    133516.57     -41311.6    2642.8406   -43954.441    20.673703    0.9354157 
   20800    213.16239   -492.16834    133428.69   -41320.037    2652.1453   -43972.182    20.673517   0.93603174 
   20900     208.3735   -471.58685    133451.32    -41363.87    2592.5625   -43956.433     20.72451     0.935873 
   21000    207.09131   -432.59722    133702.94   -41441.651    2576.6096   -44018.261    20.779117    0.9341118 
   21100    208.51722   -361.47952    133540.54   -41455.608    2594.3506   -44049.959    20.758094   0.93524778 
   21200    206.65192   -452.90128    133428.75   -41443.034    2571.1428   -44014.177    20.769755    0.9360313 
   21300     207.9479   -371.70691    133415.76   -41455.054    2587.2673   -44042.321    20.646905   0.93612245 
   21400    210.16026   -448.54608    133497.33   -41419.236    2614.7932   -44034.029    20.791912    0.9355505 
   21500    207.97474   -452.29607    133406.53   -41413.023    2587.6011   -44000.624    20.996567   0.93618726 
   21600    211.22127    -584.5492    133394.74   -41349.539    2627.9942   -43977.533    21.005431   0.93626996 
   21700    211.60274   -385.74061    133342.81    -41318.54    2632.7404   -43951.281    21.065991   0.93663458 
   21800    211.03303    -406.5969    133392.99   -41309.604    2625.6521   -43935.256    21.097576   0.93628228 
   21900    212.38128   -651.28812     133309.8   -41332.746    2642.4269   -43975.173    21.048592   0.93686654 
   22000    206.65927   -396.06151    133175.91   -41377.758    2571.2342   -43948.993    20.983392   0.93780843 
   22100    210.44663   -327.31168    133300.11   -41320.222    2618.3562   -43938.578    21.066335   0.93693463 
   22200    206.83978   -446.72795    133356.14   -41349.132    2573.4801   -43922.612    21.240964   0.93654096 
   22300    214.67136   -383.84707    133476.82   -41328.749    2670.9198   -43999.668    21.394864   0.93569421 
   22400    213.82948   -556.72628    133368.54   -41306.235    2660.4453   -43966.681    21.628484   0.93645395 
   22500    211.47816    -448.3218     133488.4   -41316.125    2631.1904   -43947.316    21.542973   0.93561307 
   22600    213.48875   -380.56719    133476.65   -41298.838     2656.206   -43955.044    21.431641   0.93569541 
   22700    210.45272   -480.06873       133530   -41312.267     2618.432   -43930.699    21.454109    0.9353216 
   22800    211.09212   -413.33606     133421.6   -41298.975    2626.3872   -43925.362    21.487686   0.93608153 
   22900     208.6582   -449.13034    133470.48   -41336.981    2596.1047   -43933.086    21.522607   0.93573865 
   23000    211.02908   -421.31788    133432.59   -41318.227    2625.6029    -43943.83    21.513134   0.93600443 
   23100    207.42617   -469.40961    133524.35   -41422.372    2580.7759   -44003.148    21.614357   0.93536114 
   23200    206.63699   -465.13258    133625.55   -41357.477     2570.957   -43928.434     21.70047   0.93465274 
   23300    209.20021    -430.2966    133604.22   -41403.733    2602.8484   -44006.581    21.670841   0.93480198 
   23400    213.75158   -415.53246    133541.19   -41334.128    2659.4761   -43993.604    21.967112   0.93524323 
   23500    213.66904   -511.23631    133568.42   -41370.311     2658.449    -44028.76    22.012529   0.93505256 
   23600    211.86649   -279.09591    133534.53   -41356.875    2636.0219   -43992.897    21.944532   0.93528987 
   23700    208.57459   -400.54136    133419.95   -41391.984    2595.0645   -43987.048    21.801103   0.93609308 
   23800    205.67377   -366.02214     133553.1    -41442.08    2558.9727   -44001.053    21.841661   0.93515984 
   23900    210.16447   -440.99517    133721.03   -41453.661    2614.8456   -44068.506    21.875718   0.93398539 
   24000    210.66183   -423.35226    133661.25   -41394.481    2621.0337   -44015.515    22.042071   0.93440311 
   24100    209.61939    -292.5196    133722.67   -41398.441    2608.0638   -44006.505    22.164597   0.93397393 
   24200    208.57198   -474.25687    133732.88   -41455.569    2595.0319   -44050.601    22.094809   0.93390264 
   24300    205.63488   -413.04728     133729.9   -41417.008    2558.4889   -43975.497     22.07116   0.93392346 
   24400    203.85192   -348.46219    133670.69   -41449.581    2536.3055   -43985.886     22.01523   0.93433717 
   24500    209.63847     -438.327    133564.15   -41412.734    2608.3012   -44021.035    22.134441   0.93508245 
   24600    210.47533   -334.40707    133605.28   -41396.763    2618.7133   -44015.476    22.190178   0.93479457 
   24700    211.14222   -352.04908    133771.72   -41415.332    2627.0107   -44042.343    22.179956   0.93363153 
   24800    213.11246   -526.05811    133936.34   -41412.746    2651.5241   -44064.271    22.230136   0.93248399 
   24900    208.40568    -413.2651    133708.02   -41376.017    2592.9628    -43968.98    22.244481   0.93407631 
   25000    212.22043   -421.14273    133699.85   -41355.384    2640.4256   -43995.809    22.251536   0.93413334 
   25100    210.24402   -502.19216    133860.72   -41364.011    2615.8353   -43979.846    22.237559   0.93301073 
   25200    208.21342   -540.69616    133897.93   -41405.912    2590.5708   -43996.483    22.208551    0.9327515 
   25300    207.67572   -435.62928    133869.69   -41415.792    2583.8807   -43999.673    22.083715   0.93294824 
   25400    211.34061   -485.38488     133809.5   -41413.924    2629.4789   -44043.403    22.297658   0.93336787 
   25500    210.50961   -408.29064    133848.42   -41375.005    2619.1397   -43994.145    22.477979   0.93309648 
   25600    210.07002   -442.89056    133912.69   -41459.876    2613.6705   -44073.546    22.492512   0.93264868 
   25700    206.36912   -355.52482    133927.92   -41481.938    2567.6242   -44049.563    22.498638    0.9325426 
   25800    211.08098   -435.07393     134115.4   -41464.837    2626.2487   -44091.086     22.53608   0.93123898 
   25900    213.38399   -282.49573    134153.96   -41435.192    2654.9025   -44090.094    22.616114    0.9309713 
   26000    213.08071   -447.01354    134123.17   -41373.588    2651.1292   -44024.717    22.657875   0.93118504 
   26100    211.50436   -443.37877    134039.66   -41452.976    2631.5163   -44084.493    22.812137   0.93176524 
   26200     211.4673   -501.24168    134024.69   -41443.254    2631.0552   -44074.309    22.760006   0.93186928 
   26300    211.12827   -456.31683    133940.71   -41424.743     2626.837    -44051.58     22.75497   0.93245356 
   26400    215.02838   -445.71189    133905.98   -41416.647    2675.3619   -44092.009     22.74867   0.93269537 
   26500    210.73811   -520.44258    133923.27   -41478.558    2621.9827    -44100.54    22.804062     0.932575 
   26600    210.06981   -347.13911    133805.45   -41528.712    2613.6679    -44142.38    22.875378   0.93339616 
   26700    207.04073   -300.44419    133766.39   -41541.745    2575.9802   -44117.725    22.996814   0.93366869 
   26800    208.67353   -501.39416    133810.11    -41478.15    2596.2955   -44074.446    22.917672    0.9333636 
   26900    211.12022   -419.09174    133779.67   -41469.692    2626.7369   -44096.429    22.894514   0.93357602 
   27000    208.32589   -436.84641    133803.35   -41503.609    2591.9701   -44095.579    22.853708   0.93341078 
   27100    208.37787   -409.30293    133792.91   -41505.614    2592.6168   -44098.231    23.016243   0.93348361 
   27200    208.19675   -368.35739    133729.69   -41518.954    2590.3634   -44109.317    23.011913   0.93392494 
   27300    208.40819   -564.86903    133666.72   -41548.623     2592.994   -44141.617    23.050955   0.93436492 
   27400    208.85966   -459.85873     133724.9   -41491.366    2598.6112   -44089.977    23.014792   0.93395839 
   27500    212.62854   -455.96798    133570.79   -41415.194    2645.5033   -44060.698    23.062998   0.93503596 
   27600    209.93651   -478.61627    133568.87   -41437.948    2612.0093   -44049.957    23.112189   0.93504943 
   27700    210.33852   -589.52003    133636.81   -41439.558     2617.011   -44056.569    23.390588   0.93457401 
   27800    213.00549   -440.07154    133487.75   -41371.788    2650.1933   -44021.981    23.473121   0.93561763 
   27900    213.09016   -456.04046    133549.15   -41395.021    2651.2467   -44046.267    23.381606   0.93518749 
   28000    210.75546   -499.31419    133507.23   -41432.848    2622.1986   -44055.047    23.285167   0.93548112 
   28100    209.34287   -327.51897    133634.15    -41406.36    2604.6232   -44010.983    23.368016   0.93459264 
   28200      212.012   -520.42546    133708.63   -41460.116    2637.8324   -44097.948    23.521978     0.934072 
   28300    208.15834    -296.4399    133725.14   -41452.041    2589.8854   -44041.926     23.54423   0.93395672 
   28400    206.31284   -509.63928    133817.32   -41500.786    2566.9239    -44067.71    23.688981   0.93331332 
   28500    206.82811   -401.65623    133907.15   -41523.205    2573.3349    -44096.54    23.607235   0.93268727 
   28600    208.02354   -539.39884    133956.17   -41479.384    2588.2084   -44067.592    23.792773   0.93234596 
   28700    209.26381    -476.6444    133920.16   -41478.824    2603.6397   -44082.464    23.918417   0.93259663 
   28800    207.85693   -287.03208    133988.21   -41444.036    2586.1354   -44030.172    23.898423     0.932123 
   28900    214.70701   -522.78043    133910.32   -41423.788    2671.3634   -44095.151    23.938977   0.93266516 
   29000    207.71635   -242.34309    134036.39   -41503.275    2584.3862   -44087.662    23.872882   0.93178794 
   29100    210.60686   -501.69306    134087.02   -41458.212    2620.3497   -44078.561    23.823142    0.9314361 
   29200    212.98062   -521.74344    134150.19    -41431.79    2649.8839   -44081.674    23.905647   0.93099753 
   29300    209.41126   -391.34331    133953.64   -41510.325    2605.4741   -44115.799    24.141311   0.93236358 
   29400    207.48604   -283.11224    133998.64   -41553.156    2581.5208   -44134.677    24.177864   0.93205043 
   29500    207.58556   -434.39985       134121   -41579.519     2582.759   -44162.278    24.075849    0.9312001 
   29600    211.28765   -607.60264    134048.88   -41498.472    2628.8201   -44127.292    24.087688   0.93170111 
   29700    208.64911   -420.58244    134042.88    -41540.38    2595.9916   -44136.371    24.153248    0.9317428 
   29800    211.33576   -349.51752    134083.53    -41529.15    2629.4187   -44158.569    24.247565   0.93146038 
   29900    209.22134   -301.24923    134163.96   -41560.417    2603.1112   -44163.528    24.221571   0.93090192 
   30000    212.25306   -424.16525    134256.48   -41537.109    2640.8316   -44177.941    24.098527   0.93026045 
   30100    207.79875   -466.88353    133948.66   -41533.548    2585.4115   -44118.959    24.188613   0.93239821 
   30200    206.49617   -523.08946    133833.32   -41546.607     2569.205   -44115.812    24.130346   0.93320177 
   30300     209.5263   -309.40204    133937.72   -41505.666    2606.9056   -44112.572    24.150969   0.93247441 
   30400    212.02413   -324.36062    134144.66   -41493.631    2637.9833   -44131.614    24.190945   0.93103587 
   30500    211.63653    -454.8945    134090.95   -41501.765    2633.1608   -44134.926     24.22688   0.93140878 
   30600    208.37482    -594.2316    133955.16   -41487.189    2592.5789   -44079.768     24.25787   0.93235296 
   30700    211.23428   -416.92857     134057.6   -41506.348    2628.1561   -44134.504    24.292429   0.93164053 
   30800    212.30112   -405.84033    134187.71   -41444.569    2641.4295   -44085.998    24.433666   0.93073716 
   30900    210.41813   -422.02558    134348.43   -41550.928    2618.0016   -44168.929    24.725094   0.92962374 
   31000    204.91088   -574.42755    134235.09   -41589.575    2549.4809   -44139.056    24.604031   0.93040866 
   31100    209.05767   -307.67953    134296.61   -41591.969    2601.0749   -44193.044    24.436722   0.92998244 
   31200    205.29899   -497.76692    134300.89   -41604.834    2554.3097   -44159.144    24.426499   0.92995282 
   31300    204.76543   -377.66644    134272.46   -41564.291    2547.6712   -44111.962    24.339415    0.9301497 
   31400     206.8578   -400.77373    134371.65    -41539.77    2573.7043   -44113.474    24.655942    0.9294631 
   31500    209.50323   -507.88147    134338.22   -41584.248    2606.6184   -44190.867    24.612474   0.92969439 
   31600    210.55886   -424.80129    134274.51   -41524.033    2619.7526   -44143.786    24.533134   0.93013551 
   31700    207.63687   -448.25348    134296.61   -41559.899    2583.3974   -44143.296    24.476485   0.92998243 
   31800    214.63282   -405.20889    134242.95   -41492.296    2670.4403   -44162.736    24.503164   0.93035418 
   31900    210.78761   -547.07273     134278.4   -41486.815    2622.5986   -44109.413    24.624578   0.93010859 
   32000    210.53805     -338.554    134221.23   -41480.131    2619.4936   -44099.624    24.509362   0.93050476 
   32100    211.63762   -413.78811    134196.77   -41497.349    2633.1743   -44130.524    24.556726   0.93067437 
   32200    211.64277   -489.10042    134264.12   -41486.983    2633.2384   -44120.222    24.601517   0.93020747 
   32300    211.16743   -472.31915     134251.4   -41471.484    2627.3243   -44098.808    24.893516   0.93029564 
   32400    209.02628   -364.68192     134326.5   -41526.579    2600.6843   -44127.263    24.727185   0.92977555 
   32500    210.37425   -358.84507    134532.19   -41532.103    2617.4556   -44149.559    24.865097   0.92835395 
   32600    211.24852   -514.46122    134559.41   -41477.554    2628.3332   -44105.887    24.916578   0.92816614 
   32700    207.51938   -555.56237    134470.64    -41545.98    2581.9356   -44127.916    24.969554   0.92877892 
   32800    209.49706   -553.17854    134487.53   -41587.377    2606.5417   -44193.919    25.027457   0.92866227 
   32900    213.51926   -419.33686     134363.5   -41591.345    2656.5855   -44247.931    24.964572    0.9295195 
   33000    212.31991   -433.16284    134530.03   -41629.947    2641.6633    -44271.61     24.95839   0.92836887 
   33100    208.80106   -563.46607     134553.3   -41568.878    2597.8822    -44166.76    25.022008   0.92820832 
   33200    209.94659   -433.60328     134587.9   -41603.856    2612.1348    -44215.99    25.034416   0.92796966 
   33300    208.91354   -471.33157    134474.07   -41543.913    2599.2816   -44143.195    24.889718   0.92875521 
   33400     208.7607    -407.3531    134464.33   -41623.526      2597.38   -44220.906    25.016983   0.92882246 
   33500    211.04728   -498.18906     134396.6   -41595.118    2625.8294   -44220.947    25.019468   0.92929059 
   33600    208.38386   -610.92333    134412.57   -41572.326    2592.6913   -44165.018    25.113231   0.92918014 
   33700    210.70121   -534.41281    134333.59   -41561.511    2621.5236   -44183.035    25.133307   0.92972645 
   33800    210.72733   -411.84555    134398.68   -41557.306    2621.8487   -44179.154    25.172285   0.92927617 
   33900    206.15588   -489.55951    134229.19   -41577.476    2564.9711   -44142.448    25.030922   0.93044954 
   34000    211.58605   -384.11533    134294.81   -41540.974    2632.5327   -44173.507    25.042472   0.92999489 
   34100    208.76397   -417.25536    134329.75   -41572.305    2597.4207   -44169.725    25.291095   0.92975304 
   34200    204.48573    -482.6995    134287.48   -41575.673    2544.1913   -44119.864    25.295703   0.93004566 
   34300    205.51197   -503.93954     134252.3   -41616.339    2556.9596   -44173.299    25.311617   0.93028941 
   34400    210.00883   -430.39382    134326.45   -41550.978    2612.9091   -44163.887    25.241201    0.9297759 
   34500    211.22782   -360.60716    134288.89   -41582.749    2628.0757   -44210.824    25.156473   0.93003593 
   34600    208.47275    -557.7621    134325.56   -41570.959    2593.7974   -44164.756     25.20628   0.92978204 
   34700    207.08413   -497.31412    134120.98   -41644.926    2576.5203   -44221.447    25.227692   0.93120024 
   34800    207.87064   -427.47251    134230.07   -41621.172     2586.306   -44207.478    25.305735   0.93044345 
   34900    208.11653   -410.18734    134290.38   -41629.879    2589.3654   -44219.244    25.438266   0.93002559 
   35000    203.45786   -399.04876    134308.74   -41705.124    2531.4025   -44236.526    25.285693   0.92989849 
   35100    209.03082   -446.98645    134289.17   -41639.918    2600.7408   -44240.658    25.399305   0.93003397 
   35200    207.68238   -416.17078    134334.34   -41646.366    2583.9636   -44230.329    25.346104   0.92972122 
   35300    210.84496   -399.78479    134416.44    -41636.79    2623.3122   -44260.102    25.233935   0.92915336 
   35400    207.93515   -428.80783    134265.86   -41658.141    2587.1086    -44245.25    25.181476   0.93019541 
   35500    208.54474   -448.64114     134350.8   -41565.722     2594.693   -44160.415    25.347111   0.92960735 
   35600     211.0561   -264.44283    134411.26   -41604.278    2625.9392   -44230.218    25.466461    0.9291892 
   35700    212.14761   -322.77901    134483.23   -41566.472    2639.5196   -44205.991    25.480099   0.92869193 
   35800    212.22493   -497.34325     134341.4   -41608.697    2640.4816   -44249.178    25.381551   0.92967239 
   35900    213.40701   -501.92297    134356.21   -41557.588    2655.1889   -44212.777    25.424255   0.92956992 
   36000    211.11006    -533.7424     134336.7   -41524.234    2626.6105   -44150.845    25.361483   0.92970491 
   36100    212.34785   -544.64422    134391.83   -41547.201     2642.011   -44189.212    25.308576   0.92932357 
   36200    211.30096    -465.2245    134378.41   -41579.909    2628.9856   -44208.895    25.602896   0.92941638 
   36300    209.39599   -515.24938    134362.51   -41646.433    2605.2842   -44251.717    25.685942   0.92952631 
   36400    208.99029   -381.27762    134375.65   -41587.698    2600.2365   -44187.934     25.74138   0.92943542 
   36500    210.25453   -497.70379    134469.58    -41575.99     2615.966   -44191.956    25.708296    0.9287862 
   36600     205.3777   -505.24199    134433.31   -41695.261     2555.289    -44250.55    25.616482    0.9290368 
   36700    209.53583   -511.81411    134192.44   -41643.733    2607.0241   -44250.757    25.756482   0.93070436 
   36800     206.1736   -549.60155    134194.09   -41645.164    2565.1916   -44210.355    25.738327   0.93069295 
   36900    208.55626   -453.33282    134242.02   -41665.823    2594.8364   -44260.659    25.905166   0.93036062 
   37000    210.65113   -401.40051    134284.11   -41609.828    2620.9005   -44230.728    25.986447   0.93006905 
   37100    213.24875   -339.55573    134315.97   -41589.676    2653.2199   -44242.896    25.922712   0.92984839 
   37200    207.63381   -471.76488    134288.97    -41644.83    2583.3593   -44228.189    25.886861   0.93003536 
   37300    206.85506   -330.41409    134198.08   -41658.437    2573.6702   -44232.107    25.775827    0.9306653 
   37400    206.64456   -398.42137     134224.1    -41680.15    2571.0512   -44251.201    25.879405   0.93048483 
   37500    204.81104   -426.31694    134087.88   -41700.238    2548.2387   -44248.476    25.785674   0.93143012 
   37600    209.56394   -352.21242     134217.1   -41657.411    2607.3738   -44264.785    26.057629   0.93053337 
   37700    205.58804   -532.05976    134157.15   -41654.175    2557.9061   -44212.081    25.951859    0.9309492 
   37800    203.50651   -362.34976    134218.01   -41741.961    2532.0079   -44273.969      25.8299   0.93052708 
   37900    204.74856   -476.02269    134140.85   -41701.266    2547.4614   -44248.727    25.883532   0.93106232 
   38000    208.73716   -518.15489    134166.06   -41681.717    2597.0871   -44278.804     25.83601   0.93088735 
   38100    211.85059   -378.61227    134253.51   -41641.116    2635.8242    -44276.94    25.997831   0.93028103 
   38200    211.25399   -369.81462    134183.91   -41661.914    2628.4012   -44290.315    25.889798   0.93076357 
   38300    215.92546   -400.11677    134351.33   -41608.952    2686.5233   -44295.475    25.953972   0.92960365 
   38400    208.94134   -438.72133    134201.69   -41670.484    2599.6275   -44270.111     25.85685    0.9306402 
   38500    205.80438   -481.94957    134212.19   -41682.821    2560.5978   -44243.419    26.052167    0.9305674 
   38600    208.29469   -497.67528    134204.34   -41639.085    2591.5819   -44230.667     26.07406   0.93062188 
   38700    208.03102    -453.4341    134207.49    -41640.76    2588.3013   -44229.061    25.914291   0.93060001 
   38800    208.38576   -439.27426    134253.34   -41660.488    2592.7151   -44253.203    26.016035   0.93028221 
   38900     211.2146     -303.917    134355.13   -41614.302    2627.9112   -44242.213    26.079023   0.92957737 
   39000    210.48344    -460.4162    134309.01   -41660.516    2618.8142   -44279.331    26.081701    0.9298966 
   39100    207.56268   -416.77793    134265.69   -41624.108    2582.4744   -44206.583    26.178952   0.93019661 
   39200    213.90447    -365.2093    134292.46   -41650.537    2661.3783   -44311.915    26.261195   0.93001118 
   39300    209.46075   -298.57009    134472.21   -41631.821    2606.0899   -44237.911    26.295881   0.92876801 
   39400    208.95791   -456.86182    134430.27   -41591.508    2599.8336   -44191.342    26.189464   0.92905779 
   39500    212.04763    -490.7051    134396.43   -41566.258    2638.2756   -44204.533    26.455044    0.9292917 
   39600    212.12121   -417.85653    134298.37   -41603.913    2639.1911   -44243.104    26.543993   0.92997024 
   39700     213.5366   -356.29039    134312.06   -41547.564    2656.8012   -44204.365    26.478606    0.9298755 
   39800    209.27044   -459.20429    134463.24   -41618.626    2603.7221   -44222.349    26.474264      0.92883 
   39900    210.76312   -429.80114    134436.09    -41669.32    2622.2939   -44291.614    26.424745   0.92901761 
   40000    205.65099   -486.58138     134544.9   -41696.369    2558.6893   -44255.058    26.467419   0.92826624 
   40100    210.88095   -359.20329    134569.55   -41608.147    2623.7599   -44231.907    26.533545   0.92809625 
   40200    208.69126   -435.28225     134552.5   -41632.371     2596.516   -44228.887    26.625298   0.92821382 
   40300    212.10147   -493.40529    134518.98   -41620.048    2638.9456   -44258.994    26.388556   0.92844512 
   40400    213.01872    -394.3821    134584.25   -41540.316    2650.3579   -44190.674    26.464128   0.92799483 
   40500    211.50795   -632.96299    134664.88   -41564.013     2631.561   -44195.574    26.444391   0.92743924 
   40600    211.50227   -475.92724    134614.48   -41606.797    2631.4903   -44238.287    26.576241   0.92778643 
   40700    209.46981   -440.22428    134520.77   -41652.708    2606.2027   -44258.911    26.609631   0.92843274 
   40800    205.95618   -397.80335     134677.5   -41688.644    2562.4864    -44251.13     26.79089   0.92735234 
   40900    203.54097   -475.38276    134709.38   -41706.669    2532.4366   -44239.106    26.780525   0.92713282 
   41000    210.31912   -453.86466    134730.84   -41634.998    2616.7697   -44251.768    26.740599   0.92698519 
   41100     213.8523   -352.51369     134671.3   -41619.136    2660.7292   -44279.865     26.75026   0.92739499 
   41200    209.68974    -545.3728    134715.38   -41641.121     2608.939    -44250.06    26.669282   0.92709155 
   41300    207.97014   -611.65639    134730.95   -41792.515     2587.544   -44380.059    26.729636   0.92698439 
   41400    209.66208    -458.4916    134560.97   -41747.182    2608.5949   -44355.777    26.727651   0.92815537 
   41500    206.13227   -532.77014    134673.69    -41760.37    2564.6773   -44325.048    26.675116   0.92737856 
   41600    207.11627   -429.16193    134714.08   -41723.827    2576.9202   -44300.747    26.599383   0.92710051 
   41700    211.10342    -492.9299     134783.5   -41696.884    2626.5279   -44323.412    26.646225   0.92662303 
   41800    209.97932   -402.06287    134689.61   -41711.775     2612.542   -44324.317     26.76093   0.92726894 
   41900    211.91799   -381.72948     134761.2   -41690.682    2636.6627   -44327.345    26.935851    0.9267763 
   42000    211.15554    -501.5037    134720.74   -41693.313    2627.1763    -44320.49    26.716678   0.92705464 
   42100    210.59333   -382.90778    134849.15   -41687.685    2620.1814   -44307.866    26.775638   0.92617189 
   42200    213.77897   -457.31072    134857.72   -41648.776    2659.8168   -44308.593    26.768327   0.92611303 
   42300    211.97879   -501.84904    134807.75    -41633.14    2637.4192   -44270.559    26.705035    0.9264563 
   42400    210.14274   -390.62548    134775.18   -41672.169    2614.5752   -44286.744    26.730575   0.92668018 
   42500    209.26366   -477.16606       134847   -41678.057    2603.6377   -44281.695    26.792402   0.92618666 
   42600    207.53047   -548.17639     134804.3   -41683.456    2582.0735   -44265.529    26.775267   0.92648006 
   42700    207.55859   -513.15813    134813.07   -41688.249    2582.4235   -44270.672    26.831331   0.92641977 
   42800    210.60099   -515.99616    134788.15   -41643.744    2620.2767   -44264.021    26.858192   0.92659102 
   42900    209.72574   -342.35746    134769.01   -41715.743    2609.3869    -44325.13    26.961774   0.92672265 
   43000    212.40208   -448.63768    134765.07   -41733.976    2642.6856   -44376.661    26.946273   0.92674975 
   43100    213.49333   -458.73241    134541.79   -41713.801    2656.2629   -44370.064    26.864949   0.92828771 
   43200    212.03904   -431.33644    134595.23   -41670.569    2638.1688   -44308.738     26.66868   0.92791917 
   43300    213.10453   -331.86079    134642.01   -41672.193    2651.4255   -44323.618     26.71691   0.92759676 
   43400    213.42294    -367.5993    134705.86   -41632.546    2655.3871   -44287.933    26.925099   0.92715706 
   43500    213.41591   -444.62801    134780.75   -41644.708    2655.2997   -44300.008    27.008121   0.92664188 
   43600    216.95237   -494.65482    134680.11   -41566.773       2699.3   -44266.073    27.056536   0.92733434 
   43700    211.65817   -376.23364    134707.67   -41593.746      2633.43   -44227.176    26.977348    0.9271446 
   43800    212.63922   -459.76762    134679.99   -41600.762    2645.6361   -44246.398    26.908876   0.92733516 
   43900    213.22134   -474.75468    134726.32   -41632.866    2652.8789   -44285.745    26.959101   0.92701631 
   44000    209.71648   -508.33912    134710.96   -41669.057    2609.2717   -44278.329    27.104288   0.92712201 
   44100     209.2287   -436.18531    134758.97   -41680.253    2603.2029   -44283.456     27.10695    0.9267917 
   44200    212.10916   -458.55519    134825.16   -41720.206    2639.0412   -44359.247    27.151903   0.92633666 
   44300    211.03366   -526.85007    134715.46   -41723.524    2625.6599   -44349.184    27.048288   0.92709103 
   44400    210.90332   -527.98408    134549.36    -41688.64    2624.0383   -44312.678    27.033264   0.92823549 
   44500    209.59908   -414.77014    134490.06   -41721.561     2607.811   -44329.373    27.099062    0.9286448 
   44600     206.2298   -449.20353    134436.86   -41774.184    2565.8908   -44340.075    27.168009   0.92901228 
   44700      205.048    -409.1629    134598.34   -41749.458     2551.187   -44300.645    26.981874   0.92789771 
   44800    210.07006   -432.45794       134572    -41714.91    2613.6709   -44328.581    27.096698   0.92807929 
   44900    212.25746   -372.66343    134522.89   -41678.145    2640.8863   -44319.031    27.053443   0.92841814 
   45000    209.00791   -474.94877    134548.24   -41680.056    2600.4558   -44280.512    27.000695   0.92824322 
   45100     212.7283   -467.99011    134449.55   -41625.485    2646.7445    -44272.23    27.110226   0.92892455 
   45200    210.48026   -568.75041    134540.04    -41684.58    2618.7746   -44303.354    27.283954   0.92829978 
   45300    209.72081   -506.52756    134532.92   -41698.009    2609.3255   -44307.334    27.372688    0.9283489 
   45400    213.89981    -206.1256    134490.59   -41668.736    2661.3202   -44330.057    27.311938   0.92864109 
   45500    211.80407   -349.41238    134602.63   -41688.875    2635.2452    -44324.12     27.34861   0.92786814 
   45600    207.94484   -431.61441    134650.42   -41685.862    2587.2291   -44273.091    27.312258    0.9275388 
   45700    208.89435   -414.50472    134677.95   -41697.901    2599.0429   -44296.943    27.511295   0.92734923 
   45800    210.85161   -498.77309    134530.39   -41645.135    2623.3949    -44268.53    27.376697   0.92836635 
   45900     213.4255   -549.09765    134527.54   -41591.542    2655.4189   -44246.961    27.277393   0.92838602 
   46000    212.84119   -588.70538    134360.41   -41579.928     2648.149   -44228.077    27.308797   0.92954088 
   46100    214.35393   -340.58617    134328.12   -41533.725    2666.9704   -44200.695    27.267652   0.92976428 
   46200    219.78857   -319.07832    134577.04   -41534.814    2734.5877   -44269.401    27.385938   0.92804457 
   46300     215.0844   -429.54178    134575.55   -41566.641    2676.0589     -44242.7    27.351584   0.92805484 
   46400    213.88082   -452.20923    134517.58   -41612.803     2661.084   -44273.887    27.230341   0.92845476 
   46500    209.27571      -442.85    134395.61   -41625.399    2603.7877   -44229.187    27.311406   0.92929739 
   46600    214.94261   -586.37204    134310.48   -41622.528    2674.2948   -44296.823    27.329617   0.92988645 
   46700    212.18318   -405.06504    134315.02   -41704.685    2639.9621   -44344.647    27.421088   0.92985497 
   46800     208.4475   -517.03527    134196.91   -41746.461    2593.4831   -44339.944    27.369371   0.93067339 
   46900    210.58667   -378.21556    134232.98   -41664.474    2620.0986   -44284.572    27.403501   0.93042331 
   47000    208.57127    -482.3181    134146.62   -41641.843    2595.0232   -44236.866    27.447243   0.93102225 
   47100    208.77841   -355.90989    134146.31   -41614.453    2597.6004   -44212.053    27.542056   0.93102442 
   47200    213.75392   -448.15346    134152.46   -41661.889    2659.5051   -44321.394    27.570719   0.93098173 
   47300    210.96814   -498.73524    134129.44   -41685.777    2624.8448   -44310.622    27.533514   0.93114151 
   47400    210.40657   -339.17418     134313.5   -41639.997    2617.8577   -44257.854     27.63223   0.92986552 
   47500    209.84468   -447.08245    134337.92   -41594.842    2610.8668   -44205.708    27.554272   0.92969651 
   47600    215.36637   -426.29943    134328.48   -41551.383     2679.567    -44230.95     27.53306   0.92976184 
   47700    213.14502   -426.02004    134314.98   -41600.108    2651.9292   -44252.038    27.377045   0.92985526 
   47800    211.39142   -189.05652    134362.37   -41616.081    2630.1111   -44246.192    27.531702    0.9295273 
   47900    208.91187    -493.8863    134348.73   -41699.465    2599.2609   -44298.726     27.58958   0.92962169 
   48000    207.56918   -518.84354     134448.9    -41717.64    2582.5552   -44300.196    27.624027    0.9289291 
   48100    208.74443   -506.83963    134410.83   -41703.776    2597.1775   -44300.953    27.856473   0.92919214 
   48200    205.81128   -453.24795    134332.36   -41718.486    2560.6836   -44279.169     27.79748   0.92973498 
   48300    212.70346   -343.49162    134402.41   -41689.353    2646.4354   -44335.788    27.851346   0.92925036 
   48400    216.22286   -375.34704    134547.63   -41619.501    2690.2234   -44309.724    27.736328   0.92824743 
   48500    212.58565   -433.21402    134404.83   -41690.601    2644.9697   -44335.571    27.705802   0.92923367 
   48600    208.22982   -410.19886    134434.95   -41694.425    2590.7748     -44285.2    27.781868   0.92902544 
   48700     211.0176   -489.29528    134570.39   -41660.378    2625.4601   -44285.838    27.980544    0.9280904 
   48800    210.53295   -370.40976    134649.09   -41696.049    2619.4301   -44315.479     28.02732     0.927548 
   48900    212.44054   -487.02964    134672.74   -41696.633    2643.1641   -44339.797    28.172028   0.92738512 
   49000    209.56253    -460.7425    134487.95   -41735.523    2607.3563   -44342.879    28.302072   0.92865933 
   49100    207.88453   -465.55212    134530.27   -41716.822    2586.4787   -44303.301    28.075824   0.92836724 
   49200     207.6484   -411.74013     134305.6   -41730.534    2583.5409   -44314.075    28.130847   0.92992018 
   49300    213.60787   -329.05239    134413.96    -41683.04    2657.6879   -44340.728    27.965085   0.92917054 
   49400    209.80018   -476.91113    134465.89   -41659.216     2610.313   -44269.529    27.955955   0.92881171 
   49500    213.38896   -369.10774    134430.75   -41685.467    2654.9643   -44340.432    28.081128   0.92905445 
   49600     213.0833   -496.98992    134431.05   -41702.918    2651.1614   -44354.079    28.241598   0.92905242 
   49700    210.36059   -326.04341     134630.7    -41719.43    2617.2857   -44336.716    28.408386   0.92767467 
   49800    209.52202   -432.34787     134624.1   -41770.897    2606.8523   -44377.749    28.261257   0.92772017 
   49900    216.29232   -477.46106    134657.15   -41669.742    2691.0876   -44360.829    28.215904   0.92749245 
   50000    213.10931   -382.67643    134625.55   -41713.965     2651.485    -44365.45    28.065864   0.92771018 
   50100    210.04597   -431.97658    134679.81   -41724.648    2613.3712   -44338.019    28.172827   0.92733642 
   50200    208.16137   -532.17477    134757.58   -41764.701    2589.9231   -44354.624     28.32162   0.92680123 
   50300    209.64616   -515.00051    134618.69   -41750.389    2608.3968   -44358.786    28.365802   0.92775746 
   50400    207.38258   -410.92465     134728.3   -41781.936    2580.2336   -44362.169    28.172119   0.92700267 
   50500    211.00214   -440.04358    134834.64   -41830.872    2625.2678    -44456.14    28.342036   0.92627152 
   50600    206.14582   -370.77539    135019.16    -41847.38    2564.8459   -44412.226    28.353615    0.9250057 
   50700    207.11789   -368.56796     135055.4   -41850.023    2576.9403   -44426.964    28.369616   0.92475747 
   50800    206.79459   -450.52636    135042.82   -41839.498    2572.9178   -44412.416    28.468768   0.92484362 
   50900    209.82753    -558.6974    134994.95   -41755.933    2610.6534   -44366.586    28.523988    0.9251716 
   51000    209.21687   -441.69558    135152.66   -41790.831    2603.0556   -44393.887    28.520922   0.92409198 
   51100    206.66474   -516.60666    135162.54   -41817.676    2571.3022   -44388.978    28.697969   0.92402446 
   51200    208.59797   -472.22885    135173.47   -41807.627    2595.3554   -44402.982    28.555993   0.92394973 
   51300    208.00991   -344.89689    135099.96   -41876.596    2588.0387   -44464.634    28.485514   0.92445247 
   51400    207.54214   -476.94694    135189.13   -41877.195    2582.2187   -44459.414    28.705193   0.92384271 
   51500    207.66308   -434.01053    135079.29   -41870.343    2583.7235   -44454.066    28.759187   0.92459394 
   51600    210.80727   -455.22664    135113.79   -41810.994    2622.8432   -44433.838    28.534434   0.92435786 
   51700    210.06645   -537.72553    134976.66   -41802.782     2613.626   -44416.408    28.492911   0.92529692 
   51800    208.12444   -478.46756    134884.83   -41843.107    2589.4637   -44432.571    28.553405    0.9259269 
   51900    207.83251   -407.40352    134936.03    -41886.15    2585.8316   -44471.982    28.564914   0.92557554 
   52000    208.38642   -489.84852    134844.49   -41911.337    2592.7232    -44504.06    28.575804   0.92620389 
   52100    203.71441   -512.17579    134978.13   -41868.594    2534.5945   -44403.188    28.578692   0.92528687 
   52200    206.80643   -442.77038    134936.16   -41890.208    2573.0652   -44463.273    28.686697   0.92557464 
   52300    211.20298   -404.74956     134956.4   -41878.387    2627.7666   -44506.154    28.612974   0.92543586 
   52400    211.11785   -519.25778    135036.33   -41833.468    2626.7074   -44460.175    28.708761   0.92488805 
   52500    209.70263    -465.2245    135082.83   -41828.321    2609.0994   -44437.421    28.642644   0.92456971 
   52600    209.30188   -467.94106    135064.94   -41857.251    2604.1133   -44461.365    28.694194   0.92469217 
   52700    204.67783   -586.22581    135225.83   -41880.116    2546.5813   -44426.697    28.789749   0.92359199 
   52800    211.94746   -419.25798    135094.58   -41840.006    2637.0293   -44477.036    28.780537   0.92448926 
   52900    209.93794   -565.84114    135215.85       -41836    2612.0271   -44448.027    28.719521   0.92366014 
   53000    210.77026    -527.6878    135046.33   -41825.073    2622.3827   -44447.456    28.613384   0.92481955 
   53100    211.52218   -475.08398    135184.78   -41866.317    2631.7381   -44498.055    28.745602    0.9238724 
   53200    208.39871   -515.71561    135060.52   -41864.681    2592.8762   -44457.557    28.850105    0.9247224 
   53300    210.97348   -278.03511    135014.81   -41858.057    2624.9112   -44482.968     28.90415   0.92503547 
   53400    206.12037   -579.66615    134909.04   -41925.992    2564.5293   -44490.521    28.667723   0.92576072 
   53500    207.31393   -392.54358    135010.98   -41926.429    2579.3795   -44505.809    28.668301   0.92506174 
   53600    208.44991    -355.7171    135090.75   -41941.048    2593.5132   -44534.562    28.796297   0.92451551 
   53700    205.48687    -523.0951    135045.58   -41972.353    2556.6474   -44529.001    28.752407    0.9248247 
   53800    210.56753   -473.78017    135108.57   -41856.538    2619.8604   -44476.398    28.768107   0.92439354 
   53900    209.45321   -351.19573    135054.23   -41910.699    2605.9962   -44516.695    28.582133   0.92476552 
   54000    207.35502   -535.40291    135091.25   -41881.359    2579.8907    -44461.25     28.89298    0.9245121 
   54100    212.04549   -468.55901     135050.2   -41894.553     2638.249   -44532.802    28.810141   0.92479307 
   54200    208.10225   -470.43674    134959.48   -41874.678    2589.1876   -44463.866     28.54202   0.92541472 
   54300    206.40749   -388.72941    134884.67   -41848.273    2568.1015   -44416.375    28.711311     0.925928 
   54400    210.31201   -598.64371    134953.52   -41877.254    2616.6813   -44493.935    28.644771   0.92545562 
   54500    209.31257   -558.93975    134932.16   -41853.731    2604.2463   -44457.977    28.849274   0.92560208 
   54600    214.52689   -455.97993    134958.67   -41774.067    2669.1223    -44443.19    28.905369   0.92542028 
   54700    212.41788   -463.25348    134988.88   -41790.011    2642.8823   -44432.894    28.877254    0.9252132 
   54800    210.05877   -484.13001    135023.95   -41860.924    2613.5304   -44474.455    28.865307   0.92497285 
   54900    207.38745   -353.34349    134854.79   -41904.252    2580.2941   -44484.546    28.980308   0.92613316 
   55000    207.74846   -480.48216     135026.9   -41964.953    2584.7858   -44549.739    28.836721   0.92495264 
   55100    209.25999    -464.1781    134983.73   -41934.874    2603.5921   -44538.466     28.97272   0.92524851 
   55200    204.68831   -500.07589    135005.72   -41942.287    2546.7118   -44488.999    28.872369   0.92509779 
   55300    208.34321   -434.98873    134885.21   -41888.372    2592.1857   -44480.558    28.887991    0.9259243 
   55400    208.17344   -468.57456    134939.04   -41857.575    2590.0734   -44447.648    28.899555    0.9255549 
   55500    211.61803    -420.5867    135006.21   -41806.235    2632.9306   -44439.166    28.906939   0.92509439 
   55600    208.42151   -545.70134    135006.21   -41846.734    2593.1599   -44439.894      29.0765   0.92509441 
   55700    207.62698   -457.47133    135148.51   -41842.398    2583.2744   -44425.672    29.079007   0.92412035 
   55800    209.94137   -353.10923    135194.66   -41851.218    2612.0698   -44463.287    28.973364   0.92380488 
   55900    210.05508   -325.48084     135448.4   -41823.496    2613.4845    -44436.98    29.063178   0.92207434 
   56000    211.08007   -388.71529    135249.33   -41817.825    2626.2373   -44444.062    28.998784   0.92343149 
   56100    213.93944   -460.10346    135262.72   -41796.642    2661.8133   -44458.455    28.905492   0.92334008 
   56200    213.94567   -482.05257    135246.27   -41803.253    2661.8908   -44465.144    28.928645   0.92345236 
   56300    208.52051   -397.46624    135154.05     -41835.5    2594.3916   -44429.891    29.081935    0.9240825 
   56400    212.66753   -502.15508    135155.67   -41831.818    2645.9884   -44477.806    29.045316    0.9240714 
   56500     207.2652   -407.72717    135164.57   -41915.233    2578.7731   -44494.006    29.170359   0.92401056 
   56600     211.6099   -425.31589    135183.19   -41927.433    2632.8295   -44560.262    29.021698   0.92388326 
   56700    205.56792   -600.17847    135140.71    -41957.49    2557.6558   -44515.146    29.120144   0.92417372 
   56800    206.58844   -500.86367    135168.74   -41878.736    2570.3529   -44449.089    29.016997   0.92398206 
   56900     210.3735   -556.56299    135227.34   -41861.205    2617.4463   -44478.651    29.056194   0.92358169 
   57000    211.94845   -513.47013    135306.16   -41808.593    2637.0417   -44445.635     29.10262   0.92304366 
   57100    208.56663   -517.39155    135168.29    -41872.72    2594.9654   -44467.685    29.171699   0.92398511 
   57200    205.93739   -539.77279    135082.96   -41919.154    2562.2526   -44481.406    28.921069   0.92456879 
   57300    208.51469   -453.24303    135099.82   -41960.443    2594.3191   -44554.762    29.201536   0.92445342 
   57400    204.17734   -538.26588    134978.41   -41969.368    2540.3543   -44509.722    29.181787   0.92528494 
   57500    207.85019   -390.04474    135075.64   -42014.681    2586.0516   -44600.732    29.166062   0.92461894 
   57600    209.48787   -355.96684    135127.46   -41964.176    2606.4274   -44570.603       29.219   0.92426433 
   57700    204.32201   -416.22856    135222.36   -42005.412    2542.1543   -44547.566    29.332866   0.92361564 
   57800    206.29273   -428.21457    135127.53   -42030.251    2566.6738   -44596.924    29.156238   0.92426386 
   57900    205.05882   -454.99606    135090.55   -41991.811    2551.3216   -44543.133    29.124729   0.92451689 
   58000    205.19113   -439.91459    135076.02   -41991.133    2552.9678   -44544.101    29.246663    0.9246163 
   58100    206.55909   -464.24331    135141.77   -41917.827    2569.9877   -44487.814    29.222722   0.92416647 
   58200    211.48872   -446.12953    135107.03     -41874.2    2631.3217   -44505.521    29.307366    0.9244041 
   58300    212.36613   -480.10357    135275.75   -41815.689    2642.2384   -44457.928    29.292338   0.92325113 
   58400    214.51002    -436.7073    135180.17   -41820.352    2668.9125   -44489.265    29.226019   0.92390394 
   58500    213.38858   -381.61906    135237.45   -41837.237    2654.9596   -44492.197    29.154842   0.92351264 
   58600    211.36966    -437.0754    135335.89   -41812.697    2629.8404   -44442.538    29.333646   0.92284085 
   58700    209.75365   -488.56012    135379.17   -41814.058    2609.7342   -44423.792    29.359668   0.92254583 
   58800    211.11033   -309.89636    135286.99   -41863.933    2626.6139   -44490.547    29.302995   0.92317447 
   58900    206.11367   -495.29145    135172.33   -41917.424    2564.4458    -44481.87    29.244449    0.9239575 
   59000    205.51645   -418.85741    135233.75   -41893.281    2557.0153   -44450.296    29.333395   0.92353787 
   59100    209.42388   -447.11816    135261.55   -41886.244    2605.6312   -44491.876    29.407107   0.92334807 
   59200    207.15132   -456.47097    135234.72   -41897.862    2577.3563   -44475.218     29.28844   0.92353125 
   59300    212.63174   -500.98735    135130.69   -41897.564    2645.5431   -44543.107    29.328723   0.92424221 
   59400    206.65834   -361.02385     135255.2    -41945.41    2571.2226   -44516.632    29.270784   0.92339145 
   59500    206.83068    -452.4808    135244.54   -41908.442    2573.3669   -44481.809    29.345277   0.92346417 
   59600    207.59737   -545.88206    135307.31   -41898.338    2582.9059   -44481.244    29.244145    0.9230358 
   59700    208.85447   -328.16586    135301.22   -41921.479    2598.5467   -44520.026    29.339621   0.92307735 
   59800    208.67697   -434.95629    135461.65   -41923.921    2596.3382   -44520.259    29.467552   0.92198412 
   59900    210.98126   -514.72606    135350.12   -41901.053     2625.008   -44526.061    29.473819   0.92274386 
   60000    206.12225   -572.40826    135382.13   -41939.914    2564.5526   -44504.467    29.568823    0.9225257 
   60100    209.99703   -347.11631    135332.54   -41897.749    2612.7623   -44510.511    29.514646   0.92286369 
   60200    212.93376   -400.65991    135261.67   -41885.296    2649.3009   -44534.597    29.428846   0.92334725 
   60300    208.54687   -424.14962    135377.79   -41852.377    2594.7195   -44447.097    29.522736   0.92255527 
   60400    215.50453   -312.15284    135476.23   -41818.832    2681.2861   -44500.118    29.520507   0.92188488 
   60500     209.6593   -520.48709    135435.45   -41847.504    2608.5603   -44456.064    29.672472   0.92216248 
   60600    209.13129   -410.40699    135426.03    -41895.98    2601.9909   -44497.971    29.601015    0.9222266 
   60700    211.32985   -449.09506    135461.75   -41915.727     2629.345   -44545.072    29.625341   0.92198345 
   60800    209.73193   -482.07058    135433.77   -41873.677     2609.464   -44483.141    29.563616   0.92217392 
   60900    210.43992   -446.11286    135535.41   -41863.321    2618.2727   -44481.594    29.742059   0.92148237 
   61000    209.47051   -445.07846    135454.14   -41911.971    2606.2114   -44518.182    29.881521   0.92203526 
   61100    209.48386   -402.92846    135390.59   -41956.258    2606.3774   -44562.635    29.891155   0.92246805 
   61200    206.82813   -451.30985    135497.43   -41964.275    2573.3351    -44537.61    29.661909   0.92174067 
   61300    210.03056   -418.14141    135526.06     -41944.6    2613.1795    -44557.78    29.638533   0.92154595 
   61400    208.47326   -445.16963    135446.25   -41979.894    2593.8037   -44573.697    29.877142   0.92208893 
   61500    207.76928   -425.01835    135472.94   -41972.174    2585.0449   -44557.219    29.841732   0.92190728 
   61600    208.43463   -469.21611    135554.39   -41935.678    2593.3231   -44529.001    29.858538   0.92135338 
   61700    205.75532   -499.19669    135444.93   -42017.486    2559.9874   -44577.474    29.776208   0.92209792 
   61800    206.31565   -433.33019       135339   -42072.415    2566.9589   -44639.374    29.779801   0.92281969 
   61900    205.62177   -401.84557       135294   -42002.377    2558.3258   -44560.703    29.741304   0.92312662 
   62000    207.48351   -427.09455    135447.27   -41950.372    2581.4893   -44531.862     29.67469   0.92208204 
   62100    207.60357   -408.28767    135418.45   -41961.499    2582.9831   -44544.482    29.647677   0.92227823 
   62200    210.16332   -572.15236    135375.18   -41912.407    2614.8312   -44527.239    29.550734   0.92257305 
   62300    208.63366   -429.86596    135459.76   -41950.133    2595.7993   -44545.932    29.788802   0.92199698 
   62400    209.96583   -442.27181    135438.99   -41900.499    2612.3741   -44512.873      29.8317   0.92213837 
   62500    209.43848   -417.17653    135385.23   -41913.185    2605.8129   -44518.998    29.870986   0.92250457 
   62600    209.38734    -424.9221    135289.09   -41931.501    2605.1766   -44536.678     29.79108    0.9231601 
   62700    209.09331   -509.49505    135262.75   -41960.474    2601.5183   -44561.992     29.69092   0.92333989 
   62800    210.83212   -437.94103    135262.74   -41940.512    2623.1524   -44563.664    29.704908   0.92333995 
   62900    210.56656    -596.2467    135330.11   -41892.758    2619.8483   -44512.607    29.685766    0.9228803 
   63000    211.85698   -409.02639    135010.27    -41862.65    2635.9036   -44498.554    29.621708   0.92506662 
   63100    214.14989    -341.8354    135184.52   -41859.886    2664.4318   -44524.318    29.865907   0.92387422 
   63200    205.83853   -490.60411    135065.31   -41894.988    2561.0226   -44456.011    29.753391   0.92468962 
   63300    211.34345   -451.64019    134968.94   -41930.312    2629.5143   -44559.826    29.801475   0.92534987 
   63400    217.09109   -524.66066    134949.49   -41854.003    2701.0259   -44555.029     29.74897   0.92548327 
   63500    211.20259   -398.37682    135009.54   -41940.509    2627.7618   -44568.271     29.61472    0.9250716 
   63600    211.06544   -418.92097    135062.88   -41939.371    2626.0553   -44565.426    29.553009   0.92470626 
   63700     211.4732   -382.67912    135093.46   -41943.508    2631.1286   -44574.637     29.74684   0.92449693 
   63800     206.3248   -354.61602    135080.12   -42042.367    2567.0727   -44609.439     29.82749   0.92458821 
   63900    205.26685   -489.87414    134991.23    -42031.05    2553.9099    -44584.96    29.812102   0.92519704 
   64000    205.40308   -391.01412    135176.02   -42009.041    2555.6048   -44564.646     29.83069   0.92393228 
   64100    213.53553   -363.09017    135195.56   -41922.144     2656.788   -44578.932     29.71805   0.92379873 
   64200    213.46915   -553.07301     135263.4   -41912.378     2655.962    -44568.34    29.714002   0.92333545 
   64300    214.34483   -455.10999    135243.02   -41823.727    2666.8572   -44490.584    29.850823   0.92347457 
   64400    211.73333   -580.10161    135143.82   -41848.155    2634.3652    -44482.52    29.830845   0.92415246 
   64500    212.46346   -329.09612    135157.62   -41835.569    2643.4493   -44479.019    29.915629   0.92405811 
   64600    211.77024   -403.07578    135307.39   -41889.255    2634.8244   -44524.079    29.954915   0.92303525 
   64700    211.13419   -566.54576    135290.43   -41911.682    2626.9107   -44538.593    29.896397     0.923151 
   64800    209.79655   -523.73882    135322.11   -41924.549     2610.268   -44534.817    29.890773   0.92293482 
   64900    208.91756   -524.52136    135232.22   -41910.438    2599.3317   -44509.769    29.847977   0.92354835 
   65000      209.699   -533.26325    135226.42   -41882.249    2609.0542   -44491.303    29.920197   0.92358795 
   65100    210.73924   -464.32331    135113.22   -41912.139    2621.9968   -44534.136    29.807703   0.92436173 
   65200    208.65097   -465.95966     135177.2   -41903.047    2596.0148   -44499.062    29.919459   0.92392425 
   65300    215.78004   -409.06059    135147.16   -41900.406     2684.714    -44585.12    30.111436   0.92412961 
   65400    211.76792   -439.40567    135031.28    -41844.93    2634.7956   -44479.725    29.999616   0.92492267 
   65500     212.5339   -327.22666    135074.31   -41907.295    2644.3258   -44551.621    29.931786   0.92462803 
   65600    208.80262   -455.01761    135209.36   -41932.517    2597.9015   -44530.418    29.860001   0.92370448 
   65700    209.87626   -332.99821    135195.41   -41977.093    2611.2597   -44588.352    29.812645   0.92379977 
   65800    208.94266   -476.06929    135265.84   -41982.434    2599.6439   -44582.078    30.006346    0.9233188 
   65900    206.97581   -467.75898    135320.79   -41951.886    2575.1726   -44527.059    30.119075   0.92294385 
   66000    210.53719   -417.73654    135426.65   -41853.622    2619.4829   -44473.105    30.125192   0.92222244 
   66100    212.92336   -403.29429    135320.68   -41811.916    2649.1714   -44461.088     30.08452   0.92294458 
   66200    212.56905   -301.89105       135320   -41794.039    2644.7631   -44438.802    30.062505   0.92294925 
   66300    210.79174   -469.23712     135319.6   -41823.807    2622.6501   -44446.457    30.139375   0.92295197 
   66400    208.84712   -402.26224    135305.02   -41870.229    2598.4553   -44468.684    30.081814   0.92305143 
   66500    210.47287   -596.11932    135422.51   -41886.979    2618.6826   -44505.661    30.150271   0.92225058 
   66600    210.03407   -494.25043    135293.16   -41912.391    2613.2232   -44525.614    30.027444   0.92313235 
   66700    204.67221   -520.39441    135228.84   -41932.521    2546.5114   -44479.032    30.081482   0.92357145 
   66800    212.09604   -415.31363    135178.53   -41873.708    2638.8779   -44512.585    30.003695   0.92391514 
[...]
   84600      205.658   -518.67425    135734.94   -42044.665    2558.7766   -44603.442    31.944911    0.9201278 
   84700    208.10482   -458.59195    135721.16   -42054.511    2589.2196   -44643.731    31.989138   0.92022121 
   84800    210.11745   -452.43243    135652.74   -42033.666    2614.2605   -44647.927    31.851833   0.92068534 
   84900    211.89629   -471.50734    135648.18   -42028.095    2636.3927   -44664.488    31.865112   0.92071632 
   85000    213.72303    -460.0957     135669.8   -41987.608    2659.1208   -44646.729    31.835002   0.92056961 
   85100    208.52838   -437.25292    135621.59    -41993.97    2594.4895    -44588.46    31.769559   0.92089685 
   85200     212.8324   -405.62696    135722.18   -42006.835    2648.0397   -44654.875    31.775126   0.92021432 
   85300    204.21258     -479.011    135754.94   -42036.558    2540.7927   -44577.351    31.938102   0.91999224 
   85400     208.7569   -445.76064     135786.7   -42014.746    2597.3327   -44612.079    31.923064   0.91977704 
   85500    211.70694   -366.89131    135782.02   -41992.053    2634.0368    -44626.09     31.90028   0.91980877 
   85600     211.6732   -314.10897    135761.45   -41968.469    2633.6171   -44602.086    31.832662    0.9199481 
   85700    205.53281   -463.54126    135724.69   -42013.269    2557.2189   -44570.488    31.798008   0.92019727 
   85800    209.38502   -315.74743    135673.98   -42005.187    2605.1478   -44610.335     32.03905   0.92054125 
   85900     212.1766   -403.28132    135699.61   -41913.594    2639.8803   -44553.474     31.78844   0.92036738 
   86000    210.09966   -423.08123    135690.97   -41963.286    2614.0392   -44577.325    31.858947   0.92042597 
   86100    210.13487   -436.97521    135790.06   -41956.551    2614.4773   -44571.029    31.970813   0.91975428 
   86200    211.41309   -530.86779    135662.89   -41936.683    2630.3808   -44567.064     31.91357   0.92061647 
   86300    212.81466   -490.93608    135707.26   -41977.298    2647.8189   -44625.117    31.930819   0.92031546 
   86400     210.5505   -477.83264    135615.39   -42000.834    2619.6485   -44620.482    31.965344   0.92093889 
   86500    210.69632    -557.2666    135742.92   -41983.519    2621.4628   -44604.982    31.996397   0.92007374 
   86600    213.18814   -541.36396    135752.51    -41923.64    2652.4657   -44576.105    32.076051   0.92000873 
   86700    214.12108   -454.41632    135830.49   -41914.357    2664.0733   -44578.431    32.016206   0.91948054 
   86800    208.50855   -399.53405    135817.96   -41974.365    2594.2428   -44568.607     31.93956   0.91956534 
   86900    214.98499   -416.61018       135929   -41952.156     2674.822   -44626.978    31.955574   0.91881417 
   87000    207.11057   -488.21692    135853.95   -41951.248    2576.8492   -44528.097    32.041857   0.91932178 
   87100    210.74417   -487.88978    135810.73   -41989.418    2622.0582   -44611.476    32.050806   0.91961431 
   87200    210.12192    -509.2875    135894.22   -41976.286    2614.3162   -44590.602     32.11693   0.91904935 
   87300    210.64995   -453.19429    135834.62   -41992.975    2620.8859   -44613.861    32.138788   0.91945259 
   87400    211.09628   -494.71166    135901.22   -42004.063    2626.4391   -44630.503    32.143137   0.91900197 
   87500    211.60933   -521.85547    135922.47   -42021.581    2632.8223   -44654.403    32.152379   0.91885832 
   87600    208.92315   -343.46839    135856.53    -42022.17    2599.4012   -44621.571    31.990392   0.91930426 
   87700    207.45169   -442.14112     135885.6   -42022.106    2581.0934     -44603.2    31.931391   0.91910762 
   87800    206.55752   -450.18497    135925.68   -41989.982    2569.9682    -44559.95    32.104511   0.91883659 
   87900     208.7293   -444.67251    135882.07   -42000.026    2596.9893   -44597.015    32.068542    0.9191315 
   88000    210.31699   -459.30834    135845.01   -42016.914    2616.7432   -44633.657    31.994967   0.91938228 
   88100    211.99147    -416.2272    135881.71   -41951.767    2637.5769   -44589.344    32.014222   0.91913395 
   88200    208.81788   -390.53476    135882.47   -41936.923    2598.0914   -44535.015    32.074647    0.9191288 
   88300    210.46086   -504.61993    135862.53   -41973.651    2618.5332   -44592.184    31.920866   0.91926371 
   88400    206.43254   -465.86645    135842.65   -42073.051    2568.4133   -44641.465    32.163239   0.91939822 
   88500     212.1657   -642.23516    135819.33   -41987.807    2639.7447   -44627.552    32.119245   0.91955609 
   88600    213.57557   -388.58652    135840.27   -41949.703    2657.2861   -44606.989     32.17389   0.91941436 
   88700    208.25536   -390.39557     135702.2   -41931.606    2591.0926   -44522.699    31.925177   0.92034977 
   88800    214.22393   -518.52425    135846.79    -41879.63     2665.353   -44544.983    32.035313   0.91937019 
   88900    214.42651   -401.41467    135844.22   -41925.333    2667.8734   -44593.207    32.257158   0.91938762 
   89000    213.58133   -591.90946    135926.19    -41917.15    2657.3579   -44574.508     32.28444   0.91883319 
   89100    209.21779   -637.61183    135570.97    -42008.62     2603.067   -44611.687    32.128028    0.9212407 
   89200    212.01273    -427.2072    135654.26   -42039.972    2637.8414   -44677.813    32.187367   0.92067506 
   89300    210.30049   -379.08084    135695.13    -42051.03    2616.5379   -44667.568    32.110678   0.92039776 
   89400    211.20535   -413.44666    135727.58   -42071.152    2627.7961   -44698.948    32.120034   0.92017771 
   89500    207.62999   -425.10116     135810.6    -42109.99    2583.3118   -44693.302    32.151646   0.91961518 
   89600    204.56438   -384.74958     135739.9   -42146.421    2545.1697    -44691.59    32.224934   0.92009416 
   89700    203.49302   -531.93383    135768.76   -42100.637      2531.84   -44632.477    32.229417   0.91989859 
   89800    206.15252   -543.13307    135780.39   -42064.862    2564.9293   -44629.792    32.150309   0.91981977 
   89900    208.31773   -527.94718    135731.33    -42117.79    2591.8686   -44709.659    32.226556   0.92015225 
   90000    208.56737   -525.21317     135764.8   -42041.638    2594.9746   -44636.613    32.297228   0.91992541 
   90100    206.49209   -536.35139    135797.39   -42054.894    2569.1542   -44624.048    32.135187   0.91970468 
   90200    204.68711   -564.41382    135730.21   -42080.967    2546.6968   -44627.664    32.161166   0.92015987 
   90300    202.55162   -392.07879    135810.48   -42089.038    2520.1273   -44609.165    32.290906     0.919616 
   90400    207.07257   -537.41819    135758.73    -42072.33    2576.3765   -44648.707    32.435727   0.91996655 
   90500    210.30325   -430.58575    135905.53   -42042.338    2616.5722   -44658.911    32.450464   0.91897283 
   90600    208.83469   -461.35287    135748.83   -41962.442    2598.3005   -44560.742    32.301975   0.92003366 
   90700    212.76884    -437.9911     135865.1   -41966.737    2647.2488   -44613.986    32.196142   0.91924628 
   90800    209.11071   -466.10311    135836.87   -41999.581    2601.7348   -44601.316     32.27642   0.91943735 
   90900    204.55466   -405.11567    135964.23   -42088.505    2545.0489   -44633.554    32.394111   0.91857612 
   91000    205.23206   -502.85671    135787.16   -42096.536     2553.477   -44650.013     32.37223   0.91977391 
   91100    205.47167   -566.80919    135886.84    -42092.86    2556.4582   -44649.318    32.406773   0.91909923 
   91200    204.14473    -568.0539    135698.81   -42044.023    2539.9486   -44583.971     32.28613   0.92037281 
   91300     212.9645   -427.92982    135667.12    -41950.84    2649.6832   -44600.524    32.402581   0.92058778 
   91400    211.39925   -505.07207    135713.93   -41933.872    2630.2086    -44564.08    32.376719   0.92027024 
   91500    210.57671    -510.5487    135746.65   -41945.993    2619.9746   -44565.967    32.464043   0.92004845 
   91600    211.73639   -439.97981    135720.02   -41982.988    2634.4033   -44617.391     32.24363   0.92022897 
   91700    208.14984   -405.45213    135666.53   -42047.858    2589.7797   -44637.637    32.153113   0.92059178 
   91800    206.11345   -487.95899    135528.73   -42019.463    2564.4432   -44583.906    32.107801   0.92152778 
   91900    206.66698   -445.42196    135674.71   -42025.006    2571.3301   -44596.336    32.239418   0.92053625 
   92000    207.06742   -421.36578    135748.11   -42033.824    2576.3123   -44610.136    32.419997    0.9200385 
   92100    207.14055   -420.87108    135690.77   -42073.167    2577.2222   -44650.389     32.22801    0.9204273 
   92200    210.99547   -402.65407     135646.5   -42008.623    2625.1848   -44633.808    32.059668   0.92072769 
   92300     210.8143   -567.07575    135643.89   -41932.288    2622.9306   -44555.219     32.16941   0.92074543 
   92400    209.43968   -426.68077    135541.28   -41937.157    2605.8278   -44542.985    32.077528   0.92144247 
   92500    210.79287   -402.36035     135582.2   -41983.294    2622.6641   -44605.958    32.079702   0.92116437 
   92600    207.38812   -487.31213    135460.03   -41957.936    2580.3025   -44538.239    32.216459   0.92199517 
   92700    212.03549   -484.21176    135500.22   -41942.593    2638.1246   -44580.717    32.225573   0.92172171 
   92800    213.28014   -536.34603    135577.56   -41981.724    2653.6104   -44635.335    32.206016   0.92119586 
   92900    214.36848   -466.42286    135430.06   -41952.478    2667.1514   -44619.629    32.122469   0.92219917 
   93000    205.57167   -413.66131    135352.28   -41971.892    2557.7023   -44529.595    32.262088   0.92272913 
   93100    210.01088   -364.13391    135513.56   -41914.664    2612.9346   -44527.599    32.355026   0.92163092 
   93200    210.73853   -509.85573    135689.67   -41933.098    2621.9879   -44555.086    32.356424   0.92043479 
   93300    209.84692   -499.08748    135567.65   -41957.995    2610.8946   -44568.889    32.242697    0.9212632 
   93400    210.54815   -472.10353    135597.81   -41986.276    2619.6193   -44605.895    32.266321    0.9210583 
   93500     208.7213   -443.92545    135679.88   -42022.808    2596.8897   -44619.697    32.279991   0.92050118 
   93600    205.19126   -571.92374     135631.7   -42080.907    2552.9693   -44633.876    32.255044   0.92082819 
   93700    209.31946   -392.71791     135605.5   -42047.852     2604.332   -44652.184     32.41114   0.92100608 
   93800    208.31476   -465.65016    135381.88    -42013.76    2591.8317   -44605.592    32.195218   0.92252736 
   93900    209.31294   -476.50474    135406.03   -41995.337    2604.2509   -44599.588    32.172632   0.92236286 
   94000    211.76866   -427.11969    135482.09   -42001.915    2634.8047   -44636.719    32.162029   0.92184504 
   94100    208.20765   -340.40716    135505.47   -42010.999    2590.4989   -44601.498    32.151708   0.92168598 
   94200    207.53954    -505.3267    135544.12   -42010.302    2582.1864   -44592.488    32.280693   0.92142317 
   94300    208.61252   -447.38111    135485.44   -41966.777    2595.5364   -44562.313    32.426713   0.92182226 
   94400    212.79727   -442.03085    135531.46   -41957.152    2647.6026   -44604.754    32.384407   0.92150921 
   94500    212.73049   -326.39589    135546.18    -41903.44    2646.7717   -44550.212    32.406408   0.92140915 
   94600    211.15227   -509.72431    135615.09   -41941.001    2627.1357   -44568.137    32.382834   0.92094098 
   94700    205.22792   -429.90575     135672.3   -41982.023    2553.4254   -44535.448    32.264996    0.9205526 
   94800    212.40835   -454.98342    135478.97   -41985.153    2642.7637   -44627.916    32.415034   0.92186626 
   94900    209.77572    -476.8367    135464.65   -41967.079    2610.0087   -44577.088    32.400724   0.92196374 
   95000    212.05881   -445.12316    135439.01   -41948.458    2638.4147   -44586.873    32.420704   0.92213823 
   95100     213.1016   -475.43805    135523.44   -41946.945    2651.3891   -44598.334    32.414235   0.92156375 
   95200    209.25699   -543.72742    135460.11   -41973.272    2603.5548   -44576.826    32.433944   0.92199462 
   95300    212.47573    -509.7138    135544.52   -41881.344     2643.602   -44524.946    32.487817   0.92142042 
   95400    212.32186   -453.66972    135417.71   -41940.444    2641.6875   -44582.131    32.297351   0.92228328 
   95500    214.72177   -282.53768    135463.37   -41949.931    2671.5471   -44621.478    32.344836   0.92197245 
   95600    211.34792   -399.93594    135622.26   -41932.678    2629.5699   -44562.248    32.494082    0.9208923 
   95700    208.35535   -445.12543    135425.55   -41988.015    2592.3367   -44580.352    32.508621   0.92222987 
   95800    205.87879   -466.75421     135480.7   -42029.535    2561.5236   -44591.059     32.51619   0.92185451 
   95900     211.6226   -440.63905    135469.94   -41978.226    2632.9875   -44611.213    32.616891   0.92192773 
   96000    206.26537   -427.77126    135562.27   -42055.886    2566.3334   -44622.219     32.59505   0.92129979 
   96100    210.44311   -531.66953    135500.59   -42008.733    2618.3124   -44627.045    32.476653   0.92171914 
   96200    204.30297    -396.6438    135698.46   -42045.662    2541.9173   -44587.579    32.612633   0.92037512 
   96300     210.3975   -435.15178    135527.02   -41999.272    2617.7449   -44617.017    32.564835   0.92153939 
   96400    212.07809   -325.68343    135450.13   -41980.203    2638.6546   -44618.858    32.592776   0.92206251 
   96500    207.38908   -363.77293    135495.03   -42030.173    2580.3144   -44610.488    32.542285   0.92175702 
   96600    208.27974   -596.67201     135498.6     -42027.6    2591.3959   -44618.996    32.463182   0.92173268 
   96700    208.72296    -625.1436    135334.77   -42096.543    2596.9105   -44693.454    32.500303   0.92284854 
   96800     206.6255   -503.09844    135320.89   -42142.454     2570.814   -44713.268    32.607761   0.92294315 
   96900    207.99011   -521.82662    135303.12   -42078.819    2587.7923   -44666.612    32.636515   0.92306438 
   97000    208.82798   -396.32297    135241.46   -42074.638    2598.2171   -44672.856     32.48806   0.92348521 
   97100    205.71818   -361.31411    135373.78   -42068.252    2559.5252   -44627.777    32.440446   0.92258255 
   97200    208.67021   -437.95631    135557.05   -42070.343    2596.2542   -44666.598    32.568437   0.92133526 
   97300    207.70986   -361.54866       135497   -42065.112    2584.3056   -44649.418     32.62698    0.9217436 
   97400    205.84646   -469.37901    135471.97   -42069.557    2561.1213   -44630.678    32.620688   0.92191388 
   97500    207.64099   -512.97893    135586.29    -41968.18    2583.4486   -44551.628     32.56327   0.92113655 
   97600    205.95978   -454.27319    135529.09    -42040.16    2562.5313   -44602.691    32.704357   0.92152531 
   97700    210.59904   -495.52713    135420.65   -41978.976    2620.2524   -44599.229    32.568351   0.92226326 
   97800    208.49624   -456.26507    135594.83   -41954.701    2594.0896   -44548.791    32.734771   0.92107854 
   97900    212.58299   -454.35575    135514.04   -41927.755    2644.9366   -44572.692    32.630216   0.92162767 
   98000    213.29744   -436.29419    135535.56   -41942.643    2653.8257   -44596.469    32.534321   0.92148133 
   98100    208.31374   -392.68403    135614.87   -42018.884    2591.8189   -44610.703    32.840099   0.92094244 
   98200    209.34057   -424.12026     135662.4   -41989.067    2604.5946   -44593.662    32.768296   0.92061981 
   98300    209.55422   -427.64275    135662.29   -42008.503    2607.2529   -44615.756    32.859025   0.92062056 
   98400    207.98917   -494.15803    135620.41   -42029.812    2587.7806   -44617.592     32.79642   0.92090485 
   98500    208.67801   -459.76833    135643.07   -42030.975    2596.3511   -44627.326    32.699193   0.92075099 
   98600    208.31981   -546.81855    135716.34   -42044.847    2591.8945   -44636.742    32.756525   0.92025391 
   98700    205.25019   -526.15368    135630.69   -42094.801    2553.7026   -44648.503    32.789449   0.92083505 
   98800    204.92316   -460.43764    135731.55   -42060.775    2549.6337   -44610.408    32.848749   0.92015077 
   98900    210.35811    -415.8261    135581.35   -42069.083    2617.2548   -44686.338    32.868708   0.92117017 
   99000     205.2703   -437.98188    135540.68   -42110.686    2553.9528   -44664.639    32.932029   0.92144656 
   99100    207.77504   -550.57004     135732.9    -42025.86    2585.1165   -44610.977    33.093198   0.92014165 
   99200    208.09116    -414.2821    135784.22   -42018.837    2589.0497   -44607.887    32.876718   0.91979384 
   99300    208.23954   -532.43093     135753.1   -41977.778    2590.8958   -44568.674    32.921377   0.92000472 
   99400    213.33492    -435.6971    135794.71   -41949.201     2654.292   -44603.493    32.825117   0.91972278 
   99500     217.1489   -416.80671    135857.02   -41847.617    2701.7451   -44549.362    32.860957   0.91930095 
   99600     214.9178   -532.49795    135825.98   -41874.328     2673.986   -44548.314    32.987941   0.91951106 
   99700     216.1264   -331.42571    135707.28   -41887.993    2689.0234   -44577.016    32.969219   0.92031537 
   99800    211.14199   -440.14203     135692.6   -41910.301    2627.0077   -44537.309    32.836753    0.9204149 
   99900    210.39793   -394.53324    135670.11   -41973.303    2617.7503   -44591.053    32.904535   0.92056748 
  100000    208.44986   -474.09326    135626.14   -41986.836    2593.5125   -44580.349    32.915413   0.92086594 
  100100    217.97429   -461.07093    135681.72   -41916.535    2712.0146   -44628.549    32.962067   0.92048874 
  100200    211.30927   -385.57522    135681.02   -41915.363    2629.0891   -44544.452    32.952262   0.92049346 
  100300    210.95973   -435.38146    135645.16    -41906.28    2624.7401    -44531.02    32.918607   0.92073677 
  100400    210.46792    -343.7756    135661.19   -41944.838    2618.6211   -44563.459    32.885172   0.92062804 
  100500    214.64766   -419.67054    135632.13   -41882.955     2670.625    -44553.58    32.889925   0.92082525 
  100600     210.1842   -419.07034    135713.47    -41967.74     2615.091   -44582.831    33.036944   0.92027338 
  100630    212.41969   -438.76597     135724.5   -41955.154    2642.9048   -44598.059    33.140057   0.92019854 
Loop time of 78.5082 on 6 procs for 100000 steps with 4175 atoms

Performance: 550.261 ns/day, 0.044 hours/ns, 1273.752 timesteps/s
98.5% CPU use with 6 MPI tasks x no OpenMP threads

MPI task timing breakdown:
Section |  min time  |  avg time  |  max time  |%varavg| %total
---------------------------------------------------------------
Pair    | 55.273     | 58.723     | 67.836     |  55.6 | 74.80
Neigh   | 4.6619     | 4.7166     | 4.7544     |   1.5 |  6.01
Comm    | 3.4167     | 12.513     | 16         | 120.5 | 15.94
Output  | 0.15832    | 0.15904    | 0.16229    |   0.4 |  0.20
Modify  | 1.7321     | 1.7588     | 1.7785     |   1.2 |  2.24
Other   |            | 0.6374     |            |       |  0.81

Nlocal:        695.833 ave         702 max         692 min
Histogram: 1 1 0 1 1 1 0 0 0 1
Nghost:        1436.00 ave        1451 max        1423 min
Histogram: 1 0 1 0 1 2 0 0 0 1
Neighs:        0.00000 ave           0 max           0 min
Histogram: 6 0 0 0 0 0 0 0 0 0
FullNghs:      18768.7 ave       18934 max       18628 min
Histogram: 2 0 1 0 0 0 1 1 0 1

Total # of neighbors = 112612
Ave neighs/atom = 26.972934
Neighbor list builds = 5143
Dangerous builds = 0

undump              1
unfix               2
unfix               3
unfix               4


################################################
#######         Run Simulation         #########
################################################

reset_timestep      0
log                 log.run_${NAME}
log                 log.run_liquid_density_MLmW
