
# Set production fixes - Nose/Hoover
#
fix                 2 all nph iso ${PRES} ${PRES} ${PCOUPL}
fix                 2 all nph iso -500 ${PRES} ${PCOUPL}
fix                 2 all nph iso -500 -500 ${PCOUPL}
fix                 2 all nph iso -500 -500 10000.0
fix                 3 all temp/csvr ${TEMP} ${TEMP} ${TCOUPL} 837492
fix                 3 all temp/csvr 295 ${TEMP} ${TCOUPL} 837492
fix                 3 all temp/csvr 295 295 ${TCOUPL} 837492
fix                 3 all temp/csvr 295 295 5000.0 837492

# Define Order parameter
#
compute             2 all orientorder/atom nnn NULL cutoff 3.5
thermo              200
thermo_style        custom step temp press vol etotal ke pe c_1[4]

# Run 1ns simulation
dump		    1 all custom 400 prod.${NAME}.dump id type x y z vx vy vz c_2[*]
dump		    1 all custom 400 prod.ice_295K_500atm_ML.dump id type x y z vx vy vz c_2[*]
run                 200000
Neighbor list info ...
  update every 1 steps, delay 0 steps, check yes
  max neighbors/atom: 2000, page size: 100000
  master list distance cutoff = 6.0032907
  ghost atom cutoff = 6.0032907
  binsize = 3.0016454, bins = 17 17 17
  2 neighbor lists, perpetual/occasional/extra = 1 1 0
  (1) pair sw, perpetual
      attributes: full, newton on
      pair build: full/bin/atomonly
      stencil: full/bin/3d
      bin: standard
  (2) compute orientorder/atom, occasional, copy from (1)
      attributes: full, newton on
      pair build: copy
      stencil: none
      bin: none
Per MPI rank memory allocation (min/avg/max) = 5.837 | 5.837 | 5.838 Mbytes
Step Temp Press Volume TotEng KinEng PotEng c_1[4] 
       0    293.32234   -529.63314    132673.08   -42171.794    3580.4148   -45752.209   0.15560222 
     200    295.18928   -472.48917    132680.39   -42161.544    3603.2034   -45764.748   0.15252323 
     400    299.72095   -500.98968    132685.36   -42154.846    3658.5189   -45813.365   0.15236983 
     600    291.90602   -548.23513    132654.64   -42191.658    3563.1266   -45754.785   0.15337207 
     800    295.50509   -454.01294    132627.81   -42205.526    3607.0584   -45812.584    0.1557554 
    1000    293.81362   -509.67043    132641.94   -42217.982    3586.4117   -45804.394   0.15531977 
    1200    291.88922   -498.05652    132677.24   -42240.796    3562.9216   -45803.717   0.15380822 
    1400    292.80996   -548.06604    132654.99   -42231.784    3574.1606   -45805.945   0.15691761 
    1600    293.66187   -433.72047    132611.06   -42234.189    3584.5593   -45818.748   0.14921218 
    1800    293.34085     -491.839    132649.96   -42238.701    3580.6407   -45819.342    0.1550253 
    2000    288.54837   -536.56738    132697.44   -42193.167    3522.1418   -45715.309   0.15800053 
    2200    295.06284   -543.97244    132672.81   -42163.238    3601.6601   -45764.898    0.1576849 
    2400    291.85269   -459.19546    132631.54    -42180.27    3562.4757   -45742.746   0.15507534 
    2600    291.23593   -504.94529    132633.12   -42224.207    3554.9472   -45779.155   0.15070822 
    2800    297.43193   -491.24285    132673.33   -42239.489    3630.5783   -45870.067   0.14576644 
    3000    290.23499   -509.25295    132692.42   -42250.385    3542.7294   -45793.114   0.15046962 
    3200    290.43613   -487.27009    132635.44   -42199.678    3545.1846   -45744.863   0.15661997 
    3400    293.26251   -513.22622    132622.04   -42238.355    3579.6845    -45818.04   0.15078547 
    3600    293.16223   -528.91355    132672.47   -42265.817    3578.4605   -45844.278    0.1451937 
    3800    292.51155    -515.1573     132700.6   -42194.645    3570.5181   -45765.163   0.14889835 
    4000    297.59594   -540.08379    132715.69   -42189.757    3632.5802   -45822.337   0.15275819 
    4200    290.42002   -525.80769    132665.25   -42205.375    3544.9879   -45750.362   0.15598534 
    4400    294.01053   -454.52471    132624.49   -42185.058    3588.8151   -45773.873   0.15284528 
    4600    296.28621   -535.47205    132694.26   -42172.274    3616.5931   -45788.867   0.14850605 
    4800    292.47662   -562.38935    132755.17   -42165.456    3570.0916   -45735.547   0.14917509 
    5000    293.68741   -536.51039    132694.85   -42158.201    3584.8711   -45743.072   0.15743301 
    5200    299.92048   -464.14837    132623.45   -42159.301    3660.9545   -45820.256    0.1526285 
    5400    297.76756   -510.29182    132721.07   -42120.958    3634.6751   -45755.633   0.15630674 
    5600     297.4104   -573.84296    132822.95   -42102.942    3630.3154   -45733.257   0.14959607 
    5800    293.10985   -542.01909     132729.4   -42093.008    3577.8211   -45670.829   0.15295812 
    6000    296.57544   -378.80691    132630.32   -42080.417    3620.1235   -45700.541   0.15275641 
    6200    295.76026   -522.30697    132792.76   -42073.091    3610.1731   -45683.264   0.15174293 
    6400    295.40061   -681.09938    132906.68    -42041.63    3605.7831   -45647.413   0.15966081 
    6600    300.34439   -462.51341    132697.46   -42081.642    3666.1289   -45747.771    0.1503218 
    6800    297.51472   -368.96203       132599   -42117.013    3631.5888   -45748.602   0.14722412 
    7000    294.88207   -577.94354    132835.23   -42127.383    3599.4535   -45726.836   0.14549997 
    7200    302.94136   -569.26825    132931.99   -42073.182    3697.8287   -45771.011     0.140841 
    7400    297.88527   -444.82668    132685.93   -42056.966    3636.1118   -45693.077    0.1527164 
    7600    297.81646   -376.01403    132586.26    -42095.88    3635.2719   -45731.152   0.15217133 
    7800    294.13975   -623.86853    132863.74   -42120.276    3590.3925   -45710.668   0.15326327 
    8000    296.15008   -637.81588    132910.87    -42081.55    3614.9314   -45696.481   0.14511481 
    8200     296.3535   -367.83839     132578.3   -42119.274    3617.4145   -45736.688   0.14488588 
    8400    295.70428   -350.99356    132589.94   -42149.647    3609.4897   -45759.137   0.14845844 
    8600     297.7429   -654.58346    132963.44   -42102.898     3634.374   -45737.272   0.15194807 
    8800    297.47184   -634.72316    132906.37   -42043.262    3631.0654   -45674.328   0.15697858 
    9000    297.89896   -287.24816    132507.44    -42025.77     3636.279   -45662.049   0.14846821 
    9200     298.8562   -382.69654    132668.77   -42010.675    3647.9635   -45658.639   0.15181324 
    9400    292.91297   -826.65381    133101.76   -42053.402    3575.4179   -45628.819   0.16052215 
    9600    300.51938   -544.94209    132790.44   -42045.139     3668.265   -45713.404   0.15140203 
    9800    304.26025   -184.69969    132347.67   -42064.036    3713.9275   -45777.964   0.15310266 
   10000    295.05081   -539.05211    132761.07   -42057.356    3601.5133   -45658.869   0.15172287 
   10200    293.57612   -867.27889    133180.74   -42051.367    3583.5126    -45634.88   0.15650136 
   10400    298.38356   -442.35818    132657.56    -42041.34    3642.1943   -45683.534   0.14822259 
   10600     300.2799   -110.30186     132277.2   -42026.146    3665.3418   -45691.488   0.14953222 
   10800    300.46579   -676.02573    132871.64   -42052.448    3667.6108   -45720.059   0.15659725 
   11000    299.67915   -848.71043    133112.33   -42087.693    3658.0087   -45745.702   0.15241071 
   11200     294.4193   -291.50669    132436.43   -42107.999    3593.8048   -45701.804   0.14871862 
   11400     296.5493   -181.96785    132288.49   -42133.859    3619.8044   -45753.663   0.14461396 
   11600    296.37649    -718.2573    132980.69   -42100.567    3617.6951   -45718.262   0.15174701 
   11800    296.35242   -809.77362    133022.13   -42169.302    3617.4013   -45786.703   0.15512908 
   12000    290.65644   -235.44172    132328.14   -42172.921    3547.8738   -45720.795   0.15168979 
   12200    291.04803   -283.18198    132401.44   -42151.479    3552.6536   -45704.133   0.15170754 
   12400    296.06391    -796.3601    133044.93   -42116.184    3613.8796   -45730.063   0.15171361 
   12600    296.20904   -675.33011    132913.88   -42126.951    3615.6511   -45742.602   0.15133509 
   12800    293.78498   -250.30589    132355.81   -42139.323     3586.062   -45725.385   0.15088448 
   13000    294.70416   -384.91134    132524.85   -42120.601     3597.282   -45717.883   0.15547331 
   13200    301.99459    -727.0466    132991.91   -42089.245    3686.2719   -45775.517   0.15362158 
   13400    299.95661   -642.59314    132783.77   -42108.518    3661.3955   -45769.913   0.15738706 
   13600    297.60511   -219.68405    132389.15   -42106.845    3632.6921   -45739.537   0.14976916 
   13800    296.68074   -479.82147    132622.42   -42100.619    3621.4088   -45722.027   0.15367809 
   14000    294.97671   -707.34094    132923.81   -42112.411    3600.6088    -45713.02   0.15757173 
   14200    296.66904   -552.41156     132712.2   -42133.128     3621.266   -45754.394   0.15543126 
   14400    294.72168   -331.52859    132451.71   -42164.268    3597.4958   -45761.764   0.15318814 
   14600     296.4014   -504.93299    132632.28   -42158.419    3617.9991   -45776.418   0.14998188 
   14800    298.10647   -653.19264     132841.7    -42133.93    3638.8119   -45772.742    0.1492971 
   15000    295.93486   -513.56599    132686.47    -42185.74    3612.3043   -45798.044   0.15182729 
   15200    297.46231   -356.73844    132495.11   -42243.707     3630.949   -45874.656    0.1476501 
   15400    291.32863   -487.37514    132604.53   -42248.081    3556.0788    -45804.16   0.15142166 
   15600    290.75436   -616.59422    132742.63   -42289.446     3549.069   -45838.515   0.14741959 
   15800    289.27497   -494.72719    132625.74   -42234.676     3531.011   -45765.686   0.15355004 
   16000    288.43427   -415.91193    132530.62   -42223.082     3520.749   -45743.831   0.15538169 
   16200    293.59226   -498.87401    132663.45   -42173.377    3583.7096   -45757.087   0.15282859 
   16400    298.24497   -566.15579    132741.51   -42170.205    3640.5026   -45810.707   0.15157678 
   16600    295.64216    -465.3099       132600   -42188.305    3608.7315   -45797.036   0.15145014 
   16800      298.568   -368.30774    132518.37   -42145.373    3644.4456   -45789.818   0.15265646 
   17000    289.53079    -576.0038    132662.24   -42166.503    3534.1336   -45700.636   0.15876189 
   17200    295.96375   -585.26525    132718.48   -42149.371     3612.657   -45762.028   0.15498896 
   17400    293.12677   -455.98077    132554.96   -42194.355    3578.0276   -45772.382   0.15621672 
   17600    293.15051    -434.1173    132522.68   -42231.747    3578.3174   -45810.065   0.15417354 
   17800    285.80721   -601.19427    132712.73   -42246.889     3488.682   -45735.571   0.15482867 
   18000    291.57605   -558.70409    132714.63   -42276.573    3559.0989   -45835.672   0.14820632 
   18200    287.67341   -458.10455    132525.66   -42309.765    3511.4617   -45821.226   0.15270168 
   18400    290.04433   -442.11723    132514.17   -42325.838    3540.4021    -45866.24   0.15179032 
   18600    289.99062   -572.46171    132704.96   -42284.952    3539.7464   -45824.698   0.15059217 
   18800     285.4519    -627.1578    132748.73   -42225.607    3484.3449   -45709.952   0.15411022 
   19000    291.18822   -454.89623    132554.58   -42244.067    3554.3649   -45798.432   0.15235416 
   19200    297.63293   -377.51823    132527.66    -42224.86    3633.0317   -45857.891   0.15250015 
   19400     294.5356   -624.64517    132750.99   -42220.787    3595.2245   -45816.011   0.15675704 
   19600    294.70888   -594.15429    132757.16   -42241.921    3597.3395   -45839.261   0.14912058 
   19800    297.72939   -368.85899    132484.56   -42237.641    3634.2091    -45871.85   0.14722653 
   20000    294.65509   -426.47527    132504.38   -42235.092     3596.683   -45831.775   0.15031569 
   20200    289.95815   -668.56708    132793.72    -42259.28    3539.3501   -45798.631   0.15749878 
   20400    289.62822   -552.13671    132745.44   -42234.906    3535.3229   -45770.229   0.15143227 
   20600    289.69766   -305.12291    132426.92   -42239.798    3536.1704   -45775.969   0.15196389 
   20800    297.40645   -452.08838    132532.75   -42226.041    3630.2672   -45856.308   0.14945734 
   21000     292.8618   -704.87701    132835.29   -42223.958    3574.7933   -45798.751   0.15467003 
   21200    293.84656   -558.53485    132665.07   -42211.812    3586.8136   -45798.626   0.15493904 
   21400    292.97067   -225.77435     132337.3   -42209.717    3576.1223    -45785.84   0.15860444 
   21600    293.69767   -496.78988    132619.08   -42164.821    3584.9963   -45749.817   0.16066188 
   21800    296.16096   -777.55809    132957.11   -42117.824    3615.0643   -45732.888    0.1617874 
   22000    292.90939   -454.51498    132606.66   -42126.781    3575.3742   -45702.156   0.15496925 
   22200    299.28695   -228.45712    132313.11   -42086.033    3653.2214   -45739.254   0.15394625 
   22400      296.641   -572.32478    132774.01   -42061.558    3620.9238   -45682.482   0.15812213 
   22600    290.83731   -809.79564    133042.01    -42062.81    3550.0815   -45612.892   0.17004805 
   22800    295.11606   -336.06885    132471.55   -42113.197    3602.3097   -45715.506   0.15641961 
   23000    295.34185    -158.3923    132244.15   -42127.763    3605.0658   -45732.829   0.14937773 
   23200    300.91075   -684.08619    132911.77   -42110.265    3673.0421   -45783.307   0.14485506 
   23400    295.03164   -829.48552    133053.09   -42120.515    3601.2793   -45721.794   0.15879049 
   23600    297.67761   -233.90842    132375.79   -42135.701    3633.5771   -45769.278   0.15794363 
   23800    295.66629    -230.4041    132347.96   -42084.551    3609.0261   -45693.577   0.15685736 
   24000    291.36966   -728.18957    133030.56   -42108.559    3556.5796   -45665.138   0.15026594 
   24200    292.59218   -741.30782    132955.91   -42098.091    3571.5022   -45669.594   0.15222528 
   24400    292.05115   -191.98338    132319.87   -42107.897    3564.8982   -45672.795    0.1558095 
   24600    298.28376   -333.56287    132493.11   -42111.353     3640.976   -45752.329   0.15782303 
   24800    301.68779   -823.38162    133084.98   -42031.508     3682.527   -45714.035   0.16229017 
   25000    302.81042   -636.46416    132874.67   -42045.536    3696.2303   -45741.766   0.15732133 
   25200    298.84187   -205.37442     132373.9   -42076.287    3647.7885   -45724.075   0.15044486 
   25400    292.20691   -448.12866    132601.86   -42129.049    3566.7995   -45695.848   0.15460104 
   25600     295.9534   -754.68865    133009.15   -42149.381    3612.5306   -45761.912   0.15468044 
   25800    293.66756   -556.79017       132717   -42123.996    3584.6287   -45708.625   0.16108495 
   26000    295.51704    -187.8388    132345.17   -42110.218    3607.2043   -45717.423   0.16105913 
   26200    294.84219    -516.4482    132683.43    -42139.62    3598.9667   -45738.586   0.15204984 
   26400     293.5047   -778.41276    132956.47   -42158.783    3582.6408   -45741.424   0.15102574 
   26600    293.85229   -429.02683    132566.36   -42169.436    3586.8836   -45756.319   0.14620312 
   26800    296.19941   -248.37943    132372.91   -42174.785    3615.5335   -45790.319   0.15061667 
   27000    293.05211   -613.11688    132783.91   -42174.934    3577.1163   -45752.051   0.15864383 
   27200    294.34684   -715.41069    132919.01   -42169.384    3592.9204   -45762.305   0.15327465 
   27400    296.06302   -336.42275    132510.85   -42142.274    3613.8687   -45756.142   0.14575718 
   27600    294.47928   -317.97487    132511.01   -42151.869     3594.537   -45746.406   0.14416514 
   27800    290.65525   -694.52051    132918.82   -42134.273    3547.8592   -45682.132   0.15422322 
   28000    295.05665   -597.30324    132828.74   -42129.094    3601.5845   -45730.678   0.15675511 
   28200     293.4738   -267.98833    132454.29   -42144.639    3582.2636   -45726.903   0.15194907 
   28400    297.51116   -406.46023    132606.17   -42144.888    3631.5453   -45776.433   0.14999461 
   28600    289.70155   -710.53873    132940.97   -42157.343     3536.218   -45693.561   0.15327361 
   28800    293.89084    -522.2771    132734.37   -42173.341    3587.3542   -45760.695   0.14613662 
   29000     291.7803   -348.04635    132460.97   -42217.824    3561.5921   -45779.416   0.15138634 
   29200    296.49767   -489.19898    132677.43   -42251.362    3619.1743   -45870.536   0.15371994 
   29400    289.20227   -687.62512    132884.81   -42249.534    3530.1236   -45779.657   0.15594952 
   29600    287.29417   -515.09875    132609.13   -42213.872    3506.8325   -45720.704   0.15493675 
   29800    296.03287   -255.61283    132460.57   -42140.996    3613.5007   -45754.497   0.14403389 
   30000    295.30927   -563.38282     132823.6   -42126.283    3604.6682   -45730.952   0.14931774 
   30200    296.49416   -707.46786    132947.94   -42136.956    3619.1313   -45756.087    0.1593925 
   30400    293.97396   -386.97994    132543.06   -42192.578    3588.3688   -45780.947   0.15661223 
   30600    298.57631   -254.93033    132419.66   -42138.747     3644.547   -45783.293    0.1495674 
   30800    298.58406   -611.81988    132859.26   -42100.945    3644.6416   -45745.587   0.14683566 
   31000    294.96404   -676.66898    132945.43   -42090.543    3600.4541   -45690.997   0.15076678 
   31200    294.48436   -324.30911    132493.43   -42097.054     3594.599   -45691.653   0.15188328 
   31400    295.74299   -318.76694    132502.45   -42093.952    3609.9623   -45703.914   0.15421759 
   31600    299.42854   -710.92931    132965.23   -42151.352    3654.9497   -45806.302   0.15046457 
   31800    293.12448   -655.74328    132846.17   -42118.132    3577.9997   -45696.132   0.15771514 
   32000    295.21804   -265.45785    132388.05   -42096.227    3603.5545   -45699.781   0.15335114 
   32200    290.15467   -453.17669    132582.09    -42124.07     3541.749   -45665.819   0.15907577 
   32400    293.56525   -814.85993    133010.74   -42120.345    3583.3799   -45703.724   0.15946647 
   32600    298.90963   -586.54193    132751.57   -42112.353    3648.6157   -45760.968   0.15522421 
   32800    299.81316   -212.90629    132374.97   -42106.006    3659.6445   -45765.651   0.15254147 
   33000     297.0405   -471.18125    132701.49   -42096.292    3625.8002   -45722.092   0.15166248 
   33200    299.42444   -806.40018    133049.45   -42091.698    3654.8996   -45746.597   0.15515912 
   33400    297.29802     -466.467     132643.5   -42055.703    3628.9436   -45684.646   0.16262431 
   33600     301.9017   -223.86055    132405.37   -41992.026    3685.1381   -45677.164   0.16095165 
   33800    302.15892   -616.46299    132866.73   -42018.801    3688.2778   -45707.079   0.15830861 
   34000    302.32302   -737.47065    133011.28   -42054.968     3690.281   -45745.249   0.15345304 
   34200    297.57447    -400.0898    132517.17   -42098.038    3632.3182   -45730.357   0.15273185 
   34400    292.72579    -294.4068    132422.27   -42154.273    3573.1331   -45727.406   0.15763676 
   34600    298.32642   -726.72805     132931.4   -42114.755    3641.4967   -45756.252   0.16062101 
   34800    287.18434   -708.88246    132899.27   -42152.933    3505.4919   -45658.424   0.15887522 
   35000    292.84141   -290.66986    132386.08   -42189.906    3574.5444   -45764.451   0.15004626 
   35200    297.33631   -334.00374    132513.65   -42184.405    3629.4111   -45813.816   0.14309699 
   35400    294.14982   -771.46672    133028.55   -42148.739    3590.5154   -45739.255   0.15419706 
   35600    298.38099   -590.13263    132818.53   -42142.735    3642.1628   -45784.898   0.14928047 
   35800    298.79859   -184.66703    132325.63   -42145.416    3647.2602   -45792.676   0.15343289 
   36000    297.04369   -453.89258    132616.34   -42144.878    3625.8392   -45770.717   0.15326039 
   36200    295.76801   -841.08029    133071.11   -42153.095    3610.2677   -45763.363   0.15431598 
   36400     293.6539    -535.8253    132710.16   -42180.544    3584.4621   -45765.006    0.1498783 
   36600    299.92164   -170.73869    132316.06   -42158.063    3660.9687   -45819.032   0.14788564 
   36800    289.26831   -542.93165    132715.42   -42196.378    3530.9296   -45727.308   0.15496131 
   37000    291.17309   -769.78975    133003.24   -42181.588    3554.1802   -45735.768   0.16017601 
   37200    298.18546   -432.86979    132580.35    -42148.63    3639.7762   -45788.406     0.151955 
   37400    293.38265   -252.70267    132402.94   -42140.161     3581.151   -45721.313   0.14829809 
   37600    290.69377   -698.01854    132875.39   -42163.461    3548.3294    -45711.79   0.15795673 
   37800     301.0349   -690.37482    132992.51   -42127.538    3674.5576   -45802.095   0.15643937 
   38000     294.1292     -383.863     132544.4   -42182.497    3590.2637   -45772.761   0.15583247 
   38200    292.99914   -290.52058     132470.6   -42177.639    3576.4698   -45754.108   0.14951436 
   38400    297.21724   -634.35445    132879.99   -42141.059    3627.9577   -45769.017   0.14924722 
   38600    294.22786    -632.2658    132872.31   -42137.736     3591.468   -45729.204   0.15613596 
   38800    294.28418   -349.10157    132496.44   -42188.638    3592.1554   -45780.793   0.15250234 
   39000    285.58865   -376.65245    132559.43   -42212.897    3486.0142   -45698.911   0.15237809 
   39200    296.66234   -669.05979    132886.39   -42230.611    3621.1843   -45851.795   0.14832564 
   39400    295.55093    -570.4417     132757.3   -42221.546    3607.6179   -45829.164   0.14898801 
   39600    290.62799   -383.54158    132459.56   -42290.808    3547.5265   -45838.335   0.14671363 
   39800    293.54408   -428.56011    132580.11   -42278.435    3583.1215   -45861.557   0.14304728 
   40000    290.65371   -649.57002    132829.71    -42293.01    3547.8404   -45840.851   0.14831766 
   40200    288.41166   -556.70368    132691.79   -42271.782     3520.473   -45792.255   0.15505112 
   40400    294.50435   -350.75953    132465.71       -42263    3594.8429   -45857.843   0.15496996 
   40600    288.75477   -532.72441    132619.53   -42289.619    3524.6611    -45814.28   0.14989699 
   40800    291.02972   -625.60661    132779.97   -42301.721    3552.4302   -45854.152   0.14685076 
   41000     294.2778   -443.57452    132576.74   -42265.521    3592.0776   -45857.598    0.1482636 
   41200    286.80737   -368.59183    132462.71   -42289.688    3500.8904   -45790.579   0.15369351 
   41400    293.43479   -585.85713    132722.76   -42261.894    3581.7875   -45843.681   0.15548702 
   41600    294.56014   -643.37905    132812.55   -42253.137    3595.5239   -45848.661   0.15267059 
   41800    294.93699   -388.41084    132530.37    -42250.83    3600.1239   -45850.953   0.14571037 
   42000    288.89258   -411.63873    132490.25   -42230.788    3526.3434   -45757.131   0.15483281 
   42200     292.0013   -619.00542    132801.52    -42249.67    3564.2896   -45813.959   0.15302359 
   42400    289.58514   -627.80458    132786.59   -42297.074    3534.7971   -45831.871   0.15301513 
   42600    289.24536   -333.64952    132431.98   -42329.223    3530.6495   -45859.873    0.1495017 
   42800    286.65186   -403.00427    132490.51   -42327.251    3498.9922   -45826.244   0.15151924 
   43000     286.8801   -677.47037    132852.75    -42283.06    3501.7781   -45784.838   0.14775018 
   43200    293.20263   -583.10569    132749.34   -42289.392    3578.9536   -45868.346   0.14465611 
   43400    286.43212   -307.35378    132391.93   -42277.931    3496.3099   -45774.241   0.14990733 
   43600    292.73757   -420.25298    132556.49   -42277.672    3573.2769   -45850.949   0.15098463 
   43800    291.84834   -757.17573    132918.98   -42241.951    3562.4225   -45804.374   0.15300872 
   44000    293.26472   -554.13477    132689.84   -42263.786    3579.7115   -45843.497    0.1490771 
   44200    293.23203   -234.79798    132334.75   -42321.105    3579.3124   -45900.418   0.14352111 
   44400    293.28487   -485.69525    132619.32   -42299.364    3579.9575   -45879.322   0.14969232 
   44600    287.43865   -804.78478    132980.24   -42225.893    3508.5961   -45734.489   0.15839334 
   44800    294.94195   -474.41537    132620.97   -42193.542    3600.1845   -45793.727   0.15413175 
   45000    291.91732   -210.31341    132311.86   -42222.745    3563.2646    -45786.01   0.15023679 
   45200    288.28665   -621.11808    132763.92   -42238.756    3518.9471   -45757.703   0.15362396 
   45400    293.21506   -803.71847    133015.47   -42286.184    3579.1054    -45865.29   0.15439371 
   45600    289.53082   -345.74385    132440.41   -42275.405     3534.134   -45809.539   0.15293478 
   45800    292.68439   -150.83149       132223   -42247.878    3572.6277   -45820.506   0.14931172 
   46000    291.24509   -754.23042    132901.64   -42241.497     3555.059   -45796.556   0.15955305 
   46200    291.93777   -868.90137    133053.72   -42262.893    3563.5143   -45826.407   0.15374825 
   46400    289.89427   -225.42994    132305.65   -42254.838    3538.5704   -45793.408   0.14752592 
   46600    292.82322    -186.0016    132275.27   -42260.575    3574.3224   -45834.898   0.14522938 
   46800    290.73308   -857.90372    133092.29   -42217.415    3548.8093   -45766.224   0.15908164 
   47000    289.52506   -797.15454    133018.24   -42198.345    3534.0637   -45732.409    0.1607937 
   47200     298.0373   -96.034705    132236.49   -42178.286    3637.9676   -45816.253   0.14996739 
   47400    298.91131   -236.97958    132454.02   -42108.418    3648.6361   -45757.055   0.14560202 
   47600    301.04678   -880.18163     133214.9   -42076.101    3674.7026   -45750.803   0.14979008 
   47800    297.50875   -625.65174    132914.15   -42048.497    3631.5159   -45680.012   0.15487683 
   48000    296.74916   -134.70618     132290.4   -42059.381    3622.2441   -45681.625   0.15503586 
   48200    304.31492    -420.8049    132675.52   -42061.069    3714.5949   -45775.664   0.14948289 
   48400    302.87624   -819.46174    133160.73   -42037.227    3697.0338   -45734.261   0.14830476 
   48600     297.6112    -534.2269    132735.39   -42099.783    3632.7665   -45732.549    0.1543574 
   48800    301.66548   -190.74263    132374.44   -42047.576    3682.2547    -45729.83   0.15369489 
   49000    301.01748   -547.89141    132765.87   -42021.181     3674.345   -45695.526   0.16003024 
   49200    294.01533   -749.59951    132962.05   -42055.149    3588.8738   -45644.023   0.16053376 
   49400    300.36344   -434.89942    132608.13   -42069.727    3666.3615   -45736.088   0.15371949 
   49600    302.79404   -293.21307    132504.32    -42091.69    3696.0303    -45787.72   0.14842341 
   49800    289.08772   -646.26728    132811.93   -42067.939    3528.7253   -45596.664   0.16304044 
   50000     296.7238   -637.18353    132877.69   -42066.773    3621.9344   -45688.707   0.15935335 
   50200    297.00165   -407.62375    132626.95   -42105.487    3625.3261   -45730.813   0.15106035 
   50400    296.37922   -382.96752    132593.26   -42104.989    3617.7283   -45722.718   0.15088209 
   50600    294.46012   -608.17609    132813.01   -42124.249    3594.3031   -45718.553   0.14980719 
   50800    297.95582   -565.73889    132781.18   -42132.549     3636.973   -45769.521   0.15213306 
   51000    298.80161   -414.94408    132574.53   -42082.144    3647.2971   -45729.441   0.15480152 
   51200    293.74428    -488.9863    132632.86   -42105.514    3585.5652   -45691.079   0.15736278 
   51400    297.44078   -606.54558    132803.22   -42067.304    3630.6862    -45697.99   0.15471113 
   51600    301.10754   -500.43508    132731.47   -42070.906    3675.4443    -45746.35    0.1493653 
   51800    300.16316   -421.44826    132577.52   -42069.843    3663.9167   -45733.759   0.15583016 
   52000    299.14652   -438.60923    132651.35   -42021.609    3651.5072   -45673.116   0.15453177 
   52200    298.11364   -569.33396    132801.47   -41989.415    3638.8995   -45628.314   0.15831396 
   52400    298.28515   -487.84274    132711.75    -41977.57     3640.993   -45618.563   0.15748393 
   52600    298.00041    -450.8756    132575.31   -42017.993    3637.5173   -45655.511   0.16079832 
   52800    298.36265   -510.50919    132690.31   -42036.505    3641.9389   -45678.444   0.16127441 
   53000    298.67711   -579.19622    132792.53   -42041.385    3645.7774   -45687.162   0.15283788 
   53200    296.55522   -498.84575    132641.77   -42052.483    3619.8767    -45672.36   0.15722916 
   53400     303.3643   -330.46004    132554.69   -42075.073    3702.9912   -45778.064   0.14959631 
   53600    299.06904   -533.67586    132753.61    -42107.16    3650.5615   -45757.721   0.15414869 
   53800    295.85185   -619.22886    132817.14   -42091.925    3611.2911   -45703.216   0.15875997 
   54000    300.87381   -439.79197    132593.95   -42084.757    3672.5913   -45757.348   0.15129661 
   54200    295.56605   -384.50599    132546.71   -42091.544    3607.8024   -45699.346   0.15192518 
   54400    294.71759   -595.29386    132775.17   -42115.638    3597.4458   -45713.084   0.15552801 
   54600    295.21093    -596.6077     132760.9   -42108.746    3603.4678   -45712.213   0.15747929 
   54800    300.07838   -366.20881     132536.1   -42056.332    3662.8819   -45719.214   0.15560487 
   55000     299.0125   -448.18388    132639.07   -42058.675    3649.8713   -45708.547   0.15107606 
   55200    299.57816   -693.79836    132919.77   -42088.298    3656.7761   -45745.074   0.15145275 
   55400    297.63051   -532.27643    132733.02   -42110.958    3633.0021    -45743.96   0.15580914 
   55600    294.68778   -275.84655    132411.14   -42145.639     3597.082   -45742.721    0.1538041 
   55800    297.37826   -455.33584    132642.58   -42116.801    3629.9231   -45746.724   0.15162479 
   56000    300.62994   -737.36105     133001.9    -42097.99    3669.6144   -45767.605   0.14934138 
   56200    292.11749   -549.25749    132737.02   -42124.176     3565.708   -45689.884   0.15363311 
   56400     294.3962   -247.13689    132407.04   -42131.571    3593.5228   -45725.094   0.15643481 
   56600    298.45207   -476.04179    132729.07   -42133.965    3643.0305   -45776.995     0.152385 
   56800     296.4757   -782.21609    132996.46   -42089.004     3618.906    -45707.91   0.15449672 
   57000    299.60761   -408.46743    132628.75   -42087.286    3657.1355   -45744.421   0.14694063 
   57200    296.47917   -271.73349    132423.89   -42125.323    3618.9484   -45744.271   0.14676453 
   57400    285.98317   -643.92452    132830.25   -42144.013    3490.8299   -45634.843   0.16332387 
   57600    297.39797   -744.45875     132987.6   -42109.326    3630.1636    -45739.49    0.1567122 
   57800    295.72804   -364.75537    132532.75   -42126.271    3609.7798   -45736.051   0.14996864 
   58000    295.47221   -233.18048    132419.67    -42142.44     3606.657   -45749.097   0.14721471 
   58200    294.90749   -702.99698    132919.33   -42179.131    3599.7638   -45778.894   0.14608754 
   58400    299.85538   -705.36091    132932.23     -42172.2    3660.1599    -45832.36   0.15621068 
   58600    294.34451   -292.39695    132419.77   -42156.385    3592.8919   -45749.276   0.14808954 
   58800    294.46745   -300.92717       132505   -42190.011    3594.3926   -45784.403   0.14765708 
   59000    291.54578   -777.24038    133017.18   -42209.798    3558.7294   -45768.527    0.1460446 
   59200    291.43298   -603.11371    132807.04   -42212.006    3557.3525   -45769.359   0.14868716 
   59400    292.43408   -175.67649    132317.22   -42160.363    3569.5724   -45729.936   0.15156785 
   59600    298.25461   -421.95389     132647.9   -42157.396    3640.6202   -45798.017   0.14634437 
   59800    295.88044    -829.3883    133100.45   -42139.423    3611.6401   -45751.063   0.15349869 
   60000    292.71718   -517.49945    132708.49   -42131.184     3573.028   -45704.211   0.15320081 
   60200    298.78616   -192.27927    132345.32   -42108.221    3647.1085    -45755.33   0.15089653 
   60400    300.68241   -528.91902    132762.92   -42076.582    3670.2549   -45746.837   0.15209751 
   60600    305.85544   -804.15988    133068.72   -42112.824    3733.3991   -45846.224   0.14995311 
   60800    289.98886   -483.65955    132610.58   -42056.684     3539.725   -45596.409   0.16071885 
   61000    297.64656   -243.40003    132367.45   -42098.707    3633.1981   -45731.905   0.15584054 
   61200    296.58074   -621.05737    132842.31   -42100.224    3620.1882   -45720.412   0.16133443 
   61400    295.86575   -732.88488    132985.44    -42095.82    3611.4607   -45707.281   0.15493057 
   61600    299.63359   -362.04672    132517.51   -42092.425    3657.4526   -45749.878   0.15157166 
   61800    292.41186   -269.28973     132486.3   -42092.955    3569.3011   -45662.256   0.15401384 
   62000    302.64969   -713.85207    132964.06   -42106.635    3694.2684   -45800.903   0.15765416 
   62200    292.67017   -696.27552    132888.07   -42111.212    3572.4541   -45683.666    0.1638634 
   62400    301.92094   -244.97172    132434.33   -42082.753     3685.373   -45768.126   0.14911856 
   62600    300.81761   -419.66054    132607.17   -42105.703    3671.9052   -45777.608   0.14902633 
   62800    301.01588   -706.60837    132988.25   -42072.192    3674.3254   -45746.517   0.15126404 
   63000    299.66985   -521.53654    132773.01   -42047.492    3657.8952   -45705.388   0.15803193 
   63200    298.30594    -283.8173    132456.47   -42054.268    3641.2468   -45695.514   0.15754094 
   63400    304.72804    -509.3799    132707.93   -42013.072    3719.6375    -45732.71   0.15840316 
   63600    300.88221   -695.12007    132968.85   -41989.512    3672.6937   -45662.205   0.15559678 
   63800    298.82277    -441.8978    132677.14   -42018.346    3647.5554   -45665.901   0.15455716 
   64000    297.13517   -241.14146    132474.42   -42023.895    3626.9559   -45650.851   0.15694829 
   64200    295.70342   -586.87561    132788.98   -42027.022    3609.4793   -45636.501      0.16608 
   64400    303.27958   -669.38621    132907.17    -42009.34     3701.957   -45711.297   0.15799154 
   64600    301.91381   -404.48039     132595.6   -42063.515    3685.2859   -45748.801   0.15294823 
   64800    295.00736    -340.0188    132523.73   -42076.149    3600.9829   -45677.132     0.152149 
   65000    294.64528   -638.02845    132820.12   -42070.593    3596.5632   -45667.156   0.16516712 
   65200    296.23298   -639.18095    132796.64   -42092.304    3615.9433   -45708.247   0.16390917 
   65400    294.80825   -391.84088    132490.78   -42113.841    3598.5525   -45712.394   0.15670072 
   65600    295.55776   -376.66599    132562.72   -42141.059    3607.7013    -45748.76   0.15156868 
   65800    296.20864   -610.71087    132886.32   -42111.138    3615.6463   -45726.784   0.15112752 
   66000    299.25231   -562.33852    132771.46   -42108.699    3652.7985   -45761.497   0.15578352 
   66200    296.92739   -279.98562    132423.41   -42143.126    3624.4196   -45767.546   0.15399227 
   66400    293.80971   -420.77714       132580   -42137.321    3586.3639   -45723.685   0.15834484 
   66600    294.18125   -694.06454    132921.59   -42149.767    3590.8991   -45740.666   0.15630843 
   66800    302.23418   -502.36171    132699.74   -42126.523    3689.1965    -45815.72   0.15004278 
   67000    290.45106   -256.53905     132355.5   -42147.575    3545.3668   -45692.941   0.15390649 
   67200    297.76147    -505.9229    132635.87   -42167.464    3634.6008   -45802.065   0.15499239 
   67400    294.22914   -788.80408    132965.88   -42196.847    3591.4837   -45788.331   0.15966405 
   67600    292.05832   -453.27931    132592.14   -42157.194    3564.9857    -45722.18   0.15995095 
   67800    302.62108   -153.18273    132319.85   -42110.602    3693.9191   -45804.521   0.15255837 
   68000    298.68675   -603.40399    132852.94   -42103.682    3645.8951   -45749.577   0.15282913 
   68200    291.83356   -898.11203    133079.21   -42169.786    3562.2422   -45732.028   0.15585944 
   68400    298.13231   -234.62645    132394.67   -42121.475    3639.1273   -45760.602   0.15444515 
   68600    295.54138   -115.49012    132259.06   -42109.102    3607.5014   -45716.603   0.15606691 
   68800    300.00376   -805.86653     133064.1   -42073.161    3661.9711   -45735.132   0.16303532 
   69000     292.7943   -877.48643    133076.25    -42115.55    3573.9694    -45689.52   0.16029097 
   69200    296.91652   -122.62188    132199.88   -42127.377    3624.2869   -45751.664   0.14814047 
   69400    291.46103   -239.19853    132299.76   -42165.362    3557.6949   -45723.056   0.15730949 
   69600     296.8864   -872.80603    133142.52   -42171.763    3623.9192   -45795.682   0.15714258 
   69800    293.66377   -732.61733    132939.63   -42140.931    3584.5825   -45725.513   0.16087646 
   70000    296.97121   -95.004959    132198.35   -42106.552    3624.9545   -45731.507   0.15315741 
   70200    296.50179   -363.16535    132522.34   -42103.102    3619.2245   -45722.327     0.148413 
   70400    292.45563    -893.5328    133147.02   -42102.647    3569.8354   -45672.482   0.15499191 
   70600    297.56089   -532.26002    132756.55   -42079.206    3632.1523   -45711.358   0.16331068 
   70800    299.48414   -136.83005    132271.83   -42105.455    3655.6284   -45761.083   0.15932455 
   71000    291.66071   -525.39256    132672.27   -42145.277    3560.1323   -45705.409   0.15882451 
   71200    294.86866   -784.74982    133014.48   -42147.709    3599.2899   -45746.999    0.1514571 
   71400    296.97136   -470.22656    132620.11   -42122.436    3624.9563   -45747.393   0.15104401 
   71600    297.01952   -233.76282    132390.65   -42102.066    3625.5441    -45727.61   0.15704893 
   71800    297.65361    -566.4105    132767.19   -42113.537    3633.2842   -45746.822   0.16313287 
   72000    288.27583   -733.76635    132897.93   -42143.198    3518.8151   -45662.013   0.16034098 
   72200    293.90623   -390.17961    132509.52   -42179.743     3587.542   -45767.285    0.1490473 
   72400    296.03918   -359.82903    132445.97   -42157.374    3613.5777   -45770.952   0.15228938 
   72600    298.42196   -630.03369    132803.48   -42131.843    3642.6629   -45774.506   0.16144373 
   72800    299.59061   -627.25711    132807.75   -42198.881    3656.9279   -45855.809   0.15512149 
   73000    294.62476   -313.49484    132478.28   -42205.412    3596.3127   -45801.725   0.15108092 
   73200    293.58249   -394.69506    132546.84   -42226.822    3583.5903   -45810.412   0.14631539 
   73400    289.31378   -677.42958    132835.42   -42203.602    3531.4846   -45735.087    0.1552174 
   73600    292.48969    -587.0972    132716.37   -42189.294    3570.2511   -45759.545   0.15698931 
   73800    294.79636   -340.25158     132463.1   -42192.208    3598.4073   -45790.616   0.15524789 
   74000    292.03615   -480.72315    132597.24   -42226.046     3564.715   -45790.761   0.15314467 
   74200    290.66168   -638.02938     132802.5   -42230.228    3547.9377   -45778.165   0.15208439 
   74400     290.7028   -520.68194    132655.23   -42199.576    3548.4397   -45748.016   0.15157549 
   74600     287.6678   -380.66245    132498.48   -42210.946    3511.3932   -45722.339   0.15522908 
   74800    293.49536   -506.72187    132658.69   -42224.551    3582.5268   -45807.078   0.15230398 
   75000    292.32654   -580.59596    132765.42   -42191.287    3568.2597   -45759.546   0.15435273 
   75200    291.73743   -451.69319    132587.05   -42170.159    3561.0688   -45731.228   0.15636069 
   75400    294.84734   -409.86582    132541.57   -42166.795    3599.0296   -45765.825   0.14883524 
   75600    292.53228   -607.64015    132782.12   -42138.335     3570.771   -45709.106   0.15348766 
   75800     298.1731   -617.25657    132832.55   -42110.951    3639.6252   -45750.576   0.15067094 
   76000    296.28272   -408.76898    132595.36   -42108.225    3616.5504   -45724.775   0.15172169 
   76200    296.67415   -404.98262    132577.55   -42132.001    3621.3284    -45753.33   0.15121609 
   76400    297.70643   -615.96119    132819.95   -42103.563    3633.9289   -45737.492    0.1529912 
   76600    296.89117   -582.78188    132779.88   -42090.408    3623.9774   -45714.386   0.15174543 
   76800    303.78223   -333.03118    132484.98   -42086.677    3708.0926   -45794.769   0.14326425 
   77000    298.97061    -367.4678    132536.61   -42094.767      3649.36   -45744.127   0.14880743 
   77200    290.38127   -650.95814    132855.17    -42137.36    3544.5149   -45681.875   0.16210871 
   77400    296.01447   -525.67505    132766.32   -42115.005    3613.2761   -45728.281   0.15316183 
   77600     295.0272    -331.1247    132461.61   -42144.978    3601.2251   -45746.203   0.14964577 
   77800    297.01814   -465.25973    132608.32   -42153.288    3625.5273   -45778.816   0.14355547 
   78000    302.50842   -712.21306    132920.07   -42153.927     3692.544   -45846.471   0.14888312 
   78200     293.8119   -495.52639    132694.66   -42143.302    3586.3906   -45729.693   0.15678139 
   78400    295.66655   -259.52852    132397.74   -42174.938    3609.0293   -45783.967   0.15405179 
   78600    293.34532   -469.06978    132650.17    -42180.19    3580.6953   -45760.885   0.14781911 
   78800    292.42563   -759.44384    132943.61   -42156.596    3569.4693   -45726.065   0.15134907 
   79000    294.17515   -508.82906    132609.22   -42153.917    3590.8246   -45744.742   0.15093232 
   79200    289.72102   -228.80212    132316.05   -42159.564    3536.4557    -45696.02   0.15614669 
   79400    295.57481    -568.9234    132732.93   -42112.589    3607.9095   -45720.498   0.15646414 
   79600     298.1764   -767.95013    132999.07   -42106.886    3639.6655   -45746.552   0.15005993 
   79800    292.88136    -402.9652     132553.2   -42131.329     3575.032   -45706.361   0.14757154 
   80000    297.78291   -245.42411    132346.38   -42113.065    3634.8625   -45747.927   0.14921619 
   80200    299.54592   -627.15895    132849.21   -42064.652    3656.3825   -45721.035   0.15317841 
   80400    300.17019   -762.54192    133018.97   -42049.401    3664.0025   -45713.404    0.1570525 
   80600    299.09706   -319.50066    132484.17   -42072.245    3650.9035   -45723.148   0.14910534 
   80800    298.90284   -273.69469    132410.71   -42023.158    3648.5328   -45671.691   0.15009359 
   81000    296.69432   -717.92087    132976.07   -42073.135    3621.5747   -45694.709   0.15082021 
   81200        298.2   -681.85666    132958.53   -42052.352    3639.9536   -45692.306   0.15095197 
   81400    298.50396   -259.11923    132409.25   -42027.604    3643.6638   -45671.268   0.15617715 
   81600    302.38375   -325.77968    132499.79   -42045.393    3691.0222   -45736.415    0.1560372 
   81800    295.65505   -790.79466    133017.34   -42047.113    3608.8889   -45656.002   0.15894628 
   82000    304.45922   -560.96251    132842.17    -42020.44    3716.3563   -45736.796   0.15023918 
   82200    299.99327    -249.6011    132368.81   -42067.472     3661.843   -45729.315   0.14917154 
   82400     299.3602   -417.08125    132568.09   -42075.719    3654.1154   -45729.835   0.15722831 
   82600    300.95945   -758.17127    132947.51   -42097.819    3673.6366   -45771.456   0.15944796 
   82800    291.22326   -559.41788    132679.95   -42137.916    3554.7926   -45692.709   0.16114207 
   83000    297.13224   -248.79189    132324.57    -42127.62    3626.9201    -45754.54   0.15278942 
   83200    295.98601    -472.9548     132611.7   -42142.026    3612.9287   -45754.955   0.15143446 
   83400    287.52319   -787.93866    132916.52    -42163.94     3509.628   -45673.568   0.16107595 
   83600    296.91592   -466.23431       132596   -42179.138    3624.2795   -45803.418   0.15226629 
   83800    294.29349    -328.4097    132372.92   -42128.524    3592.2691   -45720.793   0.15849279 
   84000    294.06869   -547.48927    132718.78    -42153.65    3589.5251   -45743.175   0.15496655 
   84200    296.72264   -655.23385    132861.92   -42135.106    3621.9203   -45757.026   0.15310214 
   84400    295.79116   -412.90609     132575.3   -42154.991    3610.5503   -45765.542   0.14933997 
   84600    297.06586   -326.17796    132504.76   -42146.673    3626.1098   -45772.783   0.15092886 
   84800    295.20544   -579.89425    132736.97    -42161.45    3603.4008   -45764.851   0.15872846 
   85000    297.18729   -559.68704    132753.53   -42120.682    3627.5921   -45748.274   0.15522183 
   85200    296.54018    -396.0895    132601.99   -42091.007    3619.6931     -45710.7   0.15249893 
   85400    296.80821   -459.49927    132631.92   -42073.574    3622.9648   -45696.539   0.15269252 
   85600    305.95191    -539.7118    132754.17   -42080.453    3734.5766    -45815.03   0.15039746 
   85800    293.09633   -527.17865    132712.37   -42083.461    3577.6561   -45661.118   0.16200573 
   86000    296.68479   -480.96343    132605.93   -42046.231    3621.4584   -45667.689   0.16277919 
   86200    298.45033   -483.29948    132641.57   -42056.268    3643.0092   -45699.277   0.15669372 
   86400    298.98656   -537.21878    132744.47   -42052.295    3649.5547   -45701.849    0.1527393 
   86600    299.30681   -524.33775    132701.67   -42036.763    3653.4638   -45690.227   0.15737793 
   86800    294.73249   -479.19011    132621.78   -42077.011    3597.6277   -45674.638    0.1659029 
   87000    296.55369    -502.9615    132649.98   -42094.907     3619.858   -45714.765   0.16126154 
   87200    301.24388   -515.60043    132734.09   -42071.879    3677.1085   -45748.987    0.1540371 
   87400     302.0513   -503.54277    132723.79   -42042.835    3686.9642   -45729.799   0.14885448 
   87600    299.87393   -497.37525    132629.87   -42091.784    3660.3863   -45752.171   0.15412039 
   87800    297.65609   -442.02617     132601.2   -42106.621    3633.3144   -45739.935   0.15567514 
   88000    292.58368   -513.89498    132674.74   -42065.004    3571.3985   -45636.403   0.16090125 
   88200    293.29511   -556.09516    132711.66   -42089.556    3580.0824   -45669.639   0.15965922 
   88400    300.42233   -471.93607    132654.15   -42079.324    3667.0803   -45746.404   0.15058926 
   88600    303.23702   -443.77804     132630.9   -42099.391    3701.4375   -45800.829   0.14946457 
   88800    294.74939   -517.09361    132735.29   -42094.028     3597.834   -45691.862   0.15546394 
   89000    297.45637    -558.9918    132767.36   -42106.891    3630.8766   -45737.768      0.15284 
   89200    299.25211   -497.16765    132632.11   -42082.172     3652.796   -45734.968   0.16058557 
   89400    298.91785   -439.01842    132633.01   -42049.557     3648.716   -45698.273    0.1552115 
   89600    296.61616   -578.57464    132790.37   -42076.675    3620.6206   -45697.296   0.15677825 
   89800    291.76125   -565.88088    132715.89   -42097.109    3561.3595   -45658.469   0.15614275 
   90000     294.0129   -365.60875    132502.22   -42109.601    3588.8442   -45698.445   0.15742229 
   90200    288.88253   -497.34431    132615.54   -42152.461    3526.2206   -45678.682   0.16079475 
   90400    299.70019   -614.69084    132838.63   -42177.315    3658.2656    -45835.58   0.15190538 
   90600    292.66413    -509.0715    132697.81   -42164.131    3572.3804   -45736.511   0.15333555 
   90800    292.89213   -357.06736    132478.79   -42181.603    3575.1635   -45756.767   0.15162446 
   91000    299.42895    -458.2076    132636.09    -42180.39    3654.9546   -45835.345   0.14770938 
   91200    292.80099   -653.90048    132857.07   -42190.865     3574.051   -45764.916   0.15526764 
   91400    298.30826   -514.57827    132685.06   -42185.564    3641.2751   -45826.839    0.1542911 
   91600    296.72337   -316.15791    132458.51   -42193.805    3621.9292   -45815.734   0.15259483 
   91800    295.21745   -528.68228    132702.25   -42165.198    3603.5474   -45768.745   0.15803561 
   92000    291.89527   -717.17086    132927.18   -42176.956    3562.9955   -45739.951   0.15363339 
   92200    291.63029   -442.69668    132625.64   -42198.125     3559.761   -45757.886   0.15760207 
   92400     290.4094   -272.21975    132454.22   -42155.641    3544.8583     -45700.5   0.15690193 
   92600    292.50596    -587.3579    132826.23   -42208.251    3570.4498   -45778.701    0.1568133 
   92800    293.15963   -722.64016    132920.06   -42183.186    3578.4287   -45761.615   0.15811551 
   93000    297.19138   -332.51005    132494.97   -42118.584    3627.6419   -45746.226   0.14894503 
   93200    294.00959   -295.15773     132485.2   -42121.171    3588.8037   -45709.975   0.15631778 
   93400    297.55067   -688.09161    132943.78   -42119.049    3632.0276   -45751.077   0.16112988 
   93600    297.07062   -668.69965    132903.32   -42100.455    3626.1679   -45726.623   0.16194613 
   93800    295.79687   -269.26014     132435.2   -42104.525      3610.62   -45715.145   0.15843112 
   94000     296.2311   -386.76918    132541.29    -42108.94    3615.9204    -45724.86   0.15227419 
   94200    301.01437   -767.74775    133016.99   -42180.992     3674.307   -45855.299   0.15614023 
   94400    296.12226   -576.62284    132783.24   -42167.174    3614.5918   -45781.766    0.1524594 
   94600    293.41492   -204.98855    132315.66   -42164.484    3581.5449   -45746.029   0.15665594 
   94800    293.82839   -435.86518    132626.53   -42219.063    3586.5918   -45805.655   0.15290501 
   95000    292.20724   -840.78042    133015.88   -42223.133    3566.8035   -45789.936   0.15496277 
   95200    293.75292   -473.72819    132613.27   -42227.815    3585.6707   -45813.485   0.15717397 
   95400    299.68474   -166.86085    132315.53   -42247.645    3658.0769   -45905.721   0.14281306 
   95600    291.94382   -639.96458    132802.19   -42202.776    3563.5881   -45766.364    0.1581828 
   95800    297.82701   -730.33473    133006.92   -42167.034    3635.4007   -45802.435   0.15213525 
   96000    297.00962   -335.97331    132496.74   -42167.146    3625.4234    -45792.57   0.15438108 
   96200    298.54372   -237.82152    132380.31   -42197.774    3644.1492   -45841.923   0.15084355 
   96400    295.56233   -650.98818    132911.71   -42188.919    3607.7571   -45796.677   0.15245616 
   96600    293.23694   -734.04369    132951.08   -42200.768    3579.3724    -45780.14   0.16041779 
   96800    286.88648   -303.46282    132414.48   -42255.628    3501.8561   -45757.484   0.15184728 
   97000    289.28994   -278.28819     132411.2   -42242.505    3531.1937   -45773.699    0.1513994 
   97200    293.52268    -753.9873     132939.8   -42228.471    3582.8603   -45811.331   0.15511339 
   97400    290.71998   -668.78026     132857.4   -42185.076    3548.6493   -45733.726   0.15666565 
   97600    294.87477   -233.67356     132375.8   -42163.773    3599.3645   -45763.138   0.15349704 
   97800    298.93281    -398.6314    132549.63   -42159.179    3648.8986   -45808.077   0.15410078 
   98000    298.19198   -759.71518    132987.62   -42128.897    3639.8557   -45768.753   0.15826645 
   98200     297.9012   -560.57989    132782.31   -42141.615    3636.3063   -45777.921   0.15412656 
   98400    298.64598   -226.74028    132419.52   -42076.108    3645.3974   -45721.506   0.15251588 
   98600    297.41073   -498.65401     132653.8   -42120.865    3630.3194   -45751.185   0.15841005 
   98800    297.36861   -706.05255    132915.01    -42082.77    3629.8053   -45712.575   0.15915395 
   99000    297.00322   -497.14155    132677.66   -42087.871    3625.3452   -45713.216   0.16247837 
   99200    293.37932   -346.19735    132478.32   -42155.584    3581.1104   -45736.694   0.15716805 
   99400    292.77588   -546.89155    132672.44   -42240.381    3573.7446   -45814.126   0.15090613 
   99600    290.00104    -593.5649    132781.87   -42260.193    3539.8737   -45800.067   0.14949007 
   99800    291.49542   -452.59741    132624.89    -42228.43    3558.1147   -45786.545   0.15213407 
  100000     288.3211   -428.67933    132566.33   -42236.271    3519.3676   -45755.638   0.15666588 
  100200     293.7693   -564.43058    132713.02   -42197.779    3585.8706    -45783.65   0.15964115 
  100400    293.07036   -554.83623    132742.87   -42177.821    3577.3391    -45755.16   0.15523094 
  100600    299.01518    -464.5514    132640.56   -42136.068    3649.9041   -45785.972   0.15196586 
  100800     296.7936   -446.80469    132641.78   -42166.652    3622.7865   -45789.439   0.14968556 
  101000    296.34451   -533.39754    132720.09   -42157.009    3617.3047   -45774.313   0.15554777 
  101200    296.06082   -508.17393    132702.34   -42123.802    3613.8418   -45737.644   0.16056576 
  101400    293.70155     -465.853    132650.86   -42144.622    3585.0437   -45729.666   0.15634596 
  101600    296.22181   -455.98734    132658.99    -42153.49    3615.8069   -45769.297   0.15078877 
  101800    292.36796   -507.09165    132698.49   -42123.908    3568.7653   -45692.674   0.15491009 
  102000    292.77621   -518.92074    132709.22   -42133.712    3573.7485   -45707.461   0.15451473 
  102200    296.15314   -463.94398    132657.45   -42117.528    3614.9687   -45732.496   0.15909862 
  102400    299.96499   -450.30204     132663.9   -42068.569    3661.4978   -45730.066   0.15667889 
  102600    297.73027   -550.51257     132768.2   -42070.137    3634.2198   -45704.357   0.15639717 
  102800    300.00824   -549.73051    132753.07   -42089.367    3662.0258   -45751.393   0.15518532 
  103000    302.10121    -410.5178    132635.04   -42084.071    3687.5734   -45771.645   0.15034929 
  103200    299.63236   -489.64817    132679.76   -42066.266    3657.4376   -45723.704   0.15908343 
  103400    293.74497    -611.8552     132793.4   -42093.854    3585.5737   -45679.428   0.16281883 
  103600    295.30368   -510.51418    132696.59    -42099.87    3604.5999    -45704.47   0.15838102 
  103800    292.45959   -392.55029    132527.09   -42096.489    3569.8838   -45666.373   0.16063141 
  104000    297.40927   -474.60684    132655.44    -42108.18    3630.3016   -45738.481   0.15367253 
  104200    297.41429   -607.83993    132815.57   -42115.066    3630.3629   -45745.429   0.15767845 
  104400    293.71617   -541.77373    132627.86   -42136.634    3585.2221   -45721.856   0.15780877 
  104600    294.63278   -329.98605    132425.21   -42127.302    3596.4107   -45723.712   0.16180587 
  104800    297.01781   -535.56554    132669.18   -42121.844    3625.5233   -45747.367   0.16204904 
  105000     296.6697   -702.28712    132895.12   -42149.473    3621.2741   -45770.747   0.15524585 
  105200    288.19377     -463.395    132603.35   -42148.368    3517.8134   -45666.181   0.15707184 
  105400    292.16981   -259.24049    132399.44   -42143.465    3566.3465   -45709.812   0.15425773 
  105600    294.74851   -586.60285    132757.03   -42136.314    3597.8232   -45734.137   0.15895043 
  105800    296.08057   -740.15465    132918.56   -42155.837    3614.0829    -45769.92   0.16263926 
  106000     294.5561   -341.73792    132459.27   -42117.312    3595.4746   -45712.787   0.15716464 
  106200    297.51578   -276.26337    132347.71   -42101.291    3631.6017   -45732.893   0.15713684 
  106400    293.28699   -705.45582    132904.87    -42127.13    3579.9834   -45707.113   0.15926609 
  106600    296.74278    -777.9792    132949.01   -42127.898    3622.1662   -45750.064   0.15848004 
  106800    295.53987   -195.50974     132263.7   -42125.012    3607.4829   -45732.495   0.15994867 
  107000    299.56484   -228.18132    132287.19   -42084.235    3656.6134   -45740.849   0.15760491 
  107200    300.51638   -881.40826    133106.79   -42066.797    3668.2283   -45735.025   0.15753556 
  107400    298.81494   -777.46795    132970.93   -42073.525    3647.4598   -45720.985   0.16084243 
  107600     302.5306    17.832395    132074.08   -42057.487    3692.8147   -45750.301   0.15505865 
  107800    298.73251   -327.27208    132440.01    -42079.04    3646.4536   -45725.494   0.16278225 
  108000    297.12914   -1047.3651    133331.67   -42046.523    3626.8822   -45673.405    0.1629281 
  108200    297.42606    -627.6066    132803.48   -42084.489    3630.5066   -45714.995    0.1562507 
  108400    298.92971    29.701942    132020.99   -42087.387    3648.8607   -45736.247   0.15349382 
  108600     300.0146   -429.75691     132609.7   -42063.813    3662.1034   -45725.917   0.15654492 
  108800    300.79838   -949.19953     133212.1   -42072.591    3671.6705   -45744.262     0.160829 
  109000    295.53963    -464.9089     132628.3   -42112.353    3607.4801   -45719.833   0.15640703 
  109200    299.89609   -109.93005     132241.7    -42124.72    3660.6568   -45785.377   0.14896932 
  109400    295.00471   -548.98731     132749.9   -42100.331    3600.9505   -45701.282   0.15676002 
  109600     299.2595   -769.93499    132993.71   -42063.713    3652.8863     -45716.6   0.15918818 
  109800    298.06057   -420.75956    132611.87   -42119.296    3638.2516   -45757.548   0.15760431 
  110000     298.5026   -305.97787    132489.06   -42056.408    3643.6472   -45700.055   0.15535472 
  110200    302.92627   -558.07465    132834.17   -42042.978    3697.6444   -45740.622   0.15181066 
  110400    296.84246   -696.22687    132895.09   -42093.053    3623.3829   -45716.436   0.15943284 
  110600    293.87773   -382.85341    132521.05   -42167.611    3587.1941   -45754.805    0.1535873 
  110800    299.30218   -344.67751    132483.49   -42163.793    3653.4073     -45817.2   0.15325435 
  111000    297.38153     -607.079    132830.39   -42163.316     3629.963   -45793.279   0.15473492 
  111200    294.34085   -614.34586    132804.12   -42144.735    3592.8472   -45737.582   0.15599714 
  111400    289.07781   -353.67217    132452.91   -42197.949    3528.6044   -45726.554   0.15676733 
  111600    289.32578   -395.37828    132506.74   -42242.828    3531.6311   -45774.459   0.15022816 
  111800    290.80305   -691.32407    132837.31   -42270.788    3549.6633   -45820.451    0.1538954 
  112000     288.0601   -586.20547    132715.45   -42271.212    3516.1818   -45787.394   0.15513682 
  112200    291.72043   -294.84014    132386.71   -42226.962    3560.8613   -45787.824   0.15699679 
  112400     293.4421   -481.78765    132620.04   -42205.067    3581.8767   -45786.943   0.15461815 
  112600    293.85087   -716.05524     132939.5   -42176.904    3586.8663    -45763.77   0.15056681 
  112800    297.93166   -524.02942    132683.51   -42197.078    3636.6781   -45833.756   0.15377015 
  113000    301.18483   -287.71412    132404.14   -42178.203    3676.3877    -45854.59   0.15392057 
  113200    293.14992   -502.00087    132691.42   -42208.247    3578.3103   -45786.557   0.15806786 
  113400    294.09383   -689.82866    132901.13   -42187.571     3589.832   -45777.403    0.1541336 
  113600    297.66037      -414.33    132577.95   -42194.646    3633.3667   -45828.013   0.14864104 
  113800    296.62202   -333.60601    132436.33   -42179.227    3620.6921   -45799.919   0.15390694 
  114000    294.89028   -599.76408    132783.61   -42162.383    3599.5537   -45761.937   0.15723856 
  114200    290.49819   -709.30273    132880.53   -42173.363    3545.9421   -45719.305   0.16186612 
  114400    297.33683   -356.89653    132504.95   -42119.166    3629.4174   -45748.583   0.15280942 
  114600    297.98954    -383.9891    132458.09   -42097.011    3637.3846   -45734.396    0.1571836 
  114800    295.43694   -673.24316    132832.96   -42064.558    3606.2265   -45670.784   0.15959011 
  115000    298.18605   -661.81448    132827.35   -42088.476    3639.7833   -45728.259   0.15858528 
  115200    296.80664   -335.53032    132462.14   -42118.221    3622.9457   -45741.167   0.15607929 
  115400    295.19345   -399.09013    132534.47   -42134.774    3603.2544   -45738.028   0.15413293 
  115600    293.94606   -667.59306    132910.09   -42108.263    3588.0283   -45696.291   0.15492076 
  115800    294.05506   -598.40393    132785.94   -42128.184    3589.3588   -45717.543   0.15535607 
  116000    300.68917   -268.78082    132407.25   -42121.532    3670.3374    -45791.87   0.15312893 
  116200    294.35267   -473.24608    132619.16   -42136.676    3592.9915   -45729.668   0.15565422 
  116400    289.40964   -758.11506    132991.54   -42181.179    3532.6549   -45713.834   0.15930634 
  116600    294.17451   -523.55796    132674.75   -42200.591    3590.8167   -45791.407   0.15608822 
  116800    295.22181   -180.98498    132319.51   -42150.924    3603.6005   -45754.524   0.15161918 
  117000     297.3631   -537.98933    132711.77   -42170.737    3629.7381   -45800.475   0.15150918 
  117200    293.85137   -803.24167    133049.62   -42164.386    3586.8724   -45751.259   0.15684261 
  117400    294.84972   -480.89406    132605.36   -42180.536    3599.0587   -45779.595   0.15634517 
  117600    293.44383   -193.36932     132274.4   -42155.914    3581.8979   -45737.812   0.15684012 
  117800    294.26039   -576.31689     132801.6   -42116.818    3591.8651   -45708.683    0.1557957 
  118000     300.2409   -827.08366    133093.55   -42102.396    3664.8656   -45767.262   0.15891473 
  118200     297.2535   -347.38512    132492.14   -42149.252    3628.4003   -45777.653   0.15055806 
  118400    291.17306   -145.52834    132301.81   -42183.353    3554.1798   -45737.533   0.15180656 
  118600    291.86963   -723.67556    132934.41   -42207.748    3562.6825    -45770.43   0.15093307 
  118800    291.22428   -838.88417    133028.74   -42243.772     3554.805   -45798.577   0.15638307 
  119000    289.17276   -219.51561    132324.02   -42258.008    3529.7633   -45787.771   0.15193376 
  119200    292.68433   -173.73393     132311.5   -42261.021    3572.6271   -45833.648   0.14739448 
  119400    292.45688   -808.02983    133032.56   -42288.129    3569.8507    -45857.98   0.14780398 
  119600    296.22254   -730.50889    132950.36   -42229.058    3615.8159   -45844.874   0.14821149 
  119800     296.7472   -132.84907    132287.22   -42226.078    3622.2201   -45848.298   0.14719845 
  120000    290.20131   -355.07828    132474.53   -42252.655    3542.3182   -45794.973   0.15321964 
  120200     296.0511   -787.97305    133036.89   -42221.059    3613.7233   -45834.782   0.14707541 
  120400    290.96956   -599.22448    132788.81   -42259.092    3551.6959   -45810.788   0.15082583 
  120600    289.77883   -206.55576    132327.97   -42248.175    3537.1612   -45785.336   0.14806808 
  120800    291.71387   -430.23014    132622.27   -42246.801    3560.7812   -45807.582   0.15062375 
  121000    289.21965   -784.38961    132995.53   -42230.259    3530.3357   -45760.594    0.1562123 
  121200    293.89636   -506.82129    132699.76   -42239.719    3587.4216    -45827.14   0.14414337 
  121400      293.112   -271.62465    132411.95   -42232.987    3577.8473   -45810.834   0.14905672 
  121600    293.52586   -529.08663     132689.6   -42223.816    3582.8991   -45806.715   0.15076073 
  121800    292.84531   -719.65577    132918.68   -42218.908     3574.592     -45793.5   0.15235983 
  122000     292.7278   -495.67335    132677.01   -42200.977    3573.1576   -45774.135   0.14882326 
  122200    296.82942   -326.26939    132529.24   -42176.813    3623.2237   -45800.037   0.14303977 
  122400    295.16651   -582.92426    132776.52   -42133.735    3602.9255   -45736.661   0.15154486 
  122600    298.84212   -596.36364    132869.81   -42052.209    3647.7916   -45700.001    0.1533634 
  122800    301.89291    -417.7679    132652.98   -42049.836    3685.0308   -45734.867   0.15299193 
  123000    294.72205   -414.54675    132585.96   -42086.783    3597.5003   -45684.283   0.15733987 
  123200    300.43632   -571.50302    132795.49   -42111.041     3667.251   -45778.292   0.15017639 
  123400    294.36557   -676.71225    132835.51   -42192.268     3593.149   -45785.417   0.15372442 
  123600    290.15264    -437.2015    132569.05   -42151.198    3541.7242   -45692.922   0.15524134 
  123800    295.25173   -392.15226    132525.86   -42164.592    3603.9658   -45768.558   0.15272181 
  124000    296.58546    -599.3389    132779.01   -42141.815    3620.2459   -45762.061   0.15499693 
  124200    295.33568   -610.73191    132797.21   -42131.318    3604.9905   -45736.309   0.15255115 
  124400    293.83145   -417.32091    132573.59   -42153.623    3586.6292   -45740.252   0.15480904 
  124600    291.97158   -477.64152    132594.07   -42166.914    3563.9269   -45730.841    0.1566717 
  124800    290.15004   -619.52158    132764.05   -42172.348    3541.6925   -45714.041   0.16387716 
  125000    292.48642   -583.18046    132691.48   -42184.368    3570.2112   -45754.579   0.15626977 
  125200    296.18189   -366.50323    132539.85   -42174.046    3615.3197   -45789.366   0.14754285 
  125400    291.01462   -521.35418    132644.41   -42225.884    3552.2458    -45778.13   0.15294623 
  125600    286.76176   -600.51923    132772.47   -42235.346    3500.3337    -45735.68   0.15662354 
  125800     292.5889   -480.73402    132627.53   -42209.916    3571.4622   -45781.379   0.15672196 
  126000    291.26569   -421.94736    132531.86   -42197.172    3555.3105   -45752.483   0.15579675 
  126200    295.39132   -516.45195    132705.02   -42169.309    3605.6697   -45774.979   0.14923653 
  126400    295.07489    -575.5674    132765.25   -42198.589    3601.8072   -45800.396   0.15012159 
  126600    295.25643   -448.33148    132579.56   -42209.044    3604.0232   -45813.067   0.15084574 
  126800    295.65507    -405.7376    132516.77   -42190.295    3608.8892   -45799.184   0.15418823 
  127000    292.29422   -573.97288    132689.32   -42209.453    3567.8651   -45777.319   0.15365638 
  127200    300.30148   -539.95638    132732.86   -42242.048    3665.6051   -45907.653   0.14534861 
  127400    290.42981   -460.15999    132557.64   -42234.083    3545.1074    -45779.19   0.15592632 
  127600    293.18081   -416.42331     132531.2    -42231.35    3578.6873   -45810.038   0.15122738 
  127800    293.20274   -580.60282     132737.6   -42231.152     3578.955   -45810.107   0.14949969 
  128000    296.69998   -599.67444     132768.3   -42207.995    3621.6437   -45829.638   0.15476506 
  128200    292.77285     -407.356    132557.28   -42177.243    3573.7076    -45750.95   0.15270635 
  128400    297.27924   -402.29532     132567.1   -42211.659    3628.7145   -45840.373   0.15385539 
  128600     289.3053   -627.14486     132758.2   -42227.914    3531.3812   -45759.295   0.15654994 
  128800    294.61137   -522.92085    132666.21   -42285.909    3596.1492   -45882.058   0.14656139 
  129000    289.34284   -357.64061    132425.48   -42305.462    3531.8394   -45837.301   0.15135519 
  129200    291.45408   -432.97688    132587.14   -42283.619    3557.6101   -45841.229   0.14957966 
  129400    293.83693   -734.54935    132893.59   -42270.965    3586.6961   -45857.661   0.15612646 
  129600    292.38255   -494.11635     132665.3   -42256.614    3568.9434   -45825.558   0.14827439 
  129800    296.18734   -228.25594    132351.93   -42269.992    3615.3863   -45885.378   0.14120464 
  130000    290.17963     -524.807    132663.33    -42290.76    3542.0536   -45832.814   0.14745298 
  130200    288.09737   -745.70652    132945.22   -42290.225    3516.6367   -45806.862   0.15115288 
  130400    288.72369   -439.91035    132572.51   -42288.597    3524.2818   -45812.879   0.15444992 
  130600    294.71637   -249.21606    132358.31   -42247.425    3597.4309   -45844.856   0.14866183 
  130800    294.30214   -596.74746    132783.11   -42265.808    3592.3747   -45858.182   0.14703187 
  131000    293.06343    -688.5742    132939.13   -42287.694    3577.2545   -45864.948   0.14296491 
  131200     291.9928   -354.49495    132502.49   -42258.067    3564.1859   -45822.253   0.14485335 
  131400    289.53118   -280.45822    132399.24    -42268.73    3534.1383   -45802.868   0.15210893 
  131600    291.07629   -635.45614       132829   -42252.262    3552.9986   -45805.261   0.15090288 
  131800    289.42523   -697.32628    132862.03   -42227.921    3532.8451   -45760.766   0.15415496 
  132000    291.71878   -270.28104    132434.05   -42182.536    3560.8411   -45743.377   0.15233841 
  132200    294.99343   -390.90081    132522.68   -42202.439    3600.8129   -45803.252   0.14950537 
  132400    295.63317   -732.99458    132934.33   -42206.178    3608.6218     -45814.8   0.15576226 
  132600    294.13072   -590.25564     132768.1   -42166.932    3590.2822   -45757.214   0.15570243 
  132800    294.56738   -244.65575    132409.05   -42146.055    3595.6123   -45741.667   0.15253683 
  133000    290.70791   -426.23689     132696.3   -42131.616     3548.502   -45680.118    0.1523258 
  133200    295.25433   -792.01663    133040.79   -42102.203    3603.9975     -45706.2   0.15908531 
  133400    298.36838   -455.20391     132701.5   -42079.986    3642.0089   -45721.995   0.15466548 
  133600    297.10171   -261.62307    132423.77   -42085.892    3626.5474    -45712.44   0.15005565 
  133800    300.07982   -563.31828    132777.63   -42111.571    3662.8995    -45774.47   0.14953271 
  134000    298.69392   -692.92418    132991.71   -42063.154    3645.9826   -45709.136   0.15456837 
  134200    301.23179   -407.10109    132636.38   -42077.878    3676.9609   -45754.839   0.15259014 
  134400    295.35439   -285.37293    132467.67   -42068.785    3605.2189   -45674.004    0.1526128 
  134600    297.32593     -642.769    132849.56   -42090.153    3629.2843   -45719.437   0.15570626 
  134800    301.39931   -695.10762    132978.75   -42121.229    3679.0057   -45800.234   0.15033855 
  135000    295.12553   -372.25302    132531.13   -42195.593    3602.4253   -45798.018   0.15047763 
  135200     288.7891   -270.75744     132412.3   -42180.436    3525.0802   -45705.516   0.15220886 
  135400    289.16829   -667.87728    132889.38   -42192.217    3529.7088   -45721.926   0.15309521 
  135600    294.65287   -679.01673    132931.68   -42164.406    3596.6558   -45761.062   0.15101966 
  135800     288.6627   -308.18121    132441.74   -42241.843    3523.5374   -45765.381   0.14857259 
  136000    292.31006   -299.21871    132448.17   -42266.791    3568.0585   -45834.849   0.15009601 
  136200    288.65728   -758.22924     132925.9   -42259.508    3523.4711   -45782.979   0.15406169 
  136400    290.03272   -635.81627    132851.26   -42228.841    3540.2604   -45769.102   0.14964396 
  136600    291.98337   -284.67095    132406.73   -42175.225    3564.0708   -45739.296   0.15179743 
  136800    291.79425   -412.68112    132565.71   -42188.106    3561.7623   -45749.868   0.14998854 
  137000    291.77238   -786.20839    132992.65   -42191.347    3561.4953   -45752.842   0.15733101 
  137200    292.95018   -538.84557    132715.92   -42219.887    3575.8721   -45795.759   0.14656183 
  137400    299.58966   -180.38502    132285.03   -42186.195    3656.9163   -45843.111   0.14339274 
  137600    294.85669   -497.18537    132656.96   -42175.815    3599.1437   -45774.959   0.14685679 
  137800    293.42983   -817.08024    133061.14   -42135.306     3581.727   -45717.033   0.15500199 
  138000    294.36559   -423.77002    132620.02   -42161.125    3593.1492   -45754.274     0.151905 
  138200     297.2375   -155.33055    132292.75   -42205.675    3628.2049    -45833.88   0.14338039 
  138400    294.90077   -610.20518    132821.19   -42179.632    3599.6819   -45779.314   0.14458226 
  138600    293.13352   -818.10068    133094.66   -42192.545      3578.11   -45770.655   0.14607477 
  138800    297.90341   -314.64712    132501.05   -42129.846    3636.3333   -45766.179   0.14697312 
  139000    294.16077   -228.45509    132358.08   -42142.247     3590.649   -45732.896   0.15353952 
  139200     299.5078   -725.56735    133023.15   -42135.378    3655.9171   -45791.295   0.15043249 
  139400     296.7634   -815.70189    133071.53   -42162.971    3622.4179   -45785.389   0.15093561 
  139600    295.60566   -174.59353    132344.46   -42151.338    3608.2859   -45759.624   0.14448928 
  139800    299.04458   -215.22039     132374.4   -42108.425    3650.2629   -45758.688   0.14884689 
  140000    293.71859   -883.10028     133139.3   -42083.403    3585.2516   -45668.654   0.16088442 
  140200    297.29726   -746.64296    133012.15   -42118.273    3628.9344   -45747.207   0.15236191 
  140400    295.29284   -161.77442    132293.03   -42149.887    3604.4676   -45754.354   0.14887936 
  140600     294.2843   -301.30159    132477.48   -42152.273     3592.157    -45744.43   0.14787791 
  140800    292.35106   -841.52048    133088.79    -42139.14     3568.559   -45707.699   0.15242174 
  141000    298.06461    -619.0515    132821.67   -42182.126     3638.301   -45820.427    0.1467826 
  141200    293.96487    -146.8681    132309.47   -42141.128    3588.2579   -45729.386   0.14646031 
  141400    295.74697   -451.65913    132625.84   -42133.395    3610.0109   -45743.406   0.15173675 
  141600    296.97688   -817.22708       132991   -42110.261    3625.0236   -45735.284   0.15402035 
  141800    295.54584   -461.63884    132660.94   -42175.059    3607.5558   -45782.615   0.14150973 
  142000    289.33957   -285.84676    132410.94   -42176.923    3531.7995   -45708.723   0.14619913 
  142200    296.09833   -560.18702     132726.3    -42192.22    3614.2997    -45806.52   0.14716491 
  142400    295.63647   -689.34654    132910.03   -42187.338     3608.662       -45796   0.14978519 
  142600    292.39837   -458.26682    132634.54   -42159.477    3569.1365   -45728.613   0.15053274 
  142800    296.74402   -308.28217    132507.83    -42184.85    3622.1813   -45807.031   0.14407167 
  143000    293.98802    -585.3974    132736.69   -42214.139    3588.5404   -45802.679   0.14590686 
  143200      293.402   -632.82595    132784.04   -42201.286    3581.3872   -45782.673   0.14738396 
  143400    294.42313   -373.56143    132540.99   -42179.372    3593.8516   -45773.223   0.14941813 
  143600     299.9698   -391.47924    132559.68   -42158.936    3661.5566   -45820.492   0.15009676 
  143800    294.59643   -631.32671    132821.28    -42162.99    3595.9669   -45758.957   0.15198685 
  144000    295.03101   -568.85485    132758.81   -42145.635    3601.2716   -45746.906   0.14750089 
  144200    297.45123    -350.6816    132519.08   -42125.862    3630.8138   -45756.675   0.14782306 
  144400    294.46397   -467.97344    132671.97    -42121.17    3594.3501    -45715.52   0.15153318 
  144600    297.40703   -609.86596    132885.49   -42098.472    3630.2743   -45728.746   0.15658945 
  144800    291.05119   -543.32256    132696.12   -42082.606    3552.6923   -45635.298   0.15418487 
  145000    294.18498   -383.76088    132511.51   -42127.111    3590.9446   -45718.056   0.14776385 
  145200    295.89346   -498.15032    132721.01   -42154.939     3611.799   -45766.738   0.14391763 
  145400    293.02739   -645.02652     132859.1   -42149.579    3576.8146   -45726.393   0.15227896 
  145600    296.05765   -472.31284    132609.08   -42174.091    3613.8031   -45787.894   0.15090785 
  145800    294.45593   -402.73678    132507.33   -42196.112    3594.2519   -45790.364   0.14690902 
  146000    291.19562   -589.41538    132767.38   -42174.063    3554.4552   -45728.518   0.14794029 
  146200    289.15837   -645.64781    132820.98   -42204.342    3529.5877    -45733.93   0.14591346 
  146400     292.6249   -363.54606    132507.68   -42159.439    3571.9015    -45731.34   0.14726334 
  146600    295.25058   -380.11034    132508.91    -42111.74    3603.9517   -45715.692   0.15653916 
  146800    295.89774    -640.0118    132895.22   -42072.193    3611.8513   -45684.044    0.1550458 
  147000    295.41894   -691.12728    132881.26   -42072.325    3606.0068   -45678.332   0.15775613 
  147200    300.72538     -276.766     132466.1   -42052.431    3670.7794   -45723.211   0.14699478 
  147400    298.73775   -370.77908     132530.7   -42104.877    3646.5176   -45751.394   0.15155466 
  147600    296.86464   -746.16876    132938.36    -42130.91    3623.6536   -45754.563   0.15821501 
  147800    295.13647   -609.02767    132793.22   -42172.852    3602.5588   -45775.411   0.15290711 
  148000    295.63735   -230.88764    132369.89   -42141.942    3608.6729   -45750.614   0.15454308 
  148200     290.8523   -434.18728     132639.4   -42194.136    3550.2645   -45744.401   0.14791392 
  148400    291.05038   -850.25611    133107.63   -42211.193    3552.6823   -45763.875   0.15116599 
  148600    290.93666   -475.29575    132655.85   -42186.394    3551.2942   -45737.688   0.14773972 
  148800    298.07105   -21.492823    132158.04   -42202.703    3638.3795   -45841.083    0.1429974 
  149000    295.60071   -615.00214    132769.77   -42207.692    3608.2256   -45815.917    0.1512684 
  149200     292.8778   -990.37829    133241.14   -42220.902    3574.9886    -45795.89   0.15452732 
  149400    295.52054    -288.2706    132422.79    -42248.46     3607.247   -45855.707   0.14644984 
  149600    295.32544    26.399446    132030.64    -42229.25    3604.8655   -45834.116   0.14290779 
  149800    289.38822   -819.70992    133019.15   -42237.495    3532.3933   -45769.888   0.14946698 
  150000    295.94611   -1002.7158    133257.21   -42174.298    3612.4417    -45786.74   0.15094376 
  150200    297.90397   -122.00625    132191.77   -42127.265    3636.3401   -45763.605   0.15261422 
  150400    297.57807   -61.557443    132162.95   -42131.405     3632.362   -45763.767    0.1485596 
  150600    293.92641   -975.45873    133211.09    -42134.82    3587.7883   -45722.608   0.15332737 
  150800    303.82335   -771.99418    133061.22   -42127.362    3708.5946   -45835.957   0.14571936 
  151000    292.97027   -79.482697    132204.01   -42159.472    3576.1173   -45735.589    0.1502444 
  151200    294.48431    -310.4492    132442.55   -42145.835    3594.5984   -45740.434   0.15547577 
  151400    297.51739   -845.20564    133119.01   -42066.025    3631.6214   -45697.646   0.15663207 
  151600    300.18698   -657.75753    132871.46   -42051.985    3664.2075   -45716.193   0.15077851 
  151800    300.16241   -186.16396     132382.8   -42023.023    3663.9076   -45686.931   0.15173237 
  152000    300.34027   -425.36011    132658.11   -42048.172    3666.0787   -45714.251    0.1531841 
  152200    296.75537    -745.6344    132985.02   -42065.326    3622.3198   -45687.645   0.16483621 
  152400    294.05322   -496.40443    132670.19   -42106.897    3589.3362   -45696.233    0.1544946 
  152600    297.39336   -254.21985    132418.72   -42099.193    3630.1075     -45729.3   0.15086158 
  152800    299.22127   -537.10163    132772.55   -42037.508    3652.4197   -45689.928   0.15339593 
  153000    296.11902   -755.29026    133004.72   -42086.303    3614.5522   -45700.855   0.15780906 
  153200    300.63107   -430.31711    132617.03   -42032.769    3669.6283   -45702.398   0.16440666 
  153400    301.53608   -234.56347     132445.7   -42082.205    3680.6752    -45762.88   0.15059572 
  153600     296.2621   -595.87034    132816.53   -42119.976    3616.2988   -45736.275   0.14937261 
  153800    294.98197   -699.33899    132899.88   -42124.463    3600.6729   -45725.135   0.15020975 
  154000    295.51826   -353.48546    132500.48   -42160.321    3607.2192    -45767.54   0.14813502 
  154200    299.94782   -312.49775    132481.93   -42114.162    3661.2882    -45775.45   0.15140623 
  154400    294.63353   -659.23823    132903.69   -42092.152    3596.4198   -45688.572   0.15585872 
  154600    294.24212   -648.76382    132864.35   -42111.265     3591.642   -45702.907   0.15366932 
  154800      296.852   -329.86842     132439.2   -42146.102    3623.4993   -45769.602   0.14660147 
  155000    300.33519   -372.40024    132532.14   -42119.513    3666.0166    -45785.53   0.14918157 
[...]
  163000    291.09171    -636.9268    132860.67   -42194.649    3553.1868   -45747.836   0.15105681 
  163200    293.65322   -239.96274    132338.72   -42189.085    3584.4537   -45773.538   0.15364207 
  163400    298.30826   -401.76749    132544.54   -42217.499     3641.275   -45858.774   0.14796927 
  163600    285.67914   -773.31912    132965.36   -42178.893    3487.1188   -45666.012   0.15676263 
  163800    292.24914   -555.83538    132739.61   -42243.623    3567.3149   -45810.938   0.15011208 
  164000    295.12732   -261.90721    132391.97   -42239.684    3602.4472   -45842.131    0.1470546 
  164200    292.69635   -456.54795    132594.15   -42250.362    3572.7737   -45823.136   0.14896569 
  164400    290.48547     -667.107     132862.5   -42202.046    3545.7868   -45747.833   0.15116913 
  164600    297.72783   -490.12536    132664.96   -42169.118    3634.1901   -45803.308   0.14746026 
  164800    291.33612   -335.32003    132461.04   -42216.226    3556.1702   -45772.396   0.14799712 
  165000     290.4131   -517.86083    132687.28   -42202.697    3544.9035     -45747.6   0.14904384 
  165200    292.47457   -654.69603     132849.2   -42186.431    3570.0667   -45756.498   0.15221231 
  165400     299.0075   -477.34037    132598.71   -42204.234    3649.8103   -45854.045   0.14751384 
  165600    298.99393   -328.80239    132478.95   -42159.876    3649.6447   -45809.521   0.14940329 
  165800    291.06186   -590.45714     132740.4   -42160.354    3552.8225   -45713.177   0.15303181 
  166000    297.81216   -609.64027    132827.15   -42124.198    3635.2194   -45759.417   0.14774153 
  166200    293.32002   -383.29296    132556.56   -42169.836    3580.3866   -45750.223   0.14980245 
  166400    298.13097   -322.12077    132485.92   -42164.448    3639.1109   -45803.558   0.14873659 
  166600    290.67523   -621.02923    132791.31   -42160.734    3548.1031   -45708.838   0.15674469 
  166800    288.76001   -626.62097    132808.23   -42225.454    3524.7252   -45750.179   0.14803963 
  167000    293.74082   -290.44842    132462.86    -42216.36     3585.523   -45801.883    0.1420973 
  167200    291.93024   -398.29145    132503.97   -42180.637    3563.4223   -45744.059   0.15469339 
  167400    296.73849   -678.14226     132887.4   -42203.775    3622.1138   -45825.889   0.15172771 
  167600    292.22382   -616.41857    132812.49   -42199.856    3567.0058   -45766.862   0.15276385 
  167800     289.1673   -371.41325    132441.57    -42248.63    3529.6967   -45778.327   0.14976289 
  168000     292.8067    -434.9076    132524.56   -42262.701    3574.1207   -45836.822   0.14536312 
  168200    290.97757   -677.04322    132826.34   -42246.733    3551.7936   -45798.527   0.15387877 
  168400     292.7727   -559.33815    132684.93   -42225.141    3573.7058   -45798.847    0.1517132 
  168600    294.68585   -312.92286    132403.97   -42184.147    3597.0584   -45781.206   0.15018981 
  168800    287.95067   -489.36026     132572.7   -42248.835     3514.846   -45763.681    0.1496575 
  169000     286.0146   -680.72175    132814.96   -42237.182    3491.2135   -45728.396    0.1498618 
  169200     288.0224   -491.21572    132624.35   -42219.797    3515.7215   -45735.519     0.148893 
  169400    293.33395   -384.75138    132460.92   -42237.143    3580.5565     -45817.7   0.14661796 
  169600    290.73446   -555.44278    132703.98   -42248.183    3548.8261   -45797.009   0.14427997 
  169800    294.43288   -676.77371    132849.75   -42245.017    3593.9706   -45838.988   0.14789464 
  170000    289.66905   -428.39255    132507.64   -42285.601    3535.8213   -45821.422   0.14325511 
  170200      289.009   -293.66642    132355.99   -42291.288    3527.7644   -45819.052   0.14348091 
  170400    292.35697   -622.75285    132773.71   -42276.715    3568.6312   -45845.347   0.14341836 
  170600    290.24133   -715.45148    132889.34   -42247.062    3542.8067   -45789.869   0.14855336 
  170800    286.42373    -282.3803    132393.71   -42283.032    3496.2075    -45779.24    0.1462491 
  171000    287.07552   -296.60609    132397.98   -42266.505    3504.1635   -45770.669   0.14644447 
  171200    290.62372    -835.6167    133021.25   -42282.278    3547.4744   -45829.752   0.14960786 
  171400    288.06454   -676.90593    132851.55    -42286.52     3516.236   -45802.756   0.14763434 
  171600    295.59031   -68.216552    132130.37   -42262.421    3608.0987   -45870.519   0.14282651 
  171800    287.10714   -341.45372    132476.39    -42231.24    3504.5496   -45735.789   0.14584486 
  172000    288.81494   -1023.0061    133250.43    -42227.39    3525.3956   -45752.786   0.15453127 
  172200    291.51476    -586.2701    132746.75   -42265.385    3558.3508   -45823.735   0.14677953 
  172400    294.73708    65.721061    132055.48   -42242.009    3597.6837   -45839.693   0.13840821 
  172600     294.1358    -505.0627    132707.11    -42206.53    3590.3442   -45796.874   0.14281713 
  172800    290.83155   -987.38602    133280.57   -42206.087    3550.0113   -45756.098   0.14891786 
  173000    298.10934   -417.02513    132554.51   -42224.703     3638.847    -45863.55   0.14384838 
  173200    288.90403   -50.680714     132110.7    -42260.98    3526.4832   -45787.463   0.14215906 
  173400    293.22367   -645.09957     132806.3    -42259.55    3579.2105    -45838.76   0.14366742 
  173600    295.74355   -910.82382    133096.06   -42209.852    3609.9692   -45819.821   0.14881583 
  173800    292.26479   -311.68516    132456.83   -42205.318     3567.506   -45772.824   0.14499125 
  174000    297.15807   -149.63982    132308.14   -42173.856    3627.2353   -45801.091   0.14334288 
  174200    294.01344   -685.51045    132911.27   -42156.585    3588.8507   -45745.436   0.15017222 
  174400    293.15981   -732.65132    132971.86   -42143.897    3578.4309   -45722.328   0.14862859 
  174600    291.59266   -332.97701    132451.71   -42151.487    3559.3016   -45710.789   0.14799242 
  174800    294.96627   -338.69745    132461.52   -42135.392    3600.4814   -45735.874   0.14964312 
  175000    292.68121   -726.50605    132896.24   -42161.863    3572.5889   -45734.452   0.15252688 
  175200    292.28269   -593.42471    132805.79   -42165.051    3567.7244   -45732.776   0.14562093 
  175400    292.47789   -303.61505    132468.42   -42184.123    3570.1071    -45754.23   0.14238306 
  175600     294.7305   -463.08167     132628.2   -42192.388    3597.6034   -45789.991   0.14331681 
  175800    295.27476   -663.51123    132896.79   -42161.669    3604.2469   -45765.916   0.14691348 
  176000    292.57295   -476.27516    132709.61   -42171.739    3571.2674   -45743.006   0.14553417 
  176200    297.21892     -335.103    132564.75   -42121.051    3627.9781   -45749.029   0.14489373 
  176400    295.78116   -555.60124    132800.88   -42135.231    3610.4282    -45745.66   0.14351109 
  176600    296.54757   -624.35777    132894.04   -42122.376    3619.7833   -45742.159   0.14458221 
  176800    295.41306   -463.46487     132656.1   -42145.837     3605.935   -45751.772   0.14481829 
  177000    303.31301   -344.61863    132571.12   -42139.093    3702.3651   -45841.458   0.14070272 
  177200    294.82826     -605.292    132822.11   -42171.247    3598.7967   -45770.043   0.14893017 
  177400    288.02099   -665.57077     132839.2   -42233.423    3515.7044   -45749.128   0.14722881 
  177600    290.16785   -372.11042    132553.84   -42228.458    3541.9098   -45770.367   0.14493863 
  177800     289.6002   -401.49826    132583.54   -42190.626    3534.9808   -45725.606   0.14574318 
  178000    296.74712   -649.60987    132864.34   -42166.426    3622.2191   -45788.645   0.14599108 
  178200    293.19189   -647.59757    132811.88   -42173.236    3578.8225   -45752.059   0.15266141 
  178400    293.57072   -316.20086    132522.54   -42185.918    3583.4467   -45769.365   0.14654658 
  178600    297.38219   -448.80723    132614.46   -42171.121     3629.971   -45801.092   0.14609477 
  178800    293.47344   -634.69055    132885.33   -42154.419    3582.2593   -45736.679   0.14716384 
  179000    300.19655   -534.91192    132736.78   -42121.445    3664.3243   -45785.769   0.14444347 
  179200    293.31336   -325.57653    132450.92   -42152.797    3580.3052   -45733.102   0.15213219 
  179400    296.77783   -440.04243    132638.15   -42138.973     3622.594   -45761.567   0.14841663 
  179600    295.55735   -701.08127    132934.63   -42140.661    3607.6963   -45748.357   0.15162569 
  179800    297.75159   -503.63813    132697.66   -42158.236    3634.4801   -45792.716   0.14685799 
  180000    298.01917   -231.45273     132374.2   -42145.301    3637.7463   -45783.047    0.1446142 
  180200    296.98618   -530.72953    132707.81   -42092.282    3625.1372   -45717.419   0.15173046 
  180400    302.51191   -801.66117    133028.79   -42065.111    3692.5866   -45757.698   0.15075135 
  180600    292.67655   -460.58579    132609.19   -42114.399     3572.532   -45686.931   0.14973183 
  180800    296.42834   -201.60488    132287.63   -42109.873     3618.328   -45728.201   0.15558726 
  181000    295.65551   -637.72636    132865.47   -42143.376    3608.8944   -45752.271   0.15042143 
  181200    297.68563   -893.65431     133159.3   -42122.276     3633.675   -45755.951    0.1529896 
  181400    292.33654   -192.04127    132387.17   -42166.991    3568.3818   -45735.373   0.14102093 
  181600    292.48449   -41.029542    132175.31   -42186.733    3570.1876   -45756.921   0.14291094 
  181800    294.38079   -873.77139    133135.15   -42174.212    3593.3347   -45767.547   0.15195796 
  182000    292.66833   -953.89586    133226.96   -42147.759    3572.4317   -45720.191   0.15328012 
  182200    297.84744   -83.030076    132139.36   -42168.478    3635.6501   -45804.128   0.14629892 
  182400    296.84936   -92.670818    132215.03    -42177.65    3623.4671   -45801.117   0.14189839 
  182600    296.46234   -977.73813    133310.31   -42146.561     3618.743   -45765.304   0.14930307 
  182800    297.15604   -828.58425     133077.9   -42120.464    3627.2106   -45747.675    0.1555951 
  183000    298.77576   -35.306239    132138.19   -42099.744    3646.9816   -45746.725    0.1480934 
  183200    296.24176   -326.53789    132474.51   -42090.027    3616.0506   -45706.078   0.15088471 
  183400    296.17954   -917.77158    133227.46   -42090.759     3615.291    -45706.05   0.15409048 
  183600    297.21528   -592.43174    132819.46   -42131.314    3627.9337   -45759.248   0.14983739 
  183800     293.4796   -146.62849    132222.48   -42145.462    3582.3345   -45727.797   0.15406758 
  184000    298.59452   -446.48038    132661.07   -42175.682    3644.7693   -45820.451   0.14536806 
  184200    295.08215   -810.50671    133117.55   -42212.558    3601.8958   -45814.454   0.14942212 
  184400    292.82577   -473.19385    132649.31   -42201.849    3574.3535   -45776.202   0.14881904 
  184600    294.49156   -165.33001    132301.93   -42232.015    3594.6868   -45826.702   0.14341114 
  184800    297.24897   -615.37835    132787.14   -42211.348    3628.3449   -45839.693   0.15045502 
  185000    293.44729   -761.69964    133054.43    -42207.18      3581.94    -45789.12   0.14758296 
  185200    293.01262   -387.44391    132562.22   -42254.625    3576.6343   -45831.259   0.14359878 
  185400    294.36109    -217.5684    132349.37    -42234.53    3593.0942   -45827.624   0.14355531 
  185600    289.69775   -624.63701    132833.73   -42239.549    3536.1715   -45775.721   0.14600173 
  185800    294.00875   -679.03416    132958.49   -42193.895    3588.7934   -45782.688   0.14805087 
  186000    295.10183   -315.66911     132492.8   -42192.303     3602.136   -45794.439   0.14246776 
  186200    302.00033   -283.31928    132448.83   -42174.374     3686.342   -45860.716   0.14600911 
  186400    299.71592   -667.89227    132894.13   -42134.515    3658.4575   -45792.973   0.14570875 
  186600    295.59977   -635.72448    132860.43   -42147.014    3608.2141   -45755.228   0.14595728 
  186800    293.71855   -271.20437    132437.02   -42175.573    3585.2512   -45760.824   0.14708297 
  187000    294.29001   -399.23048    132541.48   -42136.294    3592.2266   -45728.521   0.14993707 
  187200    293.12592   -709.72915    132940.43   -42165.187    3578.0173   -45743.205   0.15185245 
  187400    295.60131   -616.41254    132781.79   -42149.665    3608.2329   -45757.898   0.15244702 
  187600     294.1386   -296.09942    132417.17   -42194.649    3590.3785   -45785.027   0.14921385 
  187800    289.96391   -463.61094    132608.34   -42194.209    3539.4204   -45733.629   0.15150035 
  188000    296.16623   -733.17523     132940.3   -42162.067    3615.1286   -45777.196    0.1538139 
  188200    295.76796   -524.20702    132680.58   -42136.274    3610.2671   -45746.541   0.15333988 
  188400    296.00339   -282.75188    132428.46   -42126.977    3613.1408   -45740.118      0.15354 
  188600    299.07849   -499.96745    132754.62   -42134.551    3650.6768   -45785.228   0.14815237 
  188800    299.56822   -715.39672    132936.19     -42142.6    3656.6547   -45799.255   0.15432521 
  189000    296.96677   -407.73523    132532.32   -42144.252    3624.9002   -45769.152   0.14861031 
  189200    295.07874   -253.92777    132406.21   -42147.134    3601.8542   -45748.989   0.14828828 
  189400    300.17306   -566.47644    132821.57   -42134.328    3664.0376   -45798.366   0.15035053 
  189600     295.9951   -717.72087       132911   -42125.971    3613.0397   -45739.011   0.15109985 
  189800     293.7429   -360.26491    132524.32   -42169.785    3585.5484   -45755.334   0.14677936 
  190000    297.90742   -346.18388    132487.83   -42194.796    3636.3823   -45831.178   0.14609836 
  190200    295.34272    -647.3492    132849.28    -42172.46    3605.0765   -45777.537   0.15127217 
  190400    292.94638   -631.52274    132850.35   -42176.187    3575.8258   -45752.013    0.1525041 
  190600    294.66901   -377.14317    132507.26   -42129.861    3596.8528   -45726.714   0.14948218 
  190800    293.01871   -356.65008    132547.94   -42124.468    3576.7086   -45701.177   0.15043759 
  191000    295.18819    -673.9648    132857.63   -42164.267    3603.1902   -45767.457   0.15519845 
  191200    297.35185   -550.66786    132726.42   -42172.808    3629.6007   -45802.409   0.14956054 
  191400    293.18065    -300.1235     132419.6   -42185.282    3578.6853   -45763.967   0.15317336 
  191600      294.871   -491.69793    132627.66   -42130.181    3599.3184     -45729.5    0.1525936 
  191800     295.7301   -708.43111    132899.89   -42162.996     3609.805   -45772.801   0.15492788 
  192000    290.26481   -518.61195    132656.97   -42179.022    3543.0933   -45722.116   0.15815606 
  192200    295.43069   -321.81034    132437.55   -42145.145    3606.1503   -45751.295   0.15528795 
  192400    295.84699   -574.36058    132716.21   -42146.814    3611.2318   -45758.046   0.15513987 
  192600    293.67729   -636.46409     132881.6   -42184.827    3584.7475   -45769.574   0.14777508 
  192800    290.26151   -477.74015    132606.59   -42162.656    3543.0531   -45705.709   0.15548216 
  193000    294.13564   -340.01633    132505.96    -42153.62    3590.3423   -45743.962   0.15136605 
  193200    295.47379   -589.28072    132794.75   -42122.114    3606.6763    -45728.79   0.14996023 
  193400    299.40758   -636.13235    132843.48   -42107.363    3654.6938   -45762.057   0.15684278 
  193600    297.44616   -389.35544    132534.43   -42133.776    3630.7519   -45764.528   0.15018389 
  193800    298.39365   -355.87265    132515.84    -42158.81    3642.3174   -45801.128   0.15016151 
  194000    296.64757   -658.92689    132815.06   -42195.164     3621.004   -45816.168   0.14929499 
  194200    294.43799   -575.02226    132759.01   -42167.766     3594.033   -45761.799   0.15279072 
  194400    288.97142   -391.14926    132446.77    -42163.13    3527.3057   -45690.436   0.15925304 
  194600    296.32971   -362.95034    132517.58   -42164.591    3617.1241   -45781.715    0.1518162 
  194800    289.91908   -667.82832    132845.67   -42166.448    3538.8732   -45705.321   0.15604771 
  195000    300.09847   -526.03641    132725.71   -42146.442    3663.1271   -45809.569   0.14660074 
  195200    297.77656   -245.85552    132434.26   -42118.773    3634.7849   -45753.558   0.14849219 
  195400    294.98052   -549.03419    132629.88    -42140.76    3600.6553   -45741.415   0.15554075 
  195600    295.12462   -662.09236    132924.73   -42143.618    3602.4143   -45746.032   0.15289497 
  195800     288.9376   -526.94836     132683.8   -42182.662    3526.8929   -45709.555   0.15415177 
  196000    295.16587   -254.64114    132387.39   -42168.742    3602.9178    -45771.66    0.1463153 
  196200    293.88542   -529.49428    132692.62   -42130.903    3587.2881   -45718.191   0.15094742 
  196400     296.4742   -768.95606    132991.88   -42151.379    3618.8877   -45770.267   0.15263636 
  196600    291.61868   -451.47228    132600.12   -42202.133    3559.6192   -45761.752   0.14799175 
  196800    294.52401   -248.11522    132303.66   -42192.075     3595.083   -45787.158   0.14845327 
  197000    297.89062   -542.57178    132743.76   -42197.325    3636.1772   -45833.503   0.14998321 
  197200    291.71484    -795.8999    133024.72   -42230.951    3560.7931   -45791.744   0.14902539 
  197400     289.3998   -407.06802    132503.08   -42229.166    3532.5346     -45761.7   0.15056419 
  197600    295.33964   -103.11538    132263.25   -42164.039    3605.0388   -45769.078    0.1443553 
  197800    300.46396   -711.51036    132946.91   -42127.024    3667.5885   -45794.612   0.14640118 
  198000    301.09797     -869.151    133128.69   -42149.246    3675.3274   -45824.573   0.15238346 
  198200    291.81296    -201.3332    132342.31   -42179.001    3561.9907   -45740.992   0.14711684 
  198400    298.64789   -191.61583    132289.98   -42119.021    3645.4208   -45764.442   0.14938545 
  198600     298.9117   -821.78786    133092.93   -42090.505    3648.6409   -45739.146   0.15525539 
  198800    298.38823   -774.39097    133018.97   -42127.318    3642.2513   -45769.569   0.15072837 
  199000    296.18389   -169.31114    132255.55   -42123.023    3615.3442   -45738.367   0.14959739 
  199200    298.93556   -263.07794    132464.81   -42132.131    3648.9321   -45781.063   0.14049791 
  199400    294.02064   -874.29366    133174.42   -42132.045    3588.9386   -45720.984   0.14873762 
  199600    294.30874   -655.66141    132880.74   -42160.172    3592.4553   -45752.628   0.14822314 
  199800     299.6075   -76.895941     132266.5   -42143.332    3657.1341   -45800.466   0.14107802 
  200000    296.56277   -490.67622    132646.03   -42146.446    3619.9689   -45766.415   0.14769726 
Loop time of 106.997 on 6 procs for 200000 steps with 4096 atoms

Performance: 807.503 ns/day, 0.030 hours/ns, 1869.219 timesteps/s
97.6% CPU use with 6 MPI tasks x no OpenMP threads

MPI task timing breakdown:
Section |  min time  |  avg time  |  max time  |%varavg| %total
---------------------------------------------------------------
Pair    | 68.043     | 70.099     | 73.615     |  23.5 | 65.52
Neigh   | 11.088     | 11.321     | 11.698     |   8.0 | 10.58
Comm    | 11.637     | 15.494     | 17.672     |  55.2 | 14.48
Output  | 2.8562     | 2.8577     | 2.8642     |   0.2 |  2.67
Modify  | 5.6851     | 5.7389     | 5.7622     |   1.2 |  5.36
Other   |            | 1.486      |            |       |  1.39

Nlocal:        682.667 ave         707 max         669 min
Histogram: 2 1 1 0 0 0 0 0 1 1
Nghost:        1377.50 ave        1416 max        1351 min
Histogram: 1 1 2 0 0 0 0 0 1 1
Neighs:        0.00000 ave           0 max           0 min
Histogram: 6 0 0 0 0 0 0 0 0 0
FullNghs:      19442.3 ave       20131 max       19030 min
Histogram: 2 1 1 0 0 0 0 0 1 1

Total # of neighbors = 116654
Ave neighs/atom = 28.479980
Neighbor list builds = 12635
Dangerous builds = 0

Total wall time: 0:02:40
