
# Define the lattice
#
variable	    lattice_constant equal 6.36339
lattice		    diamond ${lattice_constant}
lattice		    diamond 6.36339
Lattice spacing in x,y,z = 6.3633900 6.3633900 6.3633900

# Define region
# multiples of lattice spacing
#
region 		    simbox block 0 8 0 8 0 8

# Create Atoms
#
create_box          1 simbox
Created orthogonal box = (0.0000000 0.0000000 0.0000000) to (50.907120 50.907120 50.907120)
  1 by 2 by 3 MPI processor grid
create_atoms        1 box
Created 4096 atoms
  create_atoms CPU = 0.000 seconds
mass                1 18.015

# Define potential
#
pair_style          sw
pair_coeff          * * ML_mW.sw mW
Reading sw potential file ML_mW.sw with DATE: 2019-02-27

# Add velocity/set timestep
#
velocity            all create ${TEMP} 120598 rot yes dist gaussian
velocity            all create 295 120598 rot yes dist gaussian
timestep            5.0

# Define output
#
compute	            1 all msd
thermo              100
thermo_style        custom step temp press vol etotal ke pe c_1[4]

# Neighbor lists
#
neigh_modify        delay 0 every 1 check yes

# Set fixes
#
fix                 1 all momentum 10 linear 1 1 1 rescale
fix                 2 all nve
fix                 3 all temp/csvr ${TEMP} ${TEMP} 500.0 928347
fix                 3 all temp/csvr 295 ${TEMP} 500.0 928347
fix                 3 all temp/csvr 295 295 500.0 928347
fix                 4 all press/berendsen iso ${PRES} ${PRES} 1000.0 modulus 20000
fix                 4 all press/berendsen iso -500 ${PRES} 1000.0 modulus 20000
fix                 4 all press/berendsen iso -500 -500 1000.0 modulus 20000

# Run 0.5 ns equilibration
#
dump		    1 all custom 1000 eq.${NAME}.dump id type x y z vx vy vz
dump		    1 all custom 1000 eq.ice_295K_500atm_ML.dump id type x y z vx vy vz
run                 100000
Neighbor list info ...
  update every 1 steps, delay 0 steps, check yes
  max neighbors/atom: 2000, page size: 100000
  master list distance cutoff = 6.0032907
  ghost atom cutoff = 6.0032907
  binsize = 3.0016454, bins = 17 17 17
  1 neighbor lists, perpetual/occasional/extra = 1 0 0
  (1) pair sw, perpetual
      attributes: full, newton on
      pair build: full/bin/atomonly
      stencil: full/bin/3d
      bin: standard
Per MPI rank memory allocation (min/avg/max) = 4.800 | 4.800 | 4.801 Mbytes
Step Temp Press Volume TotEng KinEng PotEng c_1[4] 
       0          295   -614.60003    131927.58   -46085.493    3600.8931   -49686.386            0 
     100    200.18529   -359.53978    131847.82    -44622.39    2443.5452   -47065.935    0.1012681 
     200    231.37083   -403.46523    132116.47   -43748.457    2824.2089   -46572.666   0.11363101 
     300    248.24629   -426.10749    132265.35   -43173.435    3030.1978   -46203.633   0.13856108 
     400    262.09904   -554.55389    132389.51    -42831.77    3199.2902    -46031.06   0.14799141 
     500    278.61574    -494.4579    132519.71   -42586.664    3400.8999   -45987.564   0.13460286 
     600     284.9336   -541.23716    132569.43   -42302.253    3478.0184   -45780.271    0.1659637 
     700    298.38832   -472.49962    132636.93   -42265.533    3642.2523   -45907.785   0.15149105 
     800    297.37303   -460.07845    132619.43   -42162.218    3629.8593   -45792.077   0.16321772 
     900    293.54736   -504.59318    132642.46   -42153.729    3583.1615    -45736.89   0.16990977 
    1000    302.82867   -389.05327    132625.83   -42220.658    3696.4531   -45917.111   0.12973019 
    1100    298.37102   -493.86649    132649.19   -42165.363    3642.0412   -45807.405   0.15883156 
    1200    300.98702     -519.735    132625.75   -42133.446    3673.9731    -45807.42   0.14930966 
    1300    298.44204   -566.64097    132671.57   -42075.533     3642.908   -45718.441   0.16968194 
    1400     299.0643   -477.49973    132660.51   -42138.124    3650.5036   -45788.627   0.15783294 
    1500     296.2514   -470.96411    132665.64   -42205.293    3616.1682   -45821.461   0.13832709 
    1600    291.94446   -495.90458    132651.71   -42151.661    3563.5959   -45715.256   0.16730275 
    1700    298.00041   -449.20054    132654.45   -42166.382    3637.5173     -45803.9   0.14185626 
    1800    297.70479   -445.46772    132643.95   -42122.395    3633.9088   -45756.304   0.16560929 
    1900    299.56944   -473.71543    132692.16   -42057.841    3656.6695   -45714.511   0.14914029 
    2000    306.78639   -449.49153    132709.11   -42017.243    3744.7626   -45762.005   0.15701992 
    2100    294.88546   -515.68263    132678.95   -42169.844     3599.495   -45769.339   0.16310523 
    2200    297.57418   -504.20123    132653.88   -42105.463    3632.3146   -45737.778   0.16208902 
    2300    295.86564   -488.82088    132695.54   -42056.869    3611.4594   -45668.329   0.17144422 
    2400    297.88179   -522.28589    132706.65   -42094.782    3636.0695   -45730.851   0.16004061 
    2500    303.22655   -467.10865    132700.65   -42114.947    3701.3098   -45816.257   0.14763888 
    2600    293.02972   -493.91105    132679.85   -42150.349     3576.843   -45727.192   0.16180048 
    2700    299.12598   -425.97242    132670.09    -42144.41    3651.2565   -45795.667   0.13434616 
    2800    296.55843   -499.73443    132676.72   -42051.643    3619.9159   -45671.559   0.17254814 
    2900     299.9885   -488.29351    132705.65    -42049.51    3661.7847   -45711.295   0.14863993 
    3000    296.42807   -482.27151     132675.2   -42106.785    3618.3247    -45725.11   0.15897394 
    3100    293.32908   -427.49301     132652.5   -42072.347    3580.4971   -45652.844    0.1623702 
    3200    301.41073   -480.69764    132627.09   -42169.072    3679.1451   -45848.217   0.14471171 
    3300    289.84285    -515.7579    132593.35   -42266.435    3537.9427   -45804.378   0.17129935 
    3400     295.3266   -525.49417    132638.15   -42200.989    3604.8797   -45805.869   0.14583292 
    3500    292.86303   -497.73517    132640.23    -42163.02    3574.8083   -45737.828    0.1629879 
    3600    295.67626   -456.00242    132670.28   -42160.437    3609.1478   -45769.585    0.1498278 
    3700    292.72947   -487.96179    132653.98   -42116.734    3573.1781   -45689.912   0.15351847 
    3800    292.62988   -511.69526    132651.28   -42106.436    3571.9624   -45678.399    0.1634203 
    3900     297.4118   -523.59211    132676.93   -42115.735    3630.3326   -45746.067   0.15493036 
    4000     294.7117   -486.71983    132664.23   -42156.021     3597.374   -45753.395   0.15217818 
    4100    287.98571   -493.12675    132680.26   -42167.818    3515.2737   -45683.092   0.16170128 
    4200     292.6672   -498.89629    132659.78   -42118.878    3572.4179   -45691.296   0.15112163 
    4300    293.02187   -535.65126    132663.21    -42251.36    3576.7472   -45828.108   0.16339011 
    4400    294.70851   -499.97101    132676.41   -42140.281     3597.335   -45737.616   0.14832411 
    4500    292.73283   -517.13017    132681.22   -42204.573     3573.219   -45777.792   0.15566576 
    4600     293.7975   -502.24391    132655.01     -42227.6    3586.2149   -45813.815   0.14828022 
    4700    296.72291   -485.18978    132675.06   -42134.242    3621.9236   -45756.166   0.15472359 
    4800    302.04168   -481.55771    132685.04    -42035.66    3686.8467   -45722.507   0.16331736 
    4900     295.4865   -500.82885    132721.06   -42009.609    3606.8315    -45616.44    0.1670224 
    5000    287.17142   -562.37575    132710.81   -42134.698    3505.3341   -45640.032   0.16356427 
    5100    296.27424   -518.56526    132733.08   -42065.272     3616.447   -45681.719   0.15338628 
    5200    297.73379   -481.16351    132735.99   -42137.019    3634.2628   -45771.282   0.15354303 
    5300     290.5574   -526.47354    132673.64   -42229.326    3546.6648   -45775.991   0.15134849 
    5400    299.79953   -491.90109    132692.22   -42205.849    3659.4781   -45865.327   0.15302954 
    5500    293.12913   -494.63921    132694.27   -42181.257    3578.0564   -45759.314    0.1506872 
    5600     297.0037   -473.28056    132667.86   -42210.818    3625.3511   -45836.169   0.15050643 
    5700    289.83369   -515.49335    132650.55   -42199.041    3537.8309   -45736.872   0.15607616 
    5800    297.50845   -482.16776    132687.94   -42142.491    3631.5122   -45774.003   0.15672371 
    5900    292.58223   -499.89047    132692.84   -42221.467    3571.3807   -45792.848   0.15024287 
    6000    299.07038   -469.26417    132685.44   -42207.066    3650.5778   -45857.644   0.15243689 
    6100    285.68406   -490.30205    132662.84   -42273.239    3487.1788   -45760.418    0.1410707 
    6200    291.71305   -479.38747    132642.02   -42254.466    3560.7712   -45815.237   0.15857268 
    6300    291.19321   -512.85854    132668.99   -42136.907    3554.4258   -45691.333   0.15166327 
    6400    293.90028    -515.8167    132645.69   -42187.244    3587.4695   -45774.714   0.16519351 
    6500    296.46353   -483.20293    132627.95   -42201.962    3618.7575   -45820.719   0.15222981 
    6600    295.65279   -490.85088    132622.53   -42211.006    3608.8613   -45819.868   0.14939369 
    6700    290.45816    -486.7876    132633.99   -42266.299    3545.4534   -45811.753   0.15678931 
    6800    290.36047   -519.99426    132646.03    -42218.92     3544.261   -45763.181   0.15697899 
    6900    292.22062   -525.02346    132680.53   -42145.392    3566.9667   -45712.359    0.1608149 
    7000    294.34491   -493.56326    132686.91   -42147.582    3592.8967   -45740.479   0.15547494 
    7100    292.80836   -468.21143    132660.23   -42145.338    3574.1409   -45719.478   0.14553717 
    7200    286.63012   -500.77241    132633.75   -42257.653    3498.7268    -45756.38   0.15323531 
    7300    290.70049   -503.07509    132589.58   -42302.417    3548.4114   -45850.828   0.15062039 
    7400    294.91226   -500.15462    132630.87   -42194.314     3599.822   -45794.136   0.15705151 
    7500    291.62147    -534.6166    132649.51   -42131.121    3559.6533   -45690.775   0.16327082 
    7600    293.06839   -535.42535    132672.87   -42105.783     3577.315   -45683.098   0.15178123 
    7700    294.21088   -550.23659    132657.42   -42200.147    3591.2607   -45791.407   0.16657503 
    7800    291.08393   -481.04847    132628.94   -42254.679    3553.0919    -45807.77   0.14750579 
    7900    289.86434   -509.80085     132655.8   -42206.536     3538.205   -45744.741   0.16402953 
    8000    297.08357   -531.10828    132662.48   -42107.861     3626.326   -45734.187   0.15266417 
    8100    299.29131   -506.38805    132681.99   -42078.704    3653.2746   -45731.979   0.15720255 
    8200    296.79933   -438.92125    132677.14   -42094.917    3622.8565   -45717.773   0.15604175 
    8300    293.99589   -483.73105    132681.24   -42053.555    3588.6365   -45642.192   0.16347429 
    8400    302.56386    -493.4973    132730.13     -42035.4    3693.2206   -45728.621   0.15740882 
    8500    299.93831    -484.1657    132695.66   -42115.224    3661.1722   -45776.396   0.15121985 
    8600    297.09476    -490.4677    132707.56   -42136.675    3626.4625   -45763.137    0.1449775 
    8700    295.48464   -499.24054    132715.87   -42112.149    3606.8088   -45718.958   0.15280129 
    8800    292.71379   -481.58459    132687.13   -42149.964    3572.9867   -45722.951   0.15328925 
    8900    291.77647   -515.31201     132668.7   -42210.872    3561.5454   -45772.418   0.15795147 
    9000    297.50344   -480.23583    132688.47   -42135.639    3631.4511    -45767.09   0.15079144 
    9100    297.00431   -483.99284    132699.49   -42188.242    3625.3585     -45813.6   0.14863225 
    9200    294.39125   -514.87295    132708.91   -42085.532    3593.4625   -45678.994   0.15896753 
    9300    289.24691   -534.79502     132713.8   -42231.973    3530.6684   -45762.641   0.15171638 
    9400    292.57567   -513.77275    132699.16   -42199.471    3571.3006   -45770.771   0.15928998 
    9500    292.92034    -534.5353    132683.23   -42237.808    3575.5079   -45813.316   0.14435416 
    9600    293.05667   -538.01579    132683.03   -42233.159    3577.1719   -45810.331   0.15202004 
    9700    297.61423   -497.92198    132700.71   -42108.988    3632.8035   -45741.791   0.14865613 
    9800    299.10479   -510.56216    132711.92    -42064.19    3650.9979   -45715.188   0.15601597 
    9900    297.99918   -508.12894    132725.76    -42098.61    3637.5023   -45736.112   0.15109514 
   10000    299.88579   -555.10946    132709.05   -42149.594     3660.531   -45810.125   0.15072417 
   10100    300.50381   -512.66291    132701.15   -42096.521    3668.0748   -45764.596   0.14779337 
   10200    293.40504   -562.68853    132682.57   -42060.436    3581.4244    -45641.86   0.16830952 
   10300    297.63323   -566.51353    132703.67   -42061.079    3633.0354   -45694.114   0.15842652 
   10400    295.23959   -512.15054    132696.64   -42057.953    3603.8176   -45661.771   0.16674205 
   10500    297.33036   -525.19234    132684.97   -42108.278    3629.3384   -45737.617   0.14966092 
   10600    294.62008   -471.28304    132706.32   -42135.342    3596.2556   -45731.598   0.14811925 
   10700    289.65743   -481.48528    132675.84    -42170.09    3535.6795    -45705.77    0.1550031 
   10800    287.19623   -545.06173    132689.38   -42295.335     3505.637   -45800.972   0.15085659 
   10900    288.49516    -504.5707    132673.21    -42277.65    3521.4923   -45799.143   0.15794485 
   11000    293.20396   -469.90828    132654.22   -42283.606    3578.9698   -45862.576   0.14529687 
   11100    295.61596   -485.52229    132677.86   -42201.386    3608.4117   -45809.798   0.14613509 
   11200    288.71743   -519.59887    132651.98   -42300.577    3524.2054   -45824.782   0.15404104 
   11300    291.88264   -506.22671    132647.67   -42219.835    3562.8413   -45782.677   0.14823278 
   11400    291.60158   -498.32295    132661.74   -42194.638    3559.4105   -45754.049   0.15585083 
   11500    297.31729   -478.45132    132712.54   -42097.633    3629.1789   -45726.812   0.15234971 
   11600    294.72814    -489.2274    132721.15   -42097.103    3597.5746   -45694.678   0.14982514 
   11700    297.12766   -483.70697    132703.01    -41961.75    3626.8642   -45588.614   0.16629804 
   11800    298.51772   -527.94124    132698.86   -42057.492    3643.8318   -45701.324   0.15343574 
   11900    294.77061   -474.21497    132654.02    -42097.96    3598.0931   -45696.053   0.16479624 
   12000    299.27413   -498.04062    132695.19     -42048.4    3653.0648   -45701.465   0.15105832 
   12100    289.76556   -503.32016    132673.31   -42125.348    3536.9992   -45662.348    0.1571799 
   12200    299.18846   -539.90515    132676.09   -42113.757    3652.0192   -45765.777    0.1545512 
   12300     291.2955   -511.51409    132673.88   -42174.576    3555.6744    -45730.25   0.15343716 
   12400    295.85908   -516.47386    132696.36   -42128.745    3611.3794   -45740.124    0.1552764 
   12500    296.79303   -516.13147    132711.88   -42078.044    3622.7795   -45700.824   0.15341627 
   12600    301.67229   -515.00612    132731.75   -42074.815    3682.3378   -45757.153   0.14837965 
   12700    294.12763   -519.64788    132712.36   -42104.437    3590.2445   -45694.681   0.15655967 
   12800     296.8724   -490.53325    132713.02   -42141.154    3623.7484   -45764.902   0.15277531 
   12900    296.52988   -515.51065    132704.71   -42187.467    3619.5674   -45807.034   0.15555272 
   13000    297.35116   -515.79097    132703.48   -42183.441    3629.5923   -45813.033   0.14772916 
   13100     299.3871   -489.46489    132670.19   -42210.179    3654.4438   -45864.623   0.14591782 
   13200    287.57507   -517.58037    132667.03   -42250.299    3510.2613    -45760.56    0.1507524 
   13300    291.12119   -536.84112    132648.95   -42310.597    3553.5466   -45864.144   0.14678798 
   13400    282.62172   -516.81257     132612.7   -42350.872    3449.7986    -45800.67   0.15589918 
   13500    289.84504   -503.84906    132668.59   -42233.173    3537.9695   -45771.143   0.14961336 
   13600    294.86883   -458.70954    132675.98   -42206.939    3599.2919    -45806.23   0.15282845 
   13700    291.78185   -477.92081    132664.33   -42214.844     3561.611   -45776.455   0.14364936 
   13800    289.14305   -499.06688    132657.29   -42174.718    3529.4006   -45704.118   0.15827465 
   13900    294.73058   -507.93851    132685.72   -42139.934    3597.6044   -45737.539   0.14930134 
   14000    298.22982   -486.57782    132707.62    -42042.23    3640.3176   -45682.547   0.15678194 
   14100    294.00572   -495.94081    132690.25   -42128.209    3588.7565   -45716.966   0.14721737 
   14200     301.4838   -446.12975    132681.45   -42126.013     3680.037    -45806.05   0.14605361 
   14300    293.55791   -492.26928    132677.73   -42159.628    3583.2903   -45742.918   0.15650524 
   14400     294.6748   -515.12092    132667.08   -42207.796    3596.9235   -45804.719   0.15392299 
   14500    289.10778   -473.12733    132679.31   -42215.989    3528.9701   -45744.959   0.15252255 
   14600    295.46806   -478.75681    132683.78   -42208.425    3606.6064   -45815.032   0.15160982 
   14700    293.63171   -462.39496    132682.75   -42160.249    3584.1911    -45744.44   0.14621089 
   14800    293.37968   -476.06143    132689.37    -42128.23    3581.1148   -45709.345   0.15847965 
   14900     295.9923   -490.09568    132703.76   -42110.988    3613.0055   -45723.994   0.15137675 
   15000     289.4863   -548.75797    132704.79    -42184.86    3533.5905   -45718.451   0.15286952 
   15100    290.40068   -533.22282    132676.63   -42202.313    3544.7518   -45747.065   0.15325879 
   15200    298.62472   -494.76596    132695.11   -42155.305    3645.1379   -45800.443   0.14210268 
   15300     296.4566   -490.52107    132691.61   -42202.032     3618.673   -45820.705   0.15795414 
   15400    290.97472   -529.95542    132711.87     -42244.9    3551.7588   -45796.659   0.14614488 
   15500    301.48612   -502.83981    132721.21   -42169.332    3680.0654   -45849.397   0.15200425 
   15600    302.69286   -498.61491     132744.8   -42052.881    3694.7953   -45747.676   0.14475739 
   15700     299.1923   -488.87045    132737.98   -42037.399     3652.066   -45689.465   0.14809576 
   15800    304.79277   -509.84309    132737.78   -42044.329    3720.4277   -45764.757   0.15560552 
   15900    305.45372   -512.70873    132735.97   -42054.108    3728.4955   -45782.603   0.15098585 
   16000    300.45997   -496.89375    132746.57   -42111.825    3667.5398   -45779.364   0.14845431 
   16100    295.00907   -506.52741    132720.64   -42181.612    3601.0037   -45782.616    0.1495509 
   16200    295.86324   -501.56292    132744.33   -42143.814    3611.4301   -45755.244   0.14517719 
   16300    290.64969   -523.37228    132713.09   -42156.836    3547.7914   -45704.628   0.16504547 
   16400    296.97683   -517.62114    132733.53   -42184.037     3625.023    -45809.06   0.14452714 
   16500    299.50186    -486.1736    132733.48    -42098.81    3655.8446   -45754.654   0.15461058 
   16600    299.67458   -533.45252    132745.76   -42068.729    3657.9529   -45726.682   0.14628971 
   16700    296.21547   -519.98648    132754.04   -42105.394    3615.7296   -45721.124   0.14593157 
   16800    291.59749   -479.79298    132732.68    -42140.22    3559.3606   -45699.581   0.15484475 
   16900    301.03684   -496.11265    132727.87   -42162.404    3674.5812   -45836.985   0.14073589 
   17000    294.30616   -467.69961    132687.09   -42215.609    3592.4237   -45808.033   0.15099762 
   17100    299.82685   -501.55888    132697.58   -42149.121    3659.8116   -45808.933    0.1420124 
   17200    292.49949   -477.69502    132680.86   -42203.669    3570.3708    -45774.04   0.14983781 
   17300    289.38093   -543.48058    132682.32   -42275.772    3532.3043   -45808.076   0.15503194 
   17400    282.63467   -525.56235    132667.24   -42303.703    3449.9567    -45753.66   0.14777076 
   17500     294.5322   -520.46985    132697.86   -42184.533    3595.1829   -45779.716   0.15505593 
   17600    292.85399   -506.80688    132731.75   -42198.833     3574.698   -45773.531   0.14473973 
   17700    292.02767   -522.29853    132704.15   -42232.153    3564.6116   -45796.764   0.14798752 
   17800    289.52334   -503.53657    132701.25   -42228.586    3534.0426   -45762.628     0.157528 
   17900    295.06602   -493.51624    132730.23   -42153.722     3601.699   -45755.421   0.14286984 
   18000    291.50625   -514.87555    132716.12   -42105.979    3558.2469   -45664.226   0.16485152 
   18100    296.15808    -467.3611    132761.02   -42070.035     3615.029   -45685.064   0.13936712 
   18200     290.9541   -508.11616    132717.69   -42171.575    3551.5072   -45723.082   0.15543065 
   18300    297.61259   -489.14079    132730.61   -42111.503    3632.7834   -45744.286   0.15178005 
   18400    295.78966   -527.73504    132707.87   -42226.602     3610.532   -45837.134   0.14343599 
   18500    295.59368   -458.41755    132720.83   -42183.526    3608.1398   -45791.666    0.1502397 
   18600    301.39806   -474.15191    132735.64   -42109.128    3678.9904   -45788.119   0.14028686 
   18700    292.50762   -502.99745    132713.56   -42133.572      3570.47   -45704.042   0.15427811 
   18800    292.80755   -491.96583    132707.12   -42170.989    3574.1311    -45745.12   0.15447384 
   18900    295.85974   -484.88071    132733.24   -42143.821    3611.3873   -45755.208   0.14611787 
   19000     292.3834   -476.15682     132731.7   -42116.759    3568.9538   -45685.713   0.15558793 
   19100    295.14386   -493.38652    132751.78   -42089.988    3602.6491   -45692.637   0.14413674 
   19200     294.9437   -488.81403    132706.76   -42141.971    3600.2059   -45742.176   0.15088586 
   19300     302.1396    -451.6635    132759.98   -41995.806    3688.0419   -45683.848   0.15274916 
   19400    297.30893   -536.94553    132757.79   -42084.072    3629.0768   -45713.149   0.14873743 
   19500    295.05851   -495.16111    132751.69   -42050.389    3601.6072   -45651.996   0.15723264 
   19600    298.35764   -488.09113    132758.73   -42077.438    3641.8778   -45719.316    0.1432191 
   19700    295.34121     -530.837    132732.26   -42087.759     3605.058   -45692.817   0.15415436 
   19800    300.71589   -488.73887    132711.66    -42079.83    3670.6636   -45750.494   0.14950219 
   19900    297.13868   -497.81375    132719.83    -42103.87    3626.9986   -45730.868   0.15626746 
   20000    296.37411   -467.26471    132686.81   -42136.756    3617.6661   -45754.422   0.15269973 
   20100    291.49457   -504.02976    132684.46   -42183.947    3558.1043   -45742.051   0.15159714 
   20200    292.99314   -506.84526    132671.81    -42207.61    3576.3964   -45784.007   0.14730165 
   20300    298.79156   -476.64059     132700.1   -42130.288    3647.1745   -45777.462   0.15186014 
   20400    297.14621   -515.10351    132724.91   -42148.239    3627.0906   -45775.329    0.1498177 
   20500    290.27471   -467.47076    132699.07   -42204.753    3543.2142   -45747.967   0.14763596 
   20600    290.40065   -487.19143    132680.69   -42234.491    3544.7515   -45779.243   0.14616392 
   20700    291.48765   -499.82475     132668.7   -42190.178    3558.0199   -45748.198   0.15012204 
   20800    299.03471   -487.02428    132696.69   -42106.223    3650.1424   -45756.365   0.14858229 
   20900     299.7167   -503.02892    132709.93   -42122.611    3658.4671   -45781.078   0.15306207 
   21000     298.0087   -482.98056    132698.96   -42160.992    3637.6185   -45798.611   0.14406712 
   21100    295.53881   -486.99715    132689.07   -42116.527      3607.47   -45723.997   0.15182049 
   21200     300.5214   -476.82532    132681.42   -42105.701    3668.2895   -45773.991   0.14747749 
   21300    303.20714   -478.65669    132701.69   -42063.555    3701.0729   -45764.628    0.1482408 
   21400    297.82953   -498.31927    132689.64   -42112.717    3635.4314   -45748.148    0.1584373 
   21500    299.30118   -520.95575     132725.2   -42058.727     3653.395   -45712.122   0.14606159 
   21600    297.08543   -467.27416    132732.12   -42038.917    3626.3487   -45665.266   0.15166954 
   21700    291.63249   -510.11366    132713.66   -42141.508    3559.7878   -45701.295   0.14402142 
   21800    294.99812   -464.71974    132699.83    -42153.76    3600.8701    -45754.63   0.14949652 
   21900    295.99417   -480.54545    132697.48   -42152.567    3613.0283   -45765.595   0.15201187 
   22000    292.75382   -467.22053    132682.95   -42216.361    3573.4752   -45789.837    0.1435335 
   22100    294.01987   -459.69117    132697.15    -42190.86    3588.9292   -45779.789   0.14667157 
   22200     290.4856   -508.34979     132648.8   -42322.932    3545.7884    -45868.72   0.14404027 
   22300    290.79344   -504.19479    132635.25   -42234.305     3549.546   -45783.851   0.14794702 
   22400    292.29787    -535.5457     132668.3   -42125.422    3567.9097   -45693.332   0.16324448 
   22500    295.31414   -493.21444    132680.31   -42134.619    3604.7276   -45739.346   0.14588576 
   22600    293.52018   -518.09064    132689.61   -42154.689    3582.8298   -45737.519   0.15881916 
   22700    295.43641   -463.94992    132688.81   -42205.949    3606.2201   -45812.169   0.13936695 
   22800    292.61796   -506.43186     132682.3   -42130.318    3571.8169   -45702.135   0.15391237 
   22900    297.16034   -489.12167    132677.68   -42167.093     3627.263   -45794.356   0.15186671 
   23000    293.41538   -506.72482    132666.46   -42231.783    3581.5505   -45813.333    0.1442142 
   23100    296.75047   -524.27276     132657.8    -42143.49      3622.26    -45765.75    0.1556197 
   23200    297.55929   -469.36437    132681.59   -42133.443    3632.1328   -45765.576   0.14391411 
   23300    294.76894   -495.32511    132687.83   -42139.614    3598.0726   -45737.686   0.15425203 
   23400    294.97758   -471.01359    132711.32   -42117.388    3600.6194   -45718.007   0.15118217 
   23500    295.19852    -506.6932     132700.3   -42102.423    3603.3163    -45705.74   0.15110261 
   23600    299.64585   -505.85316    132712.17   -42041.431    3657.6023   -45699.033   0.15842728 
   23700    298.68468   -514.00809    132703.18   -42074.153    3645.8698   -45720.022    0.1508814 
   23800    298.40728   -515.20525    132704.56   -42077.851    3642.4838   -45720.335   0.15399077 
   23900    298.76583   -529.44966    132675.65   -42175.376    3646.8604   -45822.236   0.15543585 
   24000    297.65712   -475.41371    132663.03   -42118.381    3633.3269   -45751.708   0.14932563 
   24100      296.962   -468.26436    132692.78   -42089.547     3624.842   -45714.389   0.15875808 
   24200    296.49414   -477.62202    132689.01   -42144.487    3619.1311   -45763.618   0.14216938 
   24300    298.36438   -506.79031    132669.54   -42199.354      3641.96   -45841.314   0.15245664 
   24400    295.02702    -492.5391    132635.81   -42234.139    3601.2229   -45835.362   0.14794666 
   24500    291.60887   -492.48752    132654.21   -42197.177    3559.4995   -45756.676   0.15144582 
   24600    293.90159   -532.83235    132649.62   -42243.314    3587.4854   -45830.799   0.15476768 
   24700     290.1295    -538.1563    132630.03   -42247.679    3541.4417    -45789.12   0.15011891 
   24800    291.38882   -468.22355    132636.29   -42215.913    3556.8135   -45772.727   0.15747702 
   24900    289.83779   -521.75535    132616.65   -42230.303     3537.881   -45768.184   0.15534222 
   25000    294.36846   -480.97047    132649.75   -42197.673    3593.1842   -45790.857    0.1508744 
   25100    299.93396   -466.72274    132651.26   -42249.091     3661.119    -45910.21   0.14893515 
   25200    287.40909   -477.83332    132616.87   -42354.778    3508.2353   -45863.013   0.14088548 
   25300     287.8343   -499.25205    132614.61   -42299.694    3513.4255    -45813.12   0.15383225 
   25400    290.20465   -497.50839    132646.89   -42238.283    3542.3591   -45780.642   0.15109435 
   25500    291.34684   -517.03377    132645.22    -42189.16     3556.301   -45745.461   0.15137405 
   25600    297.28772   -498.48253    132659.65   -42035.669    3628.8179   -45664.487   0.15908928 
   25700    295.85764   -509.30051    132693.17   -42159.752    3611.3618   -45771.113   0.14186735 
   25800    300.84594    -481.8506    132674.49   -42042.249    3672.2511   -45714.501   0.15861509 
   25900    295.23997   -482.15719    132693.61   -42045.656    3603.8222   -45649.479   0.15317084 
   26000    295.64295   -499.85045    132672.71   -42080.566    3608.7412   -45689.307    0.1588846 
   26100    296.24368    -502.3792    132684.02   -42097.851    3616.0739   -45713.925    0.1523117 
   26200    293.09652   -478.13678    132674.34   -42139.145    3577.6584   -45716.803   0.15035872 
   26300    296.23611   -474.21755    132644.98   -42190.138    3615.9815    -45806.12    0.1513137 
   26400     290.3481   -515.73851    132662.76   -42214.405      3544.11   -45758.515   0.15461245 
   26500    297.94526   -480.32191    132677.38   -42118.033    3636.8442   -45754.877   0.14917288 
   26600    298.15345   -482.90887    132689.39   -42086.496    3639.3854   -45725.882   0.15609383 
   26700    300.95207   -498.76422    132702.92   -42045.166    3673.5465   -45718.713   0.15214626 
   26800    296.72556   -504.33413    132691.47   -42111.932     3621.956   -45733.888   0.15261656 
   26900    300.03576   -481.13927    132684.49   -42071.319    3662.3616    -45733.68   0.15155235 
   27000    297.62342   -498.36099    132697.15   -42073.752    3632.9156   -45706.667   0.15336426 
   27100    302.80334   -492.17779    132677.42   -42063.278    3696.1439   -45759.422   0.15503393 
   27200    293.59931   -542.92149    132668.13   -42101.014    3583.7957   -45684.809   0.15527331 
   27300    305.15195   -446.82077    132686.75   -42001.294     3724.812   -45726.106   0.15481681 
   27400    301.31874   -489.83087    132704.06   -42038.004    3678.0223   -45716.026   0.15575556 
   27500    295.90508   -516.33214    132685.19    -42151.64    3611.9409   -45763.581   0.15503842 
   27600    290.55255   -520.73991    132648.24   -42258.856    3546.6057   -45805.462   0.14935198 
   27700    295.54985   -513.25102    132664.23   -42169.791    3607.6047   -45777.396   0.15339558 
   27800    301.18999   -486.10927    132691.33   -42083.349    3676.4507   -45759.799   0.15147721 
   27900    290.78841   -545.45174    132684.61   -42183.711    3549.4846   -45733.196   0.15488053 
   28000    294.74189    -512.1439    132651.18   -42241.608    3597.7424    -45839.35   0.14738897 
   28100     287.8289   -509.85161    132632.63   -42214.472    3513.3596   -45727.832    0.1533024 
   28200    295.05947   -490.98552    132649.12   -42191.377     3601.619   -45792.996   0.15060802 
   28300     293.8778   -504.23055    132650.24   -42183.424     3587.195   -45770.619   0.15372928 
   28400    298.77841    -473.5211    132678.58   -42173.396    3647.0139    -45820.41    0.1491935 
   28500    298.93602    -513.1934    132670.23   -42186.584    3648.9378   -45835.522   0.15536126 
   28600    294.52654   -516.41592    132639.32   -42201.475    3595.1139   -45796.589   0.15023666 
   28700    291.88196   -515.15822     132650.5   -42194.513    3562.8329   -45757.346   0.15446492 
   28800    296.78047   -511.97715    132643.62   -42211.312    3622.6262   -45833.939   0.14976307 
   28900    296.70276   -505.48468    132652.98   -42181.557    3621.6776   -45803.235   0.14685986 
   29000    294.59766   -524.96837    132665.65   -42152.608    3595.9819    -45748.59   0.15486969 
   29100    300.58324   -467.58106    132682.14   -42114.535    3669.0445    -45783.58   0.14819971 
   29200    303.17641   -493.44079    132692.56   -42025.538    3700.6977   -45726.235   0.15746694 
   29300    298.11088   -513.10469    132684.24   -42055.883    3638.8657   -45694.748   0.15306035 
   29400    295.71587   -501.44221    132686.88   -42104.835    3609.6312   -45714.466   0.15155824 
   29500    295.58023   -500.91413    132687.32   -42088.434    3607.9756    -45696.41   0.15304693 
   29600    297.08329   -461.78918    132682.24   -42081.425    3626.3226   -45707.748   0.15068554 
   29700    294.54733   -495.01457    132677.62   -42142.247    3595.3676   -45737.615   0.14892449 
   29800    288.58981   -516.84568    132628.88   -42241.635    3522.6476   -45764.283   0.14994274 
   29900    294.44697   -507.02372    132656.02   -42192.239    3594.1425   -45786.381   0.14465934 
   30000    293.43792   -479.16924    132623.98   -42245.674    3581.8257     -45827.5    0.1533825 
   30100    291.52304   -481.62511    132658.81   -42142.499    3558.4519    -45700.95   0.14656373 
   30200    290.77372   -520.87411    132646.42   -42191.818    3549.3054   -45741.123   0.15602688 
   30300    297.81025   -496.24463    132629.78   -42184.845    3635.1962   -45820.041    0.1460971 
   30400     296.0187     -526.737    132649.54   -42161.459    3613.3277   -45774.787   0.14624681 
   30500    289.70231   -476.90794    132601.84   -42275.789    3536.2273   -45812.017   0.14904983 
   30600    293.08901   -466.64935    132630.96   -42216.792    3577.5668   -45794.359   0.14251396 
   30700    292.72381   -504.97402    132622.43   -42247.426     3573.109   -45820.535   0.15305064 
   30800    294.58482   -485.65001    132621.66   -42191.678    3595.8252   -45787.503   0.14752779 
   30900    298.42274   -515.84794    132677.68    -42126.99    3642.6724   -45769.663   0.15206266 
   31000    294.01609   -494.82599    132661.65   -42146.763    3588.8831   -45735.646   0.15753534 
   31100    291.62065   -480.08249    132668.53   -42161.708    3559.6433   -45721.351   0.14530712 
   31200    294.61718   -460.49853    132693.39   -42150.764    3596.2202   -45746.984   0.15104186 
   31300     297.5714   -488.18927    132704.51     -42045.6    3632.2806   -45677.881   0.14933536 
   31400    296.79302   -486.04345    132709.55   -42128.582    3622.7794   -45751.361   0.14801925 
   31500     304.1633   -499.71222    132680.43   -42085.704    3712.7441   -45798.448   0.15733905 
   31600    296.53521   -497.27372    132677.58   -42116.087    3619.6324    -45735.72   0.14267212 
   31700    293.92653   -514.07243    132682.82   -42114.587    3587.7898   -45702.377   0.15884037 
   31800     295.3324   -520.04339    132709.05   -42097.905    3604.9505   -45702.856   0.14873902 
   31900    293.55959    -518.4379    132673.82   -42157.866    3583.3108   -45741.177   0.15501478 
   32000    298.48378   -463.32632    132688.68   -42142.527    3643.4176   -45785.945   0.14762512 
   32100    295.67777   -522.73402    132693.98   -42174.621    3609.1662   -45783.787   0.14554839 
   32200    291.30219    -520.1766    132655.14   -42278.053     3555.756   -45833.809   0.15527559 
   32300    293.13935   -497.20105    132675.19    -42239.98    3578.1812   -45818.162   0.14282703 
   32400    295.78955   -522.12314    132675.85   -42260.114    3610.5306   -45870.644   0.14706663 
   32500    294.90599   -512.71305    132684.05   -42161.472    3599.7455   -45761.217   0.15184906 
   32600    298.58457   -505.27376    132697.99   -42108.962    3644.6479   -45753.609   0.14626275 
   32700    289.10692   -499.37829       132692   -42199.328    3528.9597   -45728.287   0.15455181 
   32800    295.60338   -506.43695    132711.81    -42077.57    3608.2581   -45685.828   0.14864304 
   32900    292.17947   -509.14675    132717.71   -42132.816    3566.4645   -45699.281   0.15349239 
   33000    292.11873   -542.61801    132726.56   -42122.705    3565.7231   -45688.428   0.15383492 
   33100    300.29787   -474.40231    132728.39   -42137.569     3665.561    -45803.13    0.1416776 
   33200    293.33791   -509.59421    132712.72   -42149.972    3580.6049   -45730.577   0.15804642 
   33300    294.95206   -481.50952    132741.64   -42130.686    3600.3079   -45730.994   0.14296968 
   33400    293.66037   -478.82095    132727.14   -42165.495     3584.541   -45750.036   0.15585864 
   33500    290.23655   -515.51693    132724.36   -42224.265    3542.7484   -45767.013   0.14527357 
   33600     290.1264    -515.6042    132696.79   -42200.013    3541.4038   -45741.417   0.14887199 
   33700    291.97945   -529.39811    132720.68   -42156.868    3564.0229   -45720.891   0.15386812 
   33800    304.14586   -528.27294    132763.38   -42021.727    3712.5313   -45734.258   0.14732756 
   33900    303.97418   -483.86827    132746.35   -42004.544    3710.4356    -45714.98    0.1523698 
   34000    294.93166   -481.55689    132729.36   -42170.314    3600.0588   -45770.373   0.14581433 
   34100    289.55459    -534.1937    132700.08   -42157.007    3534.4242   -45691.431   0.15253145 
   34200     291.8203   -552.10676    132702.47   -42199.071    3562.0803   -45761.151   0.15427536 
   34300    290.48132   -522.16866    132698.72   -42244.668    3545.7361   -45790.404    0.1451602 
   34400    288.79146   -505.41515    132706.95   -42212.397     3525.109   -45737.506   0.15363555 
   34500    297.94878   -508.56971    132728.99   -42081.053    3636.8871    -45717.94   0.14744668 
   34600    296.81131   -490.49016    132752.31   -42037.713    3623.0027   -45660.715   0.15521099 
   34700    297.13946   -491.63677    132719.09   -42137.852    3627.0082   -45764.861   0.14647083 
   34800    292.28836   -481.50323    132698.94   -42192.239    3567.7936   -45760.033   0.14282404 
   34900     297.7409   -516.77211    132692.19   -42149.217    3634.3497   -45783.567   0.15273285 
   35000    294.89274   -462.22222    132694.13   -42171.066    3599.5838    -45770.65   0.14041529 
   35100    290.45881   -545.45208    132686.37   -42134.545    3545.4614   -45680.007    0.1624117 
   35200    298.38598   -490.38356    132707.18   -42086.609    3642.2237   -45728.833   0.14751082 
   35300    298.19078   -497.80023     132707.2   -42120.938    3639.8411    -45760.78   0.15052247 
   35400    294.44735   -537.44201    132696.06    -42163.67    3594.1471   -45757.818   0.14985644 
   35500     292.5706   -512.02649    132682.23    -42173.64    3571.2388   -45744.879   0.14468598 
   35600    291.76724   -512.16073    132680.14   -42151.282    3561.4326   -45712.715   0.15597113 
   35700    295.47995   -495.69834    132702.39   -42110.262    3606.7516   -45717.014   0.14501686 
   35800    304.16032   -466.38019    132740.04   -41973.871    3712.7078   -45686.579    0.1515072 
   35900     294.4696   -504.37141    132728.81   -42074.458    3594.4188   -45668.877   0.15411478 
   36000    290.06835   -536.73647     132711.7    -42146.07    3540.6953   -45686.765    0.1452941 
   36100    296.58038   -484.92004    132682.98   -42189.609    3620.1838   -45809.793    0.1557897 
   36200    299.35083   -475.31817    132688.59   -42170.199    3654.0011   -45824.201   0.13935825 
   36300    294.34314   -477.77255    132690.38   -42171.615    3592.8751    -45764.49   0.14782341 
   36400    291.17811    -522.5547    132690.87   -42189.138    3554.2415   -45743.379   0.15047424 
   36500    294.04408   -464.25258     132702.6   -42194.967    3589.2247   -45784.191   0.14186371 
   36600    293.99813   -477.34536    132688.34   -42149.386    3588.6639   -45738.049   0.15726396 
   36700    294.25906   -480.73296    132677.99   -42203.712    3591.8489   -45795.561   0.14058861 
   36800     294.7954   -508.57092    132683.19   -42267.198    3598.3956   -45865.594   0.15005366 
   36900    292.21874   -525.21479    132680.57    -42212.37    3566.9439   -45779.313   0.15011342 
   37000    291.52296   -548.04712       132700   -42196.401    3558.4508   -45754.852   0.14964953 
   37100    289.91427    -520.9363    132683.66   -42228.001    3538.8146   -45766.816    0.1564252 
   37200    288.98628   -519.99084    132674.09   -42233.375    3527.4871   -45760.862   0.14419965 
   37300    287.34102   -514.94865    132686.22   -42237.754    3507.4044   -45745.158   0.15386293 
   37400    291.86744   -490.50538    132686.51   -42268.624    3562.6557    -45831.28   0.14323803 
   37500    293.71357   -473.15212    132687.13   -42225.426    3585.1904   -45810.616   0.14256532 
   37600    295.66158   -509.33383    132677.27   -42250.032    3608.9686       -45859    0.1540555 
   37700     289.2786   -482.42042    132667.78   -42359.623    3531.0552   -45890.678   0.13514001 
   37800    284.61335   -503.87935     132628.2   -42387.206    3474.1093   -45861.315   0.15296203 
   37900    288.94924   -490.42575    132658.62   -42264.153    3527.0349   -45791.188   0.14344979 
   38000    289.05226   -481.65141    132690.09    -42182.26    3528.2924   -45710.552   0.15000662 
   38100    296.02855   -494.78436    132688.75   -42176.014     3613.448   -45789.462   0.15347639 
   38200    301.12044    -490.4591    132724.56   -42129.056    3675.6017   -45804.657   0.14313248 
   38300    296.22647   -507.17825    132701.62   -42158.292    3615.8638   -45774.156   0.15676572 
   38400    295.40216    -513.8021    132719.53     -42122.7     3605.802   -45728.502   0.14800704 
   38500    291.53353   -509.28959     132696.2   -42148.446    3558.5798   -45707.026    0.1545532 
   38600    299.49401   -517.58093     132696.5   -42136.562    3655.7488   -45792.311   0.15338247 
   38700    295.31108   -552.87507    132707.64   -42116.104    3604.6902   -45720.794   0.15075291 
   38800    295.27476   -569.90745    132699.98   -42165.381    3604.2469   -45769.628   0.15983829 
   38900    298.22183   -506.86969    132703.29   -42065.447    3640.2201   -45705.667   0.14901487 
   39000    302.79725   -485.22006     132706.5   -42108.514    3696.0695   -45804.584   0.15022168 
   39100     295.5694   -500.18564     132670.7   -42136.626    3607.8434    -45744.47    0.1507212 
   39200    287.11649   -499.40503    132678.45    -42250.95    3504.6636   -45755.613   0.14489512 
   39300    287.41293   -506.69699    132638.48   -42290.833    3508.2821   -45799.115    0.1545136 
   39400    292.87557   -496.39142     132669.5   -42126.506    3574.9613   -45701.468   0.14679088 
   39500     291.3557   -525.93351    132671.21   -42155.028    3556.4092   -45711.438     0.160199 
   39600    296.23276   -480.84004    132687.28   -42118.268    3615.9407   -45734.209   0.15439747 
   39700    293.77513    -481.3216     132695.5   -42129.765    3585.9418   -45715.707    0.1509477 
   39800    289.46074   -483.23452    132690.41   -42152.397    3533.2785   -45685.676   0.15757422 
   39900    297.54448   -506.35613    132719.53   -42104.447    3631.9521   -45736.399   0.14803405 
   40000    292.12524   -493.31728    132677.97   -42148.495    3565.8025   -45714.298   0.15484072 
   40100    293.87974   -535.74743     132656.9    -42178.17    3587.2187   -45765.389   0.15047571 
   40200    296.70999   -445.37397       132667   -42155.263     3621.766   -45777.029    0.1480739 
   40300    298.80322   -491.10083    132651.81   -42216.833    3647.3167   -45864.149   0.15154725 
   40400    291.41353   -493.92566    132665.06   -42257.913    3557.1151   -45815.028   0.14335754 
   40500    300.80044   -504.63636    132683.25   -42151.235    3671.6957   -45822.931   0.15569821 
   40600    294.85957   -512.20176    132686.48   -42161.073     3599.179   -45760.252   0.15114902 
   40700    289.49444   -493.39787    132672.76   -42232.507    3533.6899   -45766.196   0.15250352 
   40800    293.41731    -486.5223    132684.47   -42139.474    3581.5741   -45721.048   0.15306345 
   40900    292.73356   -523.49983    132688.96   -42204.095     3573.228   -45777.323   0.14552894 
   41000    291.24843   -509.88241    132702.77   -42202.666    3555.0998   -45757.766   0.15510726 
   41100    292.12187   -473.64943    132690.72   -42206.659    3565.7614   -45772.421   0.14564008 
   41200     297.1411    -512.3139    132709.92   -42105.409    3627.0283   -45732.438   0.15888173 
   41300    294.30804   -526.81213    132701.17    -42155.74    3592.4467   -45748.187   0.15187448 
   41400    293.53354   -480.24298    132712.15   -42139.835    3582.9929   -45722.828   0.15047743 
   41500    297.09494   -501.55487    132709.23   -42109.362    3626.4648   -45735.827    0.1541439 
   41600    295.88344   -486.42093    132721.01   -42126.522    3611.6767   -45738.199   0.14534059 
   41700    295.49254   -484.00748    132684.77   -42232.847    3606.9052   -45839.752   0.15004367 
   41800    297.75039   -503.44597    132711.86   -42159.377    3634.4655   -45793.842   0.14880142 
   41900    293.73321   -494.03539    132679.85    -42231.61    3585.4301    -45817.04    0.1453456 
   42000    296.30108   -473.52129     132682.3   -42204.888    3616.7745   -45821.663   0.14893873 
   42100    296.94679   -474.85035    132686.42   -42274.315    3624.6564   -45898.971   0.13762393 
   42200    297.35832   -467.89654    132660.05   -42219.159    3629.6797   -45848.839   0.15532843 
   42300    291.29705   -485.19185    132693.47   -42202.463    3555.6933   -45758.156   0.15015635 
   42400    295.19411    -498.6289    132701.42   -42214.601    3603.2624   -45817.863   0.15178903 
   42500    293.03216    -546.7662    132676.95   -42181.381    3576.8727   -45758.254   0.15561246 
   42600    298.53053   -461.87459    132677.17   -42195.358    3643.9881   -45839.346   0.14036877 
   42700    288.30341   -522.52096    132652.42   -42278.964    3519.1517   -45798.116   0.15624345 
   42800    291.74589   -471.10838    132672.92   -42198.469    3561.1721   -45759.641   0.14406058 
   42900    289.34202   -503.97715    132685.91   -42233.468    3531.8294   -45765.298   0.15453575 
   43000    291.82173   -468.91975    132672.84    -42207.84    3562.0977   -45769.938   0.14914237 
   43100    291.72494   -494.94156    132680.89   -42165.215    3560.9163   -45726.131   0.15019521 
   43200    295.46741   -498.67506    132684.48   -42176.603    3606.5984   -45783.202    0.1564518 
   43300    288.10659   -487.79343    132663.68   -42222.778    3516.7493   -45739.527   0.14662836 
   43400    297.27677   -513.69305     132673.4   -42154.573    3628.6842   -45783.258   0.15589903 
   43500     294.1902   -511.63862    132678.58   -42159.955    3591.0083   -45750.964   0.15505864 
   43600    291.43038   -494.66123    132656.39   -42182.761    3557.3207   -45740.082   0.14914265 
   43700    292.04095   -472.70969    132627.08   -42258.845    3564.7737   -45823.619   0.15706586 
   43800    289.27973   -496.76659    132622.96   -42277.958     3531.069   -45809.027   0.14461758 
   43900    297.53438   -500.98982    132636.63   -42195.752    3631.8287    -45827.58   0.15654407 
   44000    295.91128   -482.96787    132616.32   -42290.919    3612.0165   -45902.936    0.1456874 
   44100    292.89816   -466.03432    132618.56    -42290.23    3575.2371   -45865.467   0.14807369 
   44200    293.96619   -516.80477    132618.08   -42205.877     3588.274   -45794.151   0.15960114 
   44300    292.61717   -515.59275    132623.15   -42211.777    3571.8073   -45783.585   0.14715985 
   44400    287.85193   -495.07918     132617.5   -42249.814    3513.6408   -45763.455   0.16114145 
   44500    297.75294   -489.25689    132623.43   -42232.828    3634.4966   -45867.325   0.14479927 
   44600    295.06575   -467.47187    132598.08   -42214.102    3601.6957   -45815.798   0.15356388 
   44700    291.65426   -502.67041       132608    -42198.73    3560.0535   -45758.784   0.15625593 
   44800    293.11962   -506.80293    132598.33    -42198.89    3577.9404    -45776.83   0.15036907 
   44900    293.06582    -507.0584     132614.6    -42171.56    3577.2836   -45748.843   0.16485775 
   45000     289.5817   -534.42454    132606.92   -42178.595     3534.755    -45713.35   0.15323685 
   45100    298.82957   -496.78614    132627.35   -42086.905    3647.6383   -45734.543   0.16171763 
   45200    297.92369   -472.73306    132632.13   -42125.933    3636.5808   -45762.513   0.15766754 
   45300    294.20748   -467.92582    132666.49   -42168.456    3591.2192   -45759.676   0.14271404 
   45400    291.88994   -501.56175    132649.02   -42178.404    3562.9304   -45741.334   0.16596951 
   45500    293.69821   -543.77224    132680.09   -42147.055    3585.0029   -45732.058   0.14650581 
   45600    292.92149   -513.68571     132654.5   -42116.102    3575.5218   -45691.624   0.16092939 
   45700    294.50194   -507.82618    132638.32   -42087.977    3594.8135    -45682.79   0.15322028 
   45800     293.2153   -530.32947    132662.12   -42139.912    3579.1082   -45719.021   0.14914493 
   45900    296.63601   -495.64415    132665.95   -42066.606    3620.8629   -45687.469   0.16560238 
   46000    296.76173   -486.51828     132663.6   -42096.756    3622.3975   -45719.153   0.14667442 
   46100    294.68913   -535.11731    132679.39   -42018.406    3597.0984   -45615.505   0.16820575 
   46200    293.94694   -483.87539    132701.24   -42080.408     3588.039   -45668.447   0.15727538 
   46300    301.18871    -471.0432    132687.27   -42045.143     3676.435   -45721.578    0.1505062 
   46400    296.21111   -454.31946    132678.04   -42109.229    3615.6763   -45724.906   0.15564122 
   46500    298.51801   -432.48257    132693.64   -42041.938    3643.8354   -45685.774   0.14294435 
   46600    292.35847   -494.20796    132691.11   -42148.323    3568.6494   -45716.972   0.15694217 
   46700    295.09442   -498.47684    132700.07   -42074.689    3602.0456   -45676.734   0.15385632 
   46800    300.45315   -462.22195    132716.11   -42074.073    3667.4565   -45741.529   0.14700073 
   46900    298.25953   -491.59006    132688.73   -42103.236    3640.6803   -45743.916   0.15804528 
   47000    293.52167   -470.83411     132684.5   -42166.637     3582.848   -45749.485   0.14203473 
   47100    292.32157   -478.63661    132688.13   -42177.563    3568.1991   -45745.762   0.15746886 
   47200    298.69874    -508.0947    132680.78    -42186.56    3646.0414   -45832.601   0.14609652 
   47300    290.81848   -520.02268    132670.08   -42252.196    3549.8517   -45802.048   0.14925032 
   47400    294.83797   -484.41681    132654.41   -42191.765    3598.9153   -45790.681   0.14987238 
   47500    290.01888   -472.93201    132665.39   -42221.298    3540.0914    -45761.39   0.14398139 
   47600    289.48923   -487.86129    132674.77   -42190.023    3533.6263   -45723.649   0.15600892 
   47700    293.62801   -491.62656    132682.04   -42138.278     3584.146   -45722.424   0.15138774 
   47800    299.42826   -503.81456    132687.88    -42186.95    3654.9462   -45841.896   0.14924781 
   47900     294.8565    -493.3073    132658.61    -42231.05    3599.1414   -45830.192    0.1503995 
   48000    293.06625   -492.96093    132665.09   -42189.573    3577.2889   -45766.862    0.1462119 
   48100    287.46216    -538.3062    132639.78   -42240.355     3508.883   -45749.238   0.15723535 
   48200    291.94292   -499.64408     132632.9   -42222.711    3563.5771   -45786.288   0.14663369 
   48300    299.84445    -458.4445    132657.19   -42192.649    3660.0265   -45852.675   0.14666363 
   48400     297.9721   -482.28433    132679.49   -42197.024    3637.1718   -45834.196   0.14533101 
   48500    292.06185    -535.6982     132653.5   -42283.741    3565.0288   -45848.769    0.1479112 
   48600    292.53349   -481.58933    132630.63   -42276.959    3570.7858   -45847.745   0.15386816 
   48700    298.75535   -477.51081    132666.77   -42182.177    3646.7325   -45828.909   0.14494855 
   48800    294.13364   -486.39069    132654.71   -42183.589    3590.3179   -45773.907   0.15655337 
   48900    293.37157   -508.20275     132663.7   -42163.475    3581.0157    -45744.49   0.14550482 
   49000    287.01401   -544.13569    132675.72   -42217.548    3503.4128   -45720.961   0.15452203 
   49100    291.17821   -501.80316    132694.01   -42151.086    3554.2427   -45705.328    0.1511659 
   49200    290.22642   -495.55392    132687.33   -42154.104    3542.6248   -45696.729   0.14805138 
   49300    290.25169   -486.46527    132658.72   -42210.291    3542.9332   -45753.224   0.15308052 
   49400    297.60624   -435.58949    132649.13   -42251.895    3632.7059   -45884.601   0.13791617 
   49500    289.69245   -490.61042    132672.47     -42178.2    3536.1069   -45714.307   0.15141279 
   49600    292.83293   -496.88759    132661.58   -42200.877    3574.4409   -45775.318   0.15498332 
   49700    293.63025   -465.96481    132684.17   -42226.013    3584.1734   -45810.187   0.14410381 
   49800    293.44244   -516.04755    132673.95   -42204.908    3581.8809   -45786.789   0.15532459 
   49900    294.85637   -486.75566     132668.3   -42164.061    3599.1399   -45763.201   0.14394285 
   50000    292.48428   -484.05598    132677.34    -42175.71    3570.1852   -45745.895   0.15444685 
   50100    297.42478    -481.8883     132682.3   -42048.836     3630.491   -45679.327   0.15324187 
   50200    295.30656   -522.10301    132683.99   -42130.658     3604.635   -45735.293    0.1516889 
   50300    298.23778   -518.15484    132654.21   -42139.031    3640.4147   -45779.446   0.15825812 
   50400     295.9834    -535.9702    132645.52   -42158.071    3612.8968   -45770.968   0.14472592 
   50500    294.15568    -498.3534    132661.53   -42100.837     3590.587   -45691.424   0.15955421 
   50600    302.38215   -501.06013    132693.15   -41990.608    3691.0027    -45681.61    0.1559601 
   50700    293.48538    -494.6146    132678.63   -42230.048     3582.405   -45812.453   0.14844026 
   50800    290.48305   -508.00275    132652.97   -42239.081    3545.7572   -45784.838   0.14957121 
   50900     286.6888   -535.26521    132661.93   -42251.059     3499.443   -45750.502   0.14576751 
   51000    292.38656   -485.47795    132662.76    -42213.78    3568.9923   -45782.772   0.15129208 
   51100    291.52301   -517.96496    132632.59   -42209.617    3558.4515   -45768.069   0.15252709 
   51200    292.83953   -514.73207    132637.42   -42270.311    3574.5215   -45844.832   0.14733459 
   51300    288.37073   -505.41705    132614.41    -42277.81    3519.9734   -45797.784   0.15310116 
   51400    294.20133   -518.50837    132622.74   -42215.092    3591.1441   -45806.236   0.14583484 
   51500    291.41043   -497.67457    132620.32   -42244.523    3557.0773   -45801.601   0.15555898 
   51600    289.87781   -518.00762    132626.38   -42188.031    3538.3695   -45726.401   0.15178498 
   51700    298.79078   -537.12611    132643.46   -42132.993    3647.1649   -45780.158   0.15527358 
   51800    296.77059   -499.79542    132635.28   -42120.412    3622.5056   -45742.918    0.1560139 
   51900    295.16555   -513.61285     132649.1   -42188.019    3602.9138   -45790.933   0.14573218 
   52000    295.05989   -485.90277    132610.46   -42178.782    3601.6241   -45780.406   0.15814428 
   52100    289.35578   -461.31585    132612.99   -42256.868    3531.9974   -45788.865   0.14412743 
   52200    288.80465   -505.41933    132587.17   -42291.192    3525.2701   -45816.462   0.15428841 
   52300    290.24004    -501.8746    132603.55   -42288.054    3542.7911   -45830.845   0.14768129 
   52400    284.71554    -580.3673    132586.84   -42369.677    3475.3566   -45845.034    0.1490117 
   52500    296.13669   -475.75113    132596.09   -42245.818     3614.768   -45860.586   0.15152149 
   52600    294.57149   -472.01161    132627.46   -42161.572    3595.6624   -45757.234   0.15043741 
   52700    295.74368   -495.90413    132631.61   -42179.884    3609.9707   -45789.855   0.15686721 
   52800    298.85972   -441.66957    132642.54   -42067.327    3648.0064   -45715.333   0.15365069 
   52900    296.46061   -512.87058     132655.4   -42126.353    3618.7219   -45745.075   0.15131769 
   53000    298.15856   -515.55557     132649.3   -42089.528    3639.4478   -45728.975   0.16419817 
   53100    296.77145   -489.70924    132645.27   -42202.898    3622.5161   -45825.414   0.14591179 
   53200     289.5681   -500.60499    132609.98   -42257.831     3534.589    -45792.42   0.15818571 
   53300    297.98083   -470.41072    132634.26   -42247.124    3637.2784   -45884.402    0.1428124 
   53400    292.68135   -524.29551    132638.94   -42171.465    3572.5907   -45744.056   0.15566529 
   53500    291.84593   -496.50153    132615.93   -42129.631    3562.3931   -45692.024   0.16040259 
   53600    289.85092   -531.92246    132633.71   -42216.959    3538.0413   -45755.001   0.14834592 
   53700    290.66487   -521.76198    132643.24    -42171.42    3547.9766   -45719.397    0.1600907 
   53800    290.96037    -506.1318    132637.22   -42209.342    3551.5837   -45760.926   0.14814871 
   53900    292.71899   -466.56071    132624.77   -42220.108      3573.05   -45793.158   0.15134904 
   54000    294.43099   -455.27442    132610.14   -42242.141    3593.9475   -45836.089   0.15155644 
   54100    296.49443   -517.13861    132640.23   -42193.255    3619.1347    -45812.39    0.1475271 
   54200    297.42931   -508.91265     132637.5   -42141.307    3630.5462   -45771.853   0.16079669 
   54300     297.5528   -483.95471    132664.07   -42072.731    3632.0536   -45704.785   0.15179447 
   54400    305.86134   -455.16438    132689.11   -42035.768    3733.4712   -45769.239    0.1534265 
   54500    299.37596    -467.4157    132672.95   -42094.314    3654.3078   -45748.622   0.15961131 
   54600    299.56146   -507.64854    132704.34   -42083.811    3656.5722   -45740.383   0.14801173 
   54700    292.41443   -519.37912    132674.44   -42114.708    3569.3325   -45684.041   0.16173376 
   54800    294.67253   -484.14106    132713.92   -42091.316    3596.8958   -45688.212   0.15153469 
   54900    296.90313   -468.76201    132707.74   -42104.425    3624.1235   -45728.549   0.15324767 
   55000     298.7467   -492.75447    132688.56   -42119.101    3646.6269   -45765.728   0.15452933 
   55100    298.52349   -482.57341    132680.26   -42126.648    3643.9022    -45770.55   0.14852696 
   55200    290.28422   -473.25297    132645.59   -42260.432    3543.3303   -45803.762   0.15190704 
   55300    291.91924   -487.31431    132636.94   -42319.138     3563.288   -45882.426   0.14597757 
   55400    291.19974   -502.58234     132633.8   -42252.365    3554.5056   -45806.871   0.15480969 
   55500    290.54957   -498.43177    132636.15   -42245.364    3546.5692   -45791.933   0.15738052 
   55600     302.7082   -432.67577    132677.63   -42128.496    3694.9826   -45823.479   0.14820355 
   55700    295.92123   -476.40554     132695.6   -42078.931     3612.138   -45691.068    0.1581934 
   55800    297.53573   -521.90726     132706.5   -42058.589    3631.8452   -45690.435   0.15898399 
   55900    299.30584   -498.41898    132704.85   -42098.618    3653.4519    -45752.07   0.15958517 
   56000    293.69051   -554.25286    132725.78    -42099.93    3584.9088   -45684.839   0.16114784 
   56100    301.24713   -483.51852    132717.28   -42087.147    3677.1482   -45764.295   0.14967082 
   56200    298.40765   -484.94383    132715.86   -42111.583    3642.4882   -45754.071   0.15157936 
   56300    293.66332   -479.18384    132688.61   -42199.933     3584.577    -45784.51   0.14760326 
   56400    289.49896    -492.7098    132675.39   -42241.552    3533.7451   -45775.297   0.15291213 
   56500    290.40303   -499.81247    132664.17   -42291.278    3544.7805   -45836.058   0.14503294 
   56600    291.80361   -468.42721    132660.38   -42339.983    3561.8766    -45901.86   0.14542177 
   56700    291.04282   -498.80683    132677.66   -42289.816    3552.5901   -45842.406    0.1475257 
   56800    294.27182   -515.08913    132680.95   -42185.943    3592.0046   -45777.948   0.15103399 
   56900    292.23313   -508.18313    132668.83   -42288.933    3567.1194   -45856.053   0.15423759 
   57000    289.44698   -482.71429    132653.57   -42312.265    3533.1106   -45845.375   0.14602316 
   57100    293.68956   -506.09699    132666.25   -42196.099    3584.8973   -45780.997   0.15792156 
   57200    290.43191   -509.67982    132676.09   -42159.742     3545.133   -45704.875   0.15475493 
   57300    287.92067   -504.99879    132670.54   -42290.719    3514.4798   -45805.199   0.14833321 
   57400    293.07535   -505.98956    132666.33   -42193.544    3577.3999   -45770.944   0.15735501 
   57500    293.57772    -497.4781    132683.63   -42185.025    3583.5321   -45768.558   0.14515307 
   57600    294.82397   -466.09721    132685.82   -42260.948    3598.7443   -45859.693    0.1503069 
   57700     293.6822   -502.18202    132680.79   -42214.213    3584.8074    -45799.02   0.14922962 
   57800    293.08909   -537.28399    132696.23   -42138.835    3577.5677   -45716.403   0.15375101 
   57900    291.75247   -494.10776    132677.84   -42203.519    3561.2524   -45764.771   0.15832593 
   58000    294.10662   -491.47021    132686.48   -42131.623    3589.9881   -45721.611   0.14723863 
   58100    292.45721   -534.56976    132682.88   -42204.826    3569.8547   -45774.681   0.15965605 
   58200    300.53689    -463.7266    132698.15   -42039.546    3668.4786   -45708.024   0.15369426 
   58300    296.29844   -515.71249     132693.4   -42120.057    3616.7424   -45736.799   0.15309982 
   58400    295.50983   -528.71492     132665.9   -42156.257    3607.1162   -45763.373   0.16257079 
   58500    292.50289   -517.77599    132675.74   -42182.908    3570.4123    -45753.32   0.14887902 
   58600    294.82809   -475.01778    132645.34   -42224.742    3598.7947   -45823.537   0.15851662 
   58700     291.5045   -501.96074    132682.78   -42179.298    3558.2256   -45737.524   0.15167135 
   58800    293.96991    -449.7738    132660.87   -42189.498    3588.3193   -45777.817   0.14683999 
   58900     290.9286   -527.14791    132655.78   -42128.638    3551.1959   -45679.834   0.16506437 
   59000    295.34037   -541.08182    132706.99   -42049.508    3605.0478   -45654.556   0.15372763 
   59100    298.72811   -501.72349    132691.62    -42066.35    3646.3999    -45712.75   0.16321643 
   59200    294.07328   -542.79487    132674.32   -42144.456    3589.5811   -45734.037   0.15668369 
   59300    299.38955   -463.59518    132663.34   -42163.613    3654.4738   -45818.087   0.15086537 
   59400    290.40959   -511.12675    132659.19   -42135.326    3544.8606   -45680.187   0.16271788 
   59500    294.96892   -523.92785    132674.24   -42249.641    3600.5137   -45850.155      0.14721 
   59600    293.28608   -514.62672    132675.27    -42186.56    3579.9723   -45766.533   0.16306478 
   59700    296.09918   -506.92708    132710.98   -42138.071    3614.3101   -45752.381   0.15357702 
   59800    289.14793   -513.00595     132677.5   -42276.419    3529.4603   -45805.879   0.15307708 
   59900    290.44208    -509.2619    132665.01   -42268.169    3545.2572   -45813.427   0.15258937 
   60000     296.2826   -494.03754    132679.86   -42219.323    3616.5491   -45835.872   0.14702113 
   60100    293.07933   -538.74194    132659.92    -42210.22    3577.4486   -45787.669   0.16048886 
   60200     296.3074   -500.66511    132700.28   -42177.647    3616.8517   -45794.499   0.14511854 
   60300    295.62603   -516.13558    132682.93    -42115.37    3608.5347   -45723.905   0.16104945 
   60400    294.98921    -511.8267    132687.68    -42068.82    3600.7614   -45669.581   0.15743204 
   60500    295.65034   -500.07526    132688.09   -42061.525    3608.8313   -45670.356   0.15738986 
   60600    293.34279   -523.31624    132705.61   -42153.271    3580.6645   -45733.935   0.16153747 
   60700     302.1894   -496.62071    132722.68   -42014.263    3688.6498   -45702.913   0.15104895 
   60800    298.75736   -530.06926    132727.46    -42018.35    3646.7569   -45665.107   0.16395896 
   60900    295.02894   -498.51045     132720.8   -42068.681    3601.2463   -45669.927   0.15467844 
   61000    292.29932   -524.03673    132699.16   -42163.629    3567.9275   -45731.557    0.1545109 
   61100    296.16754   -476.59415    132712.87   -42104.573    3615.1446   -45719.717   0.15833981 
   61200    294.11032   -504.06693    132704.75   -42120.751    3590.0333   -45710.784   0.14639716 
   61300    293.44082   -516.30573    132731.47    -42144.16    3581.8611   -45726.021    0.1629499 
   61400    295.47241   -502.42206    132701.18    -42160.74    3606.6595     -45767.4   0.14923403 
   61500     297.1601   -513.33832    132700.47   -42154.313    3627.2602   -45781.573   0.15286469 
   61600    292.93076   -500.67001    132685.77   -42214.577    3575.6351   -45790.212   0.15504832 
   61700    297.16638   -481.39524    132659.68   -42226.549    3627.3368   -45853.886   0.14373057 
   61800    292.53846   -536.23101    132656.63   -42216.626    3570.8465   -45787.472   0.16104652 
   61900     299.0106   -479.66099     132692.7    -42134.92    3649.8481   -45784.768   0.14605119 
   62000    293.18223   -510.11023    132695.17   -42154.416    3578.7045   -45733.121   0.15517285 
   62100    290.89848    -480.8043    132698.47   -42179.395    3550.8282   -45730.223   0.15257823 
   62200    299.73809   -440.73407    132696.49   -42093.333    3658.7282   -45752.061   0.14684007 
   62300    291.02911   -521.15259    132697.96   -42197.435    3552.4227   -45749.858   0.16200367 
   62400    293.27508   -519.10442    132679.02   -42195.583    3579.8379   -45775.421   0.15024198 
   62500     287.4259   -533.72491     132690.4   -42200.464    3508.4404   -45708.904   0.15663326 
   62600    296.04688    -472.6053    132703.93   -42227.755    3613.6717   -45841.426   0.14662814 
   62700    296.16221   -512.41228    132696.47   -42224.814    3615.0795   -45839.893   0.14586654 
   62800     295.9617   -495.07625     132664.4   -42222.063     3612.632   -45834.695   0.15368067 
   62900    295.35152   -471.68113       132683    -42166.57    3605.1839   -45771.754   0.14689324 
   63000    295.05104   -523.41163     132686.1   -42211.047    3601.5161   -45812.563    0.1530597 
   63100    292.73064    -504.2814    132653.79   -42264.683    3573.1923   -45837.875   0.14485119 
   63200    295.85345   -529.40744    132664.92   -42140.278    3611.3107   -45751.589   0.15657073 
   63300    293.30771   -507.03901    132639.74   -42226.706    3580.2363   -45806.943   0.15750238 
   63400    295.43921   -519.45049    132620.88   -42297.134    3606.2542   -45903.388   0.14788043 
   63500    289.47453   -478.49026    132632.21    -42249.62    3533.4468   -45783.066   0.15602733 
   63600    289.13351   -496.64832    132639.62   -42318.425    3529.2843   -45847.709   0.14269742 
   63700    286.56121   -486.15755    132632.39   -42327.537    3497.8857   -45825.422   0.14819596 
   63800    286.05452   -469.86559    132624.68   -42350.789    3491.7008    -45842.49   0.14965689 
   63900    292.89457   -522.02077    132632.15   -42249.452    3575.1933   -45824.645   0.14796286 
   64000    293.58175   -477.35249    132666.71   -42173.373    3583.5813   -45756.955   0.15546401 
   64100    290.85651   -497.57093    132690.08   -42140.118    3550.3159   -45690.434   0.14371315 
   64200    298.94095   -440.32658    132730.93   -42112.496    3648.9979   -45761.494   0.15408434 
   64300    299.42472   -479.65412    132707.74   -42119.627    3654.9031    -45774.53   0.15356126 
   64400    295.03592   -536.95131    132685.74   -42205.437    3601.3315   -45806.768   0.14825329 
   64500    295.38987   -474.92988    132673.92   -42189.987     3605.652   -45795.639   0.15706116 
   64600    290.03601   -521.57794    132699.17   -42255.272    3540.3005   -45795.572   0.14207829 
   64700    288.73851   -505.72366    132685.26   -42281.483    3524.4627   -45805.946   0.15437074 
   64800    289.78857   -496.83388    132686.42    -42204.45    3537.2802    -45741.73   0.14933135 
   64900     296.9506   -466.42658    132711.13   -42140.858    3624.7029    -45765.56   0.14569922 
   65000    299.73467   -494.03676    132728.65   -42114.117    3658.6864   -45772.803   0.15867919 
   65100    295.82012   -499.22677    132722.88    -42166.93    3610.9037   -45777.833   0.14023598 
   65200    294.71977    -504.9505    132711.85   -42190.513    3597.4725   -45787.985   0.15705788 
   65300    298.44993   -496.08555    132724.55   -42100.584    3643.0044   -45743.589   0.14740428 
   65400    294.10754   -493.49549    132711.09   -42150.702    3589.9993   -45740.702   0.14610594 
   65500    301.74408   -472.78552    132708.19    -42077.96    3683.2141   -45761.174   0.15622701 
   65600    299.14647   -478.06099    132710.26   -42078.992    3651.5066   -45730.499   0.14357153 
   65700    298.44987   -478.82342    132708.34   -42076.822    3643.0037   -45719.826   0.16066787 
   65800    294.85289    -540.3434    132692.62   -42126.894    3599.0974   -45725.991   0.15146901 
   65900    294.54044   -497.77991     132690.6    -42147.13    3595.2834   -45742.414   0.15310188 
   66000    297.34458   -528.34521    132687.69   -42140.634    3629.5119   -45770.146    0.1579749 
   66100    293.66851   -489.74797    132690.14   -42176.224    3584.6404   -45760.865   0.14527208 
   66200    291.06869   -483.27047    132658.85    -42243.05    3552.9059   -45795.956   0.15893112 
   66300    292.60155   -514.33726    132653.05   -42236.075    3571.6166   -45807.691   0.14374319 
   66400    295.48357   -443.79225       132680   -42216.056    3606.7957   -45822.852   0.14528669 
   66500    288.93944   -526.68468    132660.74    -42183.87    3526.9154   -45710.785   0.15693438 
   66600    292.88149   -508.18869    132674.32    -42228.73    3575.0336   -45803.763   0.14359799 
   66700    290.59321   -488.62185    132664.76   -42217.189    3547.1019   -45764.291   0.15667185 
   66800    289.90333   -521.76841    132669.99   -42262.973     3538.681   -45801.654   0.14608279 
   66900    284.51502   -468.72861    132674.75   -42231.374     3472.909   -45704.283   0.15483438 
   67000    288.01823   -506.58232    132657.12   -42350.477    3515.6706   -45866.148   0.14997162 
   67100    296.86816   -484.70711    132678.75   -42173.814    3623.6966    -45797.51   0.14827404 
   67200    290.20706   -509.78311     132679.2   -42228.717    3542.3885   -45771.105    0.1566171 
   67300    294.54563    -466.8545    132687.97   -42226.063    3595.3468    -45821.41   0.14152759 
   67400    292.42698   -537.88599       132705   -42190.839    3569.4857   -45760.325   0.15541275 
   67500    293.56545   -478.46664    132708.03   -42168.608    3583.3824    -45751.99   0.14850618 
   67600    296.68493   -468.95504    132722.77    -42050.74    3621.4601     -45672.2   0.15200096 
   67700    297.05112   -521.14464       132698   -42098.768    3625.9299   -45724.698    0.1573926 
   67800    295.66158   -481.70172    132701.38   -42143.351    3608.9686    -45752.32   0.14498627 
   67900    291.12928   -508.56053    132697.25   -42162.025    3553.6454    -45715.67   0.15629489 
   68000    294.30023   -497.65177     132675.3   -42209.988    3592.3514   -45802.339   0.14405461 
   68100    293.97213   -534.94476    132664.53   -42214.623    3588.3465   -45802.969   0.15431469 
   68200    297.01899   -477.05692    132690.25   -42220.524    3625.5377   -45846.062   0.15154352 
   68300    298.96009   -478.49104    132713.13   -42145.695    3649.2315   -45794.927   0.14620672 
   68400     298.5163   -475.65516    132719.14   -42070.066    3643.8145   -45713.881    0.1607723 
   68500    297.46969   -501.20443    132734.62   -42105.067    3631.0392   -45736.106   0.14986482 
   68600    298.33289   -500.35741    132711.52   -42134.139    3641.5757   -45775.715   0.15404029 
   68700    295.76168   -485.86103    132685.16   -42170.206    3610.1904   -45780.396   0.15090015 
   68800    292.92029   -542.43154    132695.48   -42170.004    3575.5073   -45745.512   0.15106786 
   68900    292.77164    -463.3424    132681.81   -42155.262    3573.6928   -45728.955   0.15599816 
   69000    298.49344   -508.13354    132703.05   -42148.142    3643.5355   -45791.677   0.14472704 
   69100    290.20332   -533.28749     132667.1   -42263.956    3542.3428   -45806.298   0.15272056 
   69200    291.90125   -486.87942    132636.72   -42227.868    3563.0684   -45790.936   0.14848105 
   69300    290.02347    -473.7539    132641.46   -42251.268    3540.1474   -45791.416    0.1482953 
   69400    287.22088   -512.13185    132624.33   -42305.705    3505.9379   -45811.643   0.15611269 
   69500    288.94796   -483.25176    132641.72   -42244.493    3527.0194   -45771.512   0.14783162 
   69600    301.49729   -460.02536     132674.2   -42049.151    3680.2017   -45729.353   0.16045203 
   69700     295.7698   -502.33148    132681.96     -42129.1    3610.2896    -45739.39   0.15598314 
   69800    297.59647   -479.83331    132673.65   -42186.823    3632.5867    -45819.41   0.14890498 
   69900    290.35142   -515.06536    132643.95   -42246.733    3544.1505   -45790.883   0.15510169 
   70000    295.95009   -491.80592    132654.74   -42173.708    3612.4903   -45786.198   0.14553939 
   70100    292.74932   -497.46901     132639.1   -42275.488    3573.4203   -45848.908   0.15361087 
   70200     293.5026   -461.77919    132639.13   -42147.488    3582.6152   -45730.103   0.15337333 
   70300    290.51487   -494.80676    132652.36   -42199.669    3546.1457   -45745.815   0.15699049 
   70400    294.55187   -498.02583    132679.75   -42063.249     3595.423   -45658.672   0.15940739 
   70500    293.88759   -493.58457    132648.38   -42169.892    3587.3145   -45757.207   0.15078133 
   70600    291.48152   -544.15112    132611.67   -42165.592     3557.945   -45723.537   0.16127693 
   70700    291.29415   -499.06836    132627.32    -42175.49    3555.6579   -45731.148   0.15388166 
   70800     299.1642   -520.06259    132651.42   -42204.986    3651.7231   -45856.709   0.15455273 
   70900    291.00378   -482.77673    132631.89   -42233.081    3552.1135   -45785.194   0.15112199 
   71000    297.69162   -488.46343    132606.98   -42195.463    3633.7481   -45829.212   0.14872311 
   71100    291.97434   -512.95723    132596.18   -42254.733    3563.9606   -45818.694   0.15774666 
   71200    291.96763   -536.46765    132616.81   -42186.519    3563.8787   -45750.397   0.15381719 
   71300    286.05325   -548.07251    132608.05   -42288.591    3491.6853   -45780.276   0.16252318 
   71400    289.52505   -493.87904    132628.91   -42224.397    3534.0635    -45758.46   0.15062254 
   71500     301.9469   -450.44021    132653.57   -42181.662    3685.6898   -45867.351   0.14889535 
   71600    295.53438   -489.03766     132657.9   -42166.479     3607.416   -45773.895   0.15591537 
   71700    293.98651   -527.37418    132660.09   -42199.836     3588.522   -45788.358   0.15179135 
   71800    290.11793   -495.48893    132641.47   -42296.053    3541.3005   -45837.353   0.16012042 
   71900    291.51775   -492.21659    132634.19   -42308.312    3558.3873   -45866.699   0.14394596 
   72000    295.64347   -525.18334    132643.68   -42298.877    3608.7475   -45907.624     0.151937 
   72100    295.87666   -531.69394    132649.47   -42154.984    3611.5939   -45766.578   0.15862014 
   72200    302.59051   -486.32977    132686.23   -42028.363     3693.546   -45721.909   0.15372423 
   72300    300.71665   -514.87731    132737.46   -41966.119    3670.6729   -45636.792   0.17022705 
   72400    302.54061   -514.38201    132707.59   -42123.242    3692.9369   -45816.179   0.14544096 
   72500    296.27217   -532.88587    132682.42   -42133.711    3616.4216   -45750.132   0.15645815 
   72600    296.53174   -480.41547    132695.46   -42059.211    3619.5901   -45678.801   0.15512041 
   72700    294.88278   -463.07727    132670.42   -42169.011    3599.4622   -45768.473    0.1468451 
   72800    288.13261   -521.06334    132668.98   -42152.671    3517.0669   -45669.738   0.16721821 
   72900    293.68603   -468.31676    132678.12   -42134.691    3584.8542   -45719.545   0.14493517 
   73000    293.44613   -497.58745    132693.56   -42177.309    3581.9259   -45759.235    0.1541276 
   73100    292.84104   -512.17786    132694.75   -42153.147      3574.54   -45727.687   0.15360894 
   73200    298.04631   -546.23018     132715.3    -42075.69    3638.0775   -45713.768   0.15323201 
   73300    303.30507   -489.59355    132707.22   -42021.126    3702.2682   -45723.394   0.16621405 
   73400    304.40717   -505.55949    132725.82   -42032.921    3715.7209   -45748.642    0.1471222 
   73500    298.20886   -485.98352    132716.92   -42011.319    3640.0618   -45651.381     0.155396 
   73600    297.70446   -456.90546     132705.4   -42046.161    3633.9048   -45680.066    0.1547919 
   73700    293.85269   -522.24525    132699.94   -42164.151    3586.8885    -45751.04   0.15007507 
   73800    288.78675   -545.68647    132680.45    -42250.16    3525.0515   -45775.211   0.15919642 
   73900    290.21918   -524.21992    132686.18   -42210.315    3542.5364   -45752.851   0.14826674 
   74000    296.39398   -469.68427    132684.08   -42188.185    3617.9086   -45806.093   0.14974582 
   74100    298.11406   -492.22504    132709.29   -42029.074    3638.9046   -45667.979   0.15655403 
   74200    298.72638   -551.17761     132712.6    -42140.94    3646.3788   -45787.318   0.15478645 
   74300    294.03782    -543.3519    132672.82   -42197.601    3589.1483   -45786.749   0.15731632 
   74400    295.18303   -501.11418     132696.1   -42168.746    3603.1272   -45771.873   0.14934015 
   74500    295.25098   -496.92139     132671.6   -42230.171    3603.9567   -45834.127   0.14652329 
   74600    294.00888   -495.82808    132669.26   -42179.222    3588.7951   -45768.017    0.1501623 
   74700    298.62747   -511.85675    132685.21   -42121.014    3645.1714   -45766.186   0.15610415 
   74800    294.27024   -511.31365    132668.38    -42184.89    3591.9853   -45776.875   0.15255689 
   74900    297.38578   -467.82579    132684.93   -42149.261    3630.0148   -45779.276   0.15155064 
   75000    295.45209   -472.44098     132684.7   -42201.637    3606.4115   -45808.048   0.14601515 
   75100    298.60013   -489.80745    132703.87   -42106.561    3644.8378   -45751.398   0.15112238 
   75200    297.91871   -508.39617    132690.98   -42115.753      3636.52   -45752.273   0.15775493 
   75300    298.20104   -521.20177    132659.85   -42185.764    3639.9663   -45825.731   0.15218337 
   75400    291.66035    -493.6429    132654.37   -42208.797    3560.1279   -45768.925   0.15556804 
   75500    291.97244   -493.75569    132640.65   -42223.222    3563.9374   -45787.159   0.14936302 
   75600    293.53013    -488.3682    132651.28   -42148.502    3582.9512   -45731.453   0.15298328 
   75700    299.57212   -467.30321    132685.94   -42065.611    3656.7023   -45722.313   0.16164583 
   75800    293.21358   -516.37515    132691.92   -42057.685    3579.0872   -45636.772     0.159287 
   75900    296.24939    -522.7942    132689.33   -42119.925    3616.1436   -45736.069    0.1581595 
   76000    291.86653   -488.18893    132664.68   -42106.336    3562.6446   -45668.981   0.15399379 
   76100    294.08615   -464.64127    132636.74   -42194.701    3589.7382    -45784.44   0.14848603 
   76200    288.78035   -496.12093    132615.38    -42247.62    3524.9734   -45772.594   0.15579739 
   76300    295.08224   -479.14789    132627.63   -42204.839     3601.897   -45806.736   0.14813577 
   76400    297.20982   -489.17769    132649.07   -42221.322    3627.8671   -45849.189   0.14914332 
   76500    295.81215   -475.06026    132644.67   -42172.113    3610.8065   -45782.919   0.15048662 
   76600    293.79283   -486.88851    132638.66   -42154.502    3586.1579    -45740.66   0.15203226 
   76700    297.78152   -490.92499    132619.93   -42118.071    3634.8454   -45752.916   0.16284585 
[...]
   81900    286.41948   -492.91993    132662.59   -42231.726    3496.1557   -45727.882   0.15140849 
   82000    296.81591   -438.47072    132671.09   -42163.796    3623.0588   -45786.855   0.14624551 
   82100    292.98803   -499.03201    132704.03    -42112.13    3576.3341   -45688.465   0.15693249 
   82200    300.15475   -488.54491    132704.84   -42069.107    3663.8141   -45732.921   0.15485779 
   82300     293.0333   -531.46331    132690.85    -42170.77    3576.8866   -45747.656   0.15246691 
   82400    301.96376   -461.03166     132714.2   -42092.624    3685.8956   -45778.519   0.14806337 
   82500    297.59932   -454.83437    132746.78   -41983.604    3632.6215   -45616.225   0.15308764 
   82600    295.42714   -491.20191    132736.21   -42032.614    3606.1069   -45638.721   0.15397212 
   82700    293.77968   -510.77293    132695.54   -42158.024    3585.9973   -45744.021   0.15077445 
   82800    300.82486   -494.55395    132697.33   -42160.953    3671.9938   -45832.947   0.14841261 
   82900    293.57063   -466.41678    132710.84   -42122.456    3583.4456   -45705.902   0.14632686 
   83000     299.9757   -465.53327    132727.63   -42087.628    3661.6285   -45749.256   0.15305142 
   83100    300.87473   -475.74499    132719.49   -42059.654    3672.6024   -45732.256   0.14949429 
   83200    297.82571   -512.41361    132699.95   -42118.829    3635.3848   -45754.214   0.15382919 
   83300    297.21401   -509.28417    132729.86   -42151.885    3627.9182   -45779.803   0.15246855 
   83400    296.55593   -484.74034    132719.08   -42155.533    3619.8854   -45775.418   0.14588869 
   83500    293.21132   -535.83784    132679.65   -42285.283    3579.0596   -45864.343   0.15209337 
   83600    290.75269   -495.44214    132670.71   -42254.448    3549.0486   -45803.496   0.14763862 
   83700    292.56179    -475.8403     132664.2   -42251.283    3571.1313   -45822.414   0.14922952 
   83800     286.4654   -487.09615    132657.34   -42235.713    3496.7162   -45732.429   0.15540413 
   83900      289.531   -496.13153    132685.57   -42205.263    3534.1361   -45739.399   0.14860656 
   84000    291.98308   -488.19234    132677.98   -42213.384    3564.0673   -45777.451   0.15110737 
   84100    293.29398   -453.92089    132675.65   -42172.809    3580.0686   -45752.878     0.146575 
   84200    301.25978   -448.83318    132685.12   -42152.237    3677.3025    -45829.54   0.14642761 
   84300    293.01708   -539.82268    132654.01   -42212.616    3576.6887   -45789.304   0.15703549 
   84400    293.35204    -521.3487       132663   -42202.186    3580.7774   -45782.964   0.14874378 
   84500    289.78957   -469.34919    132672.45   -42216.661    3537.2924   -45753.954    0.1542153 
   84600    292.12573   -534.69607    132699.47   -42143.063    3565.8085   -45708.871   0.15264293 
   84700    293.15849   -460.26224    132685.02   -42163.371    3578.4148   -45741.786   0.15009974 
   84800    290.87712   -474.12205    132685.88   -42158.339    3550.5675   -45708.907   0.15508162 
   84900    296.90679   -486.51062     132702.2   -42086.652    3624.1681    -45710.82   0.15074108 
   85000    296.30218   -512.63312    132689.36   -42160.331     3616.788   -45777.119   0.15538526 
   85100    292.79131   -516.23899    132674.63     -42191.5    3573.9328   -45765.433   0.15070582 
   85200    298.27425   -491.81737     132674.3   -42162.959    3640.8599   -45803.819    0.1486141 
   85300    291.67188   -544.04736     132688.8   -42171.485    3560.2686   -45731.754   0.15917502 
   85400    291.33875   -509.19185    132692.06   -42228.974    3556.2023   -45785.176   0.14828221 
   85500    294.32064   -532.59802    132699.72   -42191.533    3592.6005   -45784.134   0.15547731 
   85600    290.58199   -497.80641    132662.22   -42213.794    3546.9649   -45760.759   0.14776779 
   85700    292.49052   -484.00886    132674.05   -42206.174    3570.2613   -45776.435   0.14801698 
   85800    296.61574   -512.01479     132680.3   -42170.228    3620.6154   -45790.844   0.15806401 
   85900    296.68939   -514.49983     132673.6   -42125.883    3621.5145   -45747.397    0.1508146 
   86000     293.8223   -485.88918     132687.5   -42177.317    3586.5176   -45763.835   0.15267595 
   86100    299.79225    -478.0976    132670.91   -42139.645    3659.3893   -45799.034   0.14464017 
   86200    293.57447   -481.02019    132681.74   -42151.243    3583.4925   -45734.735    0.1527426 
   86300     295.3048   -472.09942    132686.32   -42179.999    3604.6135   -45784.612   0.15557652 
   86400    292.73469   -550.69293    132690.57   -42217.316    3573.2417   -45790.558    0.1528687 
   86500     291.4255   -493.34461    132673.08   -42268.133    3557.2613   -45825.395   0.14767503 
   86600    297.24623   -486.30304    132682.01   -42132.725    3628.3114   -45761.036   0.14791393 
   86700    296.79771   -512.66442    132687.56   -42146.274    3622.8367   -45769.111   0.15206864 
   86800    294.32168   -482.61711     132675.5   -42211.094    3592.6132   -45803.707   0.15370002 
   86900    292.74469   -516.40864    132657.68   -42171.955    3573.3638   -45745.318   0.15279383 
   87000    293.84467   -487.55588    132698.44   -42140.227    3586.7907   -45727.018   0.15173848 
   87100    296.35735   -503.54275    132677.89   -42177.384    3617.4615   -45794.846   0.14619284 
   87200    293.76211   -483.71973    132698.58   -42130.423    3585.7829   -45716.206   0.15343757 
   87300    298.81054   -497.67321    132695.64   -42103.205     3647.406   -45750.611   0.15827685 
   87400    295.72799   -486.75854    132663.25   -42152.248    3609.7792   -45762.027   0.15000025 
   87500    295.46444    -498.4927     132667.5   -42115.065    3606.5622   -45721.627   0.15299917 
   87600    292.18028   -506.64543    132701.47   -42147.772    3566.4744   -45714.246    0.1489599 
   87700    294.26465   -450.59139     132677.9   -42136.224     3591.917   -45728.141   0.14882054 
   87800    292.15196   -463.41204     132664.2   -42173.123    3566.1288   -45739.252   0.15471544 
   87900     295.0356   -514.99104    132660.21   -42229.753    3601.3276   -45831.081   0.14980949 
   88000    288.35097   -527.95734    132677.83   -42184.913    3519.7323   -45704.645   0.15448611 
   88100    293.29961   -494.80433    132683.68   -42152.648    3580.1374   -45732.786   0.14708497 
   88200    289.58729   -493.26858    132648.69   -42243.405    3534.8233   -45778.229   0.14924934 
   88300    291.35982   -480.02958    132628.81   -42209.766    3556.4595   -45766.226   0.15737589 
   88400    295.47354   -493.08482    132673.15   -42152.959    3606.6733   -45759.632   0.15237838 
   88500    298.27619   -498.52244    132675.59   -42205.446    3640.8836    -45846.33   0.14821714 
   88600    294.86929   -474.27944    132657.73   -42178.036    3599.2976   -45777.333   0.14729554 
   88700    297.05003   -490.69987    132664.78   -42155.803    3625.9166   -45781.719   0.15072285 
   88800     293.7844   -509.70471    132643.03   -42191.268    3586.0549   -45777.323   0.15434606 
   88900    290.62322   -517.67993    132650.73   -42202.059    3547.4683   -45749.527   0.15025766 
   89000    292.34172    -466.7267    132668.09   -42141.261     3568.445   -45709.706   0.15163371 
   89100    288.43336   -496.76717    132654.52   -42186.626     3520.738   -45707.364   0.15058314 
   89200    296.81209   -501.77799    132638.65   -42133.938    3623.0121    -45756.95   0.15261628 
   89300    289.10136   -535.76632    132635.77   -42252.982    3528.8918   -45781.874   0.15322807 
   89400    293.53976   -502.16632    132653.38   -42137.676    3583.0688   -45720.745   0.15381984 
   89500    292.23322   -478.47183     132662.3   -42217.391    3567.1206   -45784.511   0.14953674 
   89600    291.31788   -482.36545    132644.86   -42313.831    3555.9475   -45869.779   0.14652192 
   89700    291.41129   -494.73354    132639.27   -42207.635    3557.0878   -45764.723    0.1500545 
   89800    294.07505   -501.36583    132646.94   -42149.814    3589.6028   -45739.417   0.15560401 
   89900    292.77321   -534.80531    132654.94   -42131.047    3573.7119   -45704.759   0.15427193 
   90000    295.92287    -478.9209    132659.89   -42174.425     3612.158   -45786.583   0.14935295 
   90100    299.54856   -450.26058     132680.6    -42117.58    3656.4146   -45773.995   0.14805885 
   90200    296.09744   -511.92279    132674.16   -42179.629    3614.2889   -45793.918   0.14569577 
   90300    296.46321   -489.63896    132651.73    -42197.32    3618.7536   -45816.074    0.1488497 
   90400    295.06959   -537.94813    132679.71   -42168.031    3601.7424   -45769.773   0.15394202 
   90500     295.0208   -508.78208    132683.63   -42170.846    3601.1469   -45771.993   0.15100751 
   90600    297.10109   -504.07761    132686.17   -42140.059    3626.5398   -45766.599   0.15239467 
   90700    293.45169   -496.68506    132670.01   -42182.111    3581.9937   -45764.105   0.14994497 
   90800    291.29701   -527.77505    132658.05   -42225.819    3555.6928   -45781.512   0.15050351 
   90900    291.12692   -488.17658    132674.19   -42154.453    3553.6167    -45708.07   0.15559201 
   91000    289.40732   -535.49453    132650.75   -42246.984    3532.6264    -45779.61    0.1504025 
   91100    287.35278   -497.53591    132647.33   -42309.989    3507.5479   -45817.537   0.14918361 
   91200    293.61171   -491.31192    132643.48   -42306.572     3583.947   -45890.519   0.14462632 
   91300    288.34619    -502.2203     132642.5   -42250.095    3519.6738   -45769.769   0.14889374 
   91400    297.18199   -488.42497    132658.33   -42187.605    3627.5273   -45815.132   0.14938719 
   91500    300.46929   -453.23387    132688.21   -42031.511    3667.6535   -45699.165   0.15190735 
   91600    299.40641   -483.71855     132695.2   -42075.621    3654.6795     -45730.3   0.15072182 
   91700    292.17302   -521.27371    132689.77   -42174.946    3566.3858   -45741.332   0.15076315 
   91800    297.46651   -523.55374    132674.25   -42062.863    3631.0003   -45693.863   0.15473358 
   91900    293.17548   -482.52853    132664.81   -42114.958    3578.6223    -45693.58   0.15587469 
   92000    295.26402   -510.95341    132680.24   -42132.259    3604.1158   -45736.375   0.15188086 
   92100    293.01968   -535.41047    132654.63   -42178.302    3576.7204   -45755.023   0.15287468 
   92200    291.91591   -504.40864     132649.4   -42201.761    3563.2474   -45765.009   0.15175492 
   92300    294.72903   -540.88448    132671.34   -42083.671    3597.5854   -45681.256   0.15788174 
   92400    292.73538   -527.51671    132676.37   -42135.236    3573.2502   -45708.486   0.15363524 
   92500    294.74647   -464.90713    132672.31   -42111.034    3597.7984   -45708.832   0.15176505 
   92600    296.74669   -498.66087    132671.26   -42052.393    3622.2138   -45674.607   0.15321377 
   92700    296.92921   -509.70207     132662.7   -42140.456    3624.4418   -45764.898    0.1510017 
   92800    293.25719   -533.15312    132658.88   -42137.231    3579.6196    -45716.85   0.15401567 
   92900     289.3495   -506.86149    132635.53   -42162.733    3531.9207   -45694.653   0.15525321 
   93000     293.9378   -474.35489    132646.79    -42181.74    3587.9275   -45769.668   0.15091142 
   93100    298.14874   -513.50965    132648.36   -42171.979    3639.3279   -45811.307   0.14902357 
   93200    294.76603   -506.30327    132626.83   -42152.777    3598.0372   -45750.814   0.15364323 
   93300    288.53685   -482.30661     132615.3   -42216.794    3522.0011   -45738.795    0.1504182 
   93400    291.03156   -518.61474    132593.29   -42264.316    3552.4526   -45816.769   0.15438961 
   93500    291.93221   -503.94108    132611.23   -42230.461    3563.4464   -45793.907   0.14870895 
   93600    295.86972   -494.15447    132621.11   -42195.893    3611.5092   -45807.402   0.14959174 
   93700    293.25138    -517.8849    132625.09   -42182.172    3579.5487    -45761.72   0.15651782 
   93800    291.77358   -513.08011    132637.65   -42232.145      3561.51   -45793.655    0.1485577 
   93900    293.83497   -506.66682    132618.43   -42263.763    3586.6723   -45850.435   0.15429034 
   94000    292.69985   -436.46993    132644.02   -42275.635    3572.8164   -45848.451   0.14150317 
   94100    296.33615   -459.35563    132671.14   -42163.222    3617.2026   -45780.425   0.14895994 
   94200    299.30267    -495.2039    132677.69   -42116.031    3653.4132   -45769.445   0.15271418 
   94300    297.24495   -471.90838    132671.63   -42143.129    3628.2959   -45771.424   0.14865867 
   94400    286.86965   -505.07966    132645.63   -42169.613    3501.6506   -45671.263   0.15934799 
   94500     297.4952   -508.29303    132679.13   -42083.955    3631.3506   -45715.306   0.15123199 
   94600    296.97294   -481.13843    132678.71   -42199.481    3624.9755   -45824.456    0.1476793 
   94700    295.83932   -509.58368    132676.25   -42204.995    3611.1382   -45816.133   0.15086188 
   94800    293.80893   -498.15992    132652.22   -42193.153    3586.3543   -45779.507   0.15179516 
   94900    290.18008   -531.68538    132664.26    -42247.49     3542.059   -45789.549   0.15656742 
   95000     295.3592    -485.5389    132669.37     -42208.9    3605.2777   -45814.178    0.1445534 
   95100    294.43804   -486.70301    132664.26   -42200.497    3594.0335   -45794.531   0.15190231 
   95200    292.85734   -512.21382    132622.05   -42164.364    3574.7388   -45739.103   0.15336282 
   95300    292.42104   -507.44149    132631.53   -42185.011    3569.4132   -45754.424   0.15321565 
   95400    295.21691   -516.15688    132653.23    -42154.79    3603.5407   -45758.331   0.15997124 
   95500    295.46305   -473.94644    132675.13   -42110.793    3606.5453   -45717.338   0.14720925 
   95600    292.72233    -523.8221    132653.58   -42164.294    3573.0908   -45737.385   0.15698784 
   95700     294.3169   -470.06814    132646.67   -42139.132    3592.5548   -45731.687   0.15202942 
   95800    293.55027   -503.56334    132641.35   -42150.496    3583.1971   -45733.693   0.15337672 
   95900     291.7981      -504.47    132634.05   -42163.752    3561.8093   -45725.561   0.15827938 
   96000    298.78313   -502.48363    132674.42   -42127.264    3647.0715   -45774.335    0.1467878 
   96100     297.7562   -524.56147    132679.21   -42042.738    3634.5364   -45677.274    0.1599614 
   96200    298.91954   -482.54327    132693.45    -42079.43    3648.7366   -45728.167    0.1546788 
   96300    295.20371    -493.3167     132676.4   -42105.654    3603.3797   -45709.033   0.15380789 
   96400     294.6771   -506.76296    132677.65   -42148.058    3596.9516   -45745.009   0.15996884 
   96500    293.11934   -514.23957    132688.83   -42126.175    3577.9369   -45704.112   0.15004112 
   96600    291.80837   -514.81728    132670.47   -42180.212    3561.9347   -45742.147   0.15495215 
   96700     292.5087   -486.52647    132691.24   -42159.454    3570.4833   -45729.937   0.14677507 
   96800    291.90645   -473.39177       132676   -42176.411    3563.1318   -45739.543   0.15222261 
   96900    283.69562   -551.46401     132675.9    -42224.94     3462.907   -45687.847   0.15982695 
   97000    289.41479   -494.26461    132672.87   -42236.296    3532.7177   -45769.014   0.14693022 
   97100    296.42426   -480.55316    132677.76   -42228.627    3618.2782   -45846.905   0.14690515 
   97200    292.74923   -538.21788    132687.93   -42216.794    3573.4192   -45790.213   0.14651993 
   97300     295.7631   -507.59328    132695.47   -42076.893    3610.2078   -45687.101   0.15504149 
   97400    294.83881   -503.06663    132704.59   -42128.673    3598.9256   -45727.599   0.15521632 
   97500    299.52574   -516.89239    132697.62   -42098.777    3656.1361   -45754.913   0.15201633 
   97600    298.61344   -517.90276    132725.57    -42087.37    3645.0002   -45732.371   0.15644097 
   97700    299.38536   -481.37607    132741.37   -42071.001    3654.4225   -45725.423   0.14721686 
   97800    298.54437    -483.2083    132705.92   -42121.333    3644.1571    -45765.49   0.15363061 
   97900    297.54916   -496.92597    132694.87   -42111.812    3632.0092   -45743.821     0.155725 
   98000    291.21439   -480.74953    132690.29   -42159.192    3554.6843   -45713.876   0.15418129 
   98100    296.27249   -460.97048    132691.82   -42155.414    3616.4256    -45771.84   0.15144407 
   98200    293.13364   -494.08173    132691.16   -42180.647    3578.1115   -45758.759   0.14932286 
   98300    301.44304   -515.68401    132712.69   -42085.462    3679.5395   -45765.002   0.15492865 
   98400    300.53569   -466.36965    132710.41   -42128.078     3668.464   -45796.542   0.15020899 
   98500    294.07455   -518.02722    132696.04   -42139.384    3589.5966   -45728.981    0.1545456 
   98600    295.59615   -470.83477    132674.05   -42141.615    3608.1699   -45749.785   0.15129662 
   98700     299.4065   -474.03998    132668.27   -42094.795    3654.6806   -45749.476    0.1517497 
   98800    296.45336   -539.04815    132684.97   -42080.493    3618.6333   -45699.126   0.16119648 
   98900    297.14063   -512.21284    132677.29   -42164.487    3627.0225    -45791.51   0.15149769 
   99000    293.39815   -503.60073    132659.92   -42149.565    3581.3402   -45730.905   0.15578253 
   99100    294.93998   -511.97054    132624.96   -42214.455    3600.1604   -45814.615   0.15329404 
   99200    292.48155   -526.35334    132623.61   -42183.889    3570.1518    -45754.04   0.15452656 
   99300    294.77046   -550.55351    132630.01    -42162.98    3598.0912   -45761.071   0.16037217 
   99400    293.13758   -537.39049    132643.16   -42200.832    3578.1596   -45778.992   0.15393765 
   99500    294.14532   -498.56499    132648.34    -42155.18    3590.4604    -45745.64   0.15910623 
   99600    293.97207   -486.55391    132653.59   -42128.591    3588.3458   -45716.937   0.15025498 
   99700    300.06644   -468.14111    132647.64   -42186.796    3662.7362   -45849.532   0.15142557 
   99800    294.26987   -476.63853    132682.63    -42168.61    3591.9808    -45760.59   0.15612159 
   99900    294.06741   -556.96068    132676.88   -42209.401    3589.5094   -45798.911   0.15310018 
  100000    293.32234   -530.49663    132673.08   -42171.768    3580.4148   -45752.183   0.15560222 
Loop time of 53.6318 on 6 procs for 100000 steps with 4096 atoms

Performance: 805.492 ns/day, 0.030 hours/ns, 1864.564 timesteps/s
97.8% CPU use with 6 MPI tasks x no OpenMP threads

MPI task timing breakdown:
Section |  min time  |  avg time  |  max time  |%varavg| %total
---------------------------------------------------------------
Pair    | 34.484     | 35.604     | 37.156     |  15.8 | 66.39
Neigh   | 5.769      | 5.8792     | 6.0599     |   4.8 | 10.96
Comm    | 7.5957     | 9.2741     | 10.457     |  33.8 | 17.29
Output  | 0.16896    | 0.17031    | 0.17616    |   0.6 |  0.32
Modify  | 1.9564     | 1.9843     | 2.0064     |   1.2 |  3.70
Other   |            | 0.7203     |            |       |  1.34

Nlocal:        682.667 ave         712 max         670 min
Histogram: 4 0 0 0 0 1 0 0 0 1
Nghost:        1378.83 ave        1412 max        1364 min
Histogram: 1 2 1 1 0 0 0 0 0 1
Neighs:        0.00000 ave           0 max           0 min
Histogram: 6 0 0 0 0 0 0 0 0 0
FullNghs:      19450.0 ave       20282 max       19072 min
Histogram: 3 1 0 0 0 1 0 0 0 1

Total # of neighbors = 116700
Ave neighs/atom = 28.491211
Neighbor list builds = 6295
Dangerous builds = 0

undump              1
unfix               2
unfix               3
unfix               4




################################################
#######         Run Simulation         #########
################################################

reset_timestep      0
log                 log.run_${NAME}
log                 log.run_ice_295K_500atm_ML
