
# Create simulation box of size 50 x 50 x 50 Angstrom
#
lattice	            sc 1
Lattice spacing in x,y,z = 1.0000000 1.0000000 1.0000000
region 	            all block 0 50 0 50 0 50 units box
create_box          1 all
Created orthogonal box = (0.0000000 0.0000000 0.0000000) to (50.000000 50.000000 50.000000)
  1 by 2 by 3 MPI processor grid

# fill box with 4175 randomly distributed atoms
#
create_atoms        1 random 4175 63782 all
Created 4175 atoms
  create_atoms CPU = 0.001 seconds
mass                1 18.015

# Define potential
#
pair_style          sw
pair_coeff          * * ML_mW.sw mW
Reading sw potential file ML_mW.sw with DATE: 2019-02-27

# Run minimization
#
minimize            1.0e-8 1.0e-8 10000 1000
WARNING: Using 'neigh_modify every 1 delay 0 check yes' setting during minimization (../min.cpp:187)
Neighbor list info ...
  update every 1 steps, delay 0 steps, check yes
  max neighbors/atom: 2000, page size: 100000
  master list distance cutoff = 6.0032907
  ghost atom cutoff = 6.0032907
  binsize = 3.0016454, bins = 17 17 17
  1 neighbor lists, perpetual/occasional/extra = 1 0 0
  (1) pair sw, perpetual
      attributes: full, newton on
      pair build: full/bin/atomonly
      stencil: full/bin/3d
      bin: standard
Per MPI rank memory allocation (min/avg/max) = 4.255 | 4.258 | 4.261 Mbytes
Step Temp E_pair E_mol TotEng Press 
       0            0    7792709.3            0    7792709.3    5898794.3 
     630            0   -45180.336            0   -45180.336   -154.07449 
Loop time of 1.1698 on 6 procs for 630 steps with 4175 atoms

99.3% CPU use with 6 MPI tasks x no OpenMP threads

Minimization stats:
  Stopping criterion = max force evaluations
  Energy initial, next-to-last, final = 
      7792709.32924461  -45180.0188663597   -45180.336116598
  Force two-norm initial, final = 2.0191930e+08 4.9721331
  Force max component initial, final = 1.0948746e+08 0.73126211
  Final line search alpha, max atom move = 0.053306038 0.038980685
  Iterations, force evaluations = 630 1000

MPI task timing breakdown:
Section |  min time  |  avg time  |  max time  |%varavg| %total
---------------------------------------------------------------
Pair    | 0.89982    | 1.0055     | 1.0874     |   6.3 | 85.95
Neigh   | 0.023821   | 0.024373   | 0.024672   |   0.2 |  2.08
Comm    | 0.037843   | 0.11979    | 0.22631    |  18.4 | 10.24
Output  | 0          | 0          | 0          |   0.0 |  0.00
Modify  | 0          | 0          | 0          |   0.0 |  0.00
Other   |            | 0.02014    |            |       |  1.72

Nlocal:        695.833 ave         704 max         685 min
Histogram: 1 1 0 0 1 0 0 1 0 2
Nghost:        1494.17 ave        1515 max        1468 min
Histogram: 1 1 0 0 0 0 1 1 1 1
Neighs:        0.00000 ave           0 max           0 min
Histogram: 6 0 0 0 0 0 0 0 0 0
FullNghs:      19997.0 ave       20462 max       19320 min
Histogram: 1 1 0 0 0 0 0 2 0 2

Total # of neighbors = 119982
Ave neighs/atom = 28.738204
Neighbor list builds = 26
Dangerous builds = 0

# Add velocity/set timestep
#
velocity            all create ${TEMP} 120598 rot yes dist gaussian
velocity            all create 210 120598 rot yes dist gaussian
timestep            5.0

# Define output
#
compute	            1 all msd
thermo	            100
thermo_style        custom step temp press vol etotal ke pe c_1[4] density

# Neighbor lists
#
neigh_modify        delay 0 every 1 check yes

# Set fixes
#
fix                 1 all momentum 10 linear 1 1 1 rescale
fix                 2 all nve
fix                 3 all temp/csvr ${TEMP} ${TEMP} 500.0 928347
fix                 3 all temp/csvr 210 ${TEMP} 500.0 928347
fix                 3 all temp/csvr 210 210 500.0 928347
fix                 4 all press/berendsen iso ${PRES} ${PRES} 1000.0 modulus 20000
fix                 4 all press/berendsen iso 100 ${PRES} 1000.0 modulus 20000
fix                 4 all press/berendsen iso 100 100 1000.0 modulus 20000

# Run 0.5 ns equilibration
#
dump                1 all custom 1000 eq.${NAME}.dump id type x y z vx vy vz
dump                1 all custom 1000 eq.liquid_density_MLmW.dump id type x y z vx vy vz
run                 100000
Per MPI rank memory allocation (min/avg/max) = 3.506 | 3.508 | 3.511 Mbytes
Step Temp Press Volume TotEng KinEng PotEng c_1[4] Density 
     630          210    801.42152       125000   -42567.537    2612.7992   -45180.336 2.7295415e-33   0.99914793 
     700    134.22856     64.89923    125372.66   -41766.241    1670.0585   -43436.299    0.2425856   0.99617803 
     800    165.19339   -18.201744    125411.47   -41043.805    2055.3198   -43099.125   0.56495668   0.99586974 
     900    181.94584    108.04578     125163.1   -40638.298    2263.7521    -42902.05   0.94910081   0.99784597 
    1000    196.64431     132.1552    125151.89   -40381.221     2446.629    -42827.85    1.3109618    0.9979353 
    1100    203.18895    121.26946    125337.11    -40213.71    2528.0569   -42741.767    1.7224325   0.99646059 
    1200    205.63111    187.23237    125248.92   -40245.826    2558.4419   -42804.268    2.0922931   0.99716224 
    1300    202.61493    256.61161    125032.64   -40239.196     2520.915   -42760.111    2.4315787   0.99888711 
    1400    206.74401    37.255277    125282.81   -40266.705    2572.2886   -42838.994     2.671693   0.99689249 
    1500    205.82527    226.30948    125328.83   -40234.819    2560.8577   -42795.677    2.9522979   0.99652639 
    1600    209.51896    46.034495    125425.85   -40151.247    2606.8142   -42758.062    3.2804261   0.99575557 
    1700     208.3782    133.37786     125434.5   -40180.162     2592.621   -42772.783     3.555537    0.9956869 
    1800    209.13344    177.85189    125627.16   -40274.072    2602.0176    -42876.09    3.8268192   0.99415996 
    1900    210.55907    131.29289    125822.31   -40270.072    2619.7551   -42889.828    4.1816533   0.99261802 
    2000    211.48196    92.999803    125773.16   -40245.391    2631.2376   -42876.628    4.4790299   0.99300594 
    2100    210.18633    243.26499    125943.32    -40210.56    2615.1176   -42825.677    4.8463973   0.99166426 
    2200     211.7781   -60.971506    126249.83   -40237.749    2634.9222   -42872.671    5.0857659   0.98925671 
    2300    210.97001    102.52669    126142.69   -40233.716    2624.8679   -42858.584    5.4283179   0.99009692 
    2400     209.5729   -171.88884     126185.8   -40252.743    2607.4853   -42860.229    5.6907334   0.98975868 
    2500    216.27554    244.56443    126210.36   -40218.235    2690.8789   -42909.114    5.9317486   0.98956608 
    2600    214.82052   -86.637729     126132.3   -40176.635    2672.7757    -42849.41    6.1063799   0.99017852 
    2700    214.91801     216.1342     126298.3   -40213.096    2673.9887   -42887.084    6.5018762   0.98887704 
    2800     218.1913    13.591599    126257.97   -40229.129    2714.7145   -42943.844    6.8588007   0.98919294 
    2900    216.88442    -31.89117    126452.36   -40330.702    2698.4545   -43029.156    7.0943941   0.98767231 
    3000    212.17201    121.41306    126558.82   -40375.509    2639.8232   -43015.332    7.3000043   0.98684149 
    3100    212.60793    135.71145    126831.67   -40362.189    2645.2469   -43007.436    7.5935104    0.9847185 
    3200    213.08193    160.50965    127011.52   -40424.086    2651.1443    -43075.23    7.7877492   0.98332415 
    3300     211.4321    103.57347     126946.7   -40418.174    2630.6172   -43048.792    7.9599275   0.98382624 
    3400    214.25444    155.86788    127122.31   -40454.302    2665.7326   -43120.035    8.1199625   0.98246712 
    3500    214.02913    23.933493    127187.09   -40512.613    2662.9293   -43175.542    8.3864156   0.98196674 
    3600    209.32645    253.33871    127248.36   -40573.097     2604.419   -43177.516    8.5462555   0.98149388 
    3700    204.97994    73.640366    127605.65   -40641.171    2550.3401   -43191.511    8.6818418   0.97874574 
    3800    209.14757    -107.3984     127470.4   -40607.096    2602.1934    -43209.29    8.8506695   0.97978427 
    3900    209.17243   -85.791002    127440.26   -40645.983    2602.5027   -43248.485     8.989041   0.98001595 
    4000    208.49266    136.11464    127553.01   -40644.077    2594.0451   -43238.122    9.1186898    0.9791497 
    4100     210.3627     145.8257    127608.53   -40629.267    2617.3119   -43246.579    9.3257785   0.97872373 
    4200    209.01988    135.34879    127474.76   -40643.218    2600.6047   -43243.823    9.4401652   0.97975078 
    4300    208.51007     108.5979    127504.49   -40647.078    2594.2616    -43241.34    9.5869558   0.97952234 
    4400    209.59151    166.34262    127650.49   -40638.938    2607.7168   -43246.655    9.8435085   0.97840199 
    4500    211.01841    133.30916    127723.94   -40645.358    2625.4702   -43270.828    10.038834    0.9778393 
    4600    211.64686    -39.96321    127597.08   -40717.049    2633.2893   -43350.339    10.178778   0.97881154 
    4700    211.35071    140.69851    127624.26   -40663.503    2629.6047   -43293.108    10.326374   0.97860303 
    4800    207.66042    118.11522    127717.33   -40721.621    2583.6904   -43305.312    10.467915   0.97788994 
    4900    213.68898    121.69344    127910.68   -40610.251    2658.6971   -43268.948    10.591383   0.97641178 
    5000    213.62496    104.07508       128130   -40571.384    2657.9007   -43229.285    10.789998   0.97474042 
    5100    212.17843    70.594225    128050.36   -40635.593    2639.9031   -43275.496    10.889769   0.97534669 
    5200    210.19556    211.04424    127934.42    -40687.28    2615.2324   -43302.512    11.033466   0.97623054 
    5300    210.99555    14.744678    127789.88   -40648.448    2625.1858   -43273.633    11.151575   0.97733478 
    5400    209.20076    140.63596    127906.31   -40696.412    2602.8551   -43299.267    11.309248   0.97644512 
    5500    209.03996     137.1017    128029.63   -40717.877    2600.8545   -43318.732    11.506285   0.97550455 
    5600     213.2027    129.92986     128060.5   -40727.258     2652.647   -43379.905    11.556025   0.97526947 
    5700    209.47891    37.096219    128175.16   -40729.444     2606.316    -43335.76    11.866533   0.97439702 
    5800    207.97612    -42.35012    128155.06   -40766.866    2587.6183   -43354.484     12.06109   0.97454981 
    5900    212.44972    67.945236    128134.11   -40807.248    2643.2785   -43450.526    12.284738   0.97470919 
    6000    205.39817    125.21849    128132.15   -40810.588    2555.5437   -43366.131    12.381667   0.97472405 
    6100    210.52384    171.83553    128246.05   -40743.858    2619.3169   -43363.175    12.421857   0.97385835 
    6200    209.57192    152.80624    128263.65   -40816.754    2607.4731   -43424.227    12.579514   0.97372475 
    6300    209.80431    26.716297    128169.21   -40787.277    2610.3645   -43397.642    12.848165   0.97444226 
    6400    209.91127    78.818406    127933.88   -40764.153    2611.6952   -43375.849    13.073949   0.97623471 
    6500    212.43755    229.80861     127940.5   -40702.834     2643.127   -43345.961    13.278976   0.97618418 
    6600    209.52488    253.86686    128119.12   -40768.718    2606.8878   -43375.606    13.430742   0.97482318 
    6700    205.92429    83.329969    128253.33    -40834.77    2562.0896    -43396.86    13.571811   0.97380311 
    6800     209.7045    45.343806    128319.91   -40768.662    2609.1226   -43377.785    13.710232   0.97329785 
    6900    209.42114    214.02386    128441.17   -40712.233    2605.5972   -43317.831    13.925488   0.97237894 
    7000    216.57443     81.87104    128687.24   -40725.468    2694.5976   -43420.066    14.037284   0.97051962 
    7100    213.32228    112.17729    128728.46   -40773.994    2654.1348   -43428.129     14.03228   0.97020888 
    7200    209.32555    119.46429    128444.51   -40841.127    2604.4078   -43445.535     14.12713   0.97235371 
    7300    207.12463   -19.206744     128536.9    -40909.22    2577.0241   -43486.244    14.294816   0.97165474 
    7400    207.15623    267.30875    128554.53   -40923.525    2577.4173   -43500.942    14.386327   0.97152151 
    7500    208.10564    113.36145    128871.53   -40897.892    2589.2298   -43487.121    14.425232   0.96913172 
    7600    204.41434    39.499585    128907.27   -40976.674     2543.303   -43519.977     14.49836   0.96886302 
    7700    210.01967   -113.93709    128855.74   -40886.818    2613.0439   -43499.862    14.472177   0.96925048 
    7800    214.36266    113.47749    128840.44   -40870.865    2667.0791   -43537.944    14.687828   0.96936562 
    7900    206.01927    89.608593    128748.24   -40950.163    2563.2714   -43513.435    14.847397   0.97005979 
    8000    211.26602    252.77668    128762.54   -40926.953    2628.5509   -43555.504    14.803619   0.96995203 
    8100    211.01595    75.035412    128892.12   -41011.835    2625.4395   -43637.274    15.039383   0.96897696 
    8200    208.40361     54.78689    129031.66   -41038.078    2592.9371   -43631.015    15.137771   0.96792905 
    8300    205.35983    44.451932    128962.44   -41030.229    2555.0667   -43585.296    15.171499   0.96844854 
    8400    206.45769    275.93824    128827.15   -40966.795    2568.7262   -43535.521    15.259802   0.96946558 
    8500    208.41914    21.810098    128956.71    -40892.94    2593.1304   -43486.071    15.478685   0.96849161 
    8600    211.52213    118.42854    128906.55   -40893.873    2631.7374    -43525.61      15.4229   0.96886844 
    8700    210.92602    68.289755    128927.98   -40873.322    2624.3206   -43497.643    15.603403   0.96870745 
    8800    207.20315    160.96324     128689.5   -40909.277    2578.0011   -43487.278    15.651571   0.97050255 
    8900     207.7644    125.42201    128894.65   -40980.361    2584.9841   -43565.345    15.726498   0.96895793 
    9000    208.30599    42.138952    128972.29   -40934.049    2591.7225   -43525.772    15.804091   0.96837462 
    9100    207.02935    259.54453    129020.67   -41003.498    2575.8387   -43579.336    15.844265   0.96801148 
    9200     213.2027    484.28803     129165.9   -40918.312    2652.6469   -43570.959    16.075561   0.96692306 
    9300    213.29203    87.299271    129139.88   -40980.723    2653.7584   -43634.481    16.186956   0.96711794 
    9400    208.60765    54.704796     129126.6   -40945.948    2595.4757   -43541.423    16.387793   0.96721734 
    9500    208.56869    217.31671    129143.38    -40972.94    2594.9911   -43567.931    16.420178    0.9670917 
    9600    209.28729    68.616486    128973.68   -40945.406    2603.9318   -43549.338    16.467606   0.96836419 
    9700    211.35834    206.70673    129141.24   -40887.192    2629.6996   -43516.892    16.684783   0.96710772 
    9800    208.69569    157.80456     129108.8   -40959.128    2596.5711   -43555.699     16.74673   0.96735074 
    9900    207.65771    111.05968    128994.73   -41028.572    2583.6567   -43612.229    16.878731   0.96820613 
   10000    208.15028    93.593562    129007.65   -41025.974    2589.7852    -43615.76    17.080999   0.96810916 
   10100    209.84301    217.42798    129142.35   -40997.861     2610.846   -43608.707    17.184397   0.96709944 
   10200    203.79304    92.144111    129097.41    -41061.96    2535.5728   -43597.532    17.307105   0.96743604 
   10300    207.05997    139.10915    129149.36   -41061.763    2576.2197   -43637.983    17.391542   0.96704696 
   10400    209.22284    124.80741    129185.26   -41011.175    2603.1299   -43614.305    17.516829   0.96677817 
   10500     213.7195    151.45567    129287.31   -40993.959    2659.0769   -43653.036     17.69157   0.96601509 
   10600    211.88583    149.66923    129359.17   -40932.355    2636.2626   -43568.618    17.906473   0.96547842 
   10700    216.23688    224.14181     129253.1    -40920.07    2690.3979   -43610.468    17.862165   0.96627074 
   10800    214.78198    45.943508    129322.44   -40931.217    2672.2962   -43603.513    17.884827   0.96575267 
   10900    212.64001    134.50524    129348.78   -40963.073    2645.6459   -43608.719    17.891687   0.96555598 
   11000    211.63775    268.23764    129255.46    -40968.06     2633.176   -43601.236    17.993308   0.96625311 
   11100    209.86213    40.897286    129408.48   -40998.453    2611.0838   -43609.537    18.074626   0.96511058 
   11200     209.6405    51.667436    129288.69   -40989.167    2608.3264   -43597.494    18.177043   0.96600478 
   11300    208.63098    54.560744    129456.67   -40989.174     2595.766    -43584.94    18.151442   0.96475133 
   11400    209.46298    102.65717    129359.64    -41004.12    2606.1176   -43610.237    18.318049   0.96547496 
   11500    209.00262    -8.028042     129417.2   -41025.849      2600.39   -43626.239    18.372525   0.96504553 
   11600     207.5659    152.08187    129335.94   -41024.154    2582.5144   -43606.668    18.510478   0.96565186 
   11700    212.54012    48.521527    129484.92   -40927.222    2644.4031   -43571.625    18.882103   0.96454084 
   11800    209.11869    276.39968    129491.07    -40998.46    2601.8341   -43600.294    18.910957   0.96449501 
   11900    211.61691    175.58233    129536.16   -41015.855    2632.9167   -43648.772    18.936209   0.96415929 
   12000    208.68029    46.341065    129531.93   -41011.254    2596.3795   -43607.633    19.035072   0.96419074 
   12100    209.99974    119.06513    129402.16   -40969.754     2612.796    -43582.55    19.017755   0.96515768 
   12200    208.62014    199.15913    129383.36   -40974.894    2595.6312   -43570.525    19.022383   0.96529792 
   12300    205.83919    100.65674    129491.37   -41000.746    2561.0308   -43561.777    19.150633    0.9644928 
   12400    208.27715   -41.794392    129432.25   -40996.543    2591.3637   -43587.907    19.349074   0.96493335 
   12500    209.15336    97.824393    129449.87   -41085.542    2602.2654   -43687.808     19.40969   0.96480197 
   12600    210.07487    38.296128     129589.5   -40997.494    2613.7308   -43611.225    19.530732    0.9637624 
   12700    213.20044    236.11558    129629.04   -40981.201    2652.6188    -43633.82    19.588696   0.96346845 
   12800    211.52808    41.784484    129679.06   -40962.384    2631.8114   -43594.195    19.529789    0.9630968 
   12900     206.5567   -29.295804    129698.35   -40993.474    2569.9581   -43563.432    19.667346   0.96295361 
   13000    209.81441    168.14964    129672.73   -40931.882    2610.4902   -43542.372    19.810673   0.96314381 
   13100    211.08775    8.6934787    129722.56   -40931.654    2626.3329   -43557.987    19.976094   0.96277386 
   13200    211.16828    83.346381    129596.11     -40863.8    2627.3348   -43491.134    19.995357   0.96371329 
   13300    214.17584    173.12462    129513.73   -40907.643    2664.7546   -43572.397    20.150997   0.96432623 
   13400    210.34586    91.493205    129630.45   -40975.305    2617.1024   -43592.407      20.0479   0.96345795 
   13500    208.57477   -136.97738    129536.42   -41011.512    2595.0667   -43606.579    20.147916   0.96415734 
   13600    210.72183      249.381    129619.37   -41035.128    2621.7802   -43656.908    20.282033   0.96354035 
   13700    206.44233    103.99685    129550.85   -41041.937    2568.5351   -43610.472    20.562485   0.96404998 
   13800    214.51007    96.836182     129572.1   -40966.799     2668.913   -43635.712    20.541196   0.96389186 
   13900    213.68713    153.75495    129433.85   -41007.189    2658.6741   -43665.863    20.413405   0.96492141 
   14000    209.59839    174.97036     129465.2   -41002.971    2607.8024   -43610.774    20.318296   0.96468774 
   14100    207.25466    127.41992    129435.35   -41006.355     2578.642   -43584.997    20.328389   0.96491019 
   14200    208.66003    20.492741    129309.46   -41053.054    2596.1275   -43649.181     20.48786   0.96584963 
   14300     211.8322    140.15274    129481.54   -41119.282    2635.5953   -43754.877    20.519067   0.96456602 
   14400    211.76822     224.9075    129490.85   -41098.448    2634.7993   -43733.248    20.751689   0.96449666 
   14500      212.557    145.02173    129630.43   -41057.273    2644.6132   -43701.886    20.801247   0.96345811 
   14600    209.90738    15.368656    129454.01   -41056.792    2611.6469   -43668.439    20.826854   0.96477113 
   14700    207.65678    150.94546    129476.28   -41092.788    2583.6451   -43676.433     20.91687   0.96460518 
   14800    205.32218    131.38658    129641.85   -41133.755    2554.5982   -43688.354    21.161717   0.96337329 
   14900    204.69249     130.4042    129800.85   -41213.849    2546.7637   -43760.612    21.124873   0.96219316 
   15000    201.69789    29.436518    129744.09   -41215.968    2509.5052   -43725.473    21.239787   0.96261411 
   15100    202.23903    78.212319     129726.3   -41236.596     2516.238   -43752.834    21.211954   0.96274609 
   15200    206.94438    223.08979    129611.05   -41164.419    2574.7815     -43739.2    21.306699   0.96360221 
   15300    209.65549   -58.187918    129655.05   -41172.619    2608.5128   -43781.132    21.418682    0.9632752 
   15400    211.39482    82.974039    129627.08   -41165.261    2630.1535   -43795.414    21.440366   0.96348306 
   15500    208.50144    164.16489    129547.54   -41135.042    2594.1544   -43729.197    21.513872   0.96407462 
   15600     210.1289   -163.88659     129705.5   -41061.172     2614.403   -43675.575    21.612298   0.96290048 
   15700    206.71508    24.241906    129556.56   -41150.939    2571.9286   -43722.867    21.540448    0.9640075 
   15800    208.69363    149.48792    129595.78   -41130.457    2596.5455   -43727.003    21.793331   0.96371576 
   15900    207.61556    116.85032    129557.56   -41166.976    2583.1323   -43750.108    21.885078        0.964 
   16000     207.6205    51.625609    129623.88   -41108.171    2583.1937   -43691.364    22.001981    0.9635068 
   16100    212.89031    115.04504     129572.8   -41042.185    2648.7602   -43690.945    21.994211   0.96388663 
   16200    210.40325    92.170777    129574.12   -41107.165    2617.8164   -43724.982    22.022991   0.96387685 
   16300    208.74582    184.08252     129520.7   -41113.953    2597.1949   -43711.148    22.119815   0.96427437 
   16400    213.14609    71.656227    129628.77   -41031.198    2651.9426   -43683.141    22.172672   0.96347049 
   16500    212.62486    235.51476    129504.02    -41018.95    2645.4575   -43664.407    22.186458   0.96439855 
   16600    210.17277    193.04397    129620.29   -41013.248    2614.9489   -43628.197    22.365675   0.96353351 
   16700    209.33192    57.057822    129557.14   -41047.398     2604.487   -43651.885    22.430438   0.96400319 
   16800    208.58981    227.75566    129597.95   -41021.537    2595.2538   -43616.791    22.632196   0.96369957 
   16900    210.12769    257.49185    129610.22   -40990.809    2614.3879   -43605.197    22.522364   0.96360837 
   17000    210.25601    50.339025    129561.82   -41019.369    2615.9845   -43635.354    22.591504   0.96396836 
   17100    214.97311     15.94975    129680.02   -40943.021    2674.6742   -43617.695    22.778915   0.96308973 
   17200    213.99354    5.5869978    129532.48   -40972.021    2662.4865   -43634.507    22.894108   0.96418668 
   17300    213.03895    262.38962    129475.24    -41027.92    2650.6095    -43678.53    22.911836   0.96461293 
   17400    210.84235    220.24261    129670.89   -41043.319    2623.2797   -43666.599    23.150525   0.96315749 
   17500    210.05074    100.32751    129790.66   -41028.614    2613.4306   -43642.044     23.24487   0.96226871 
   17600    212.39191    112.22669    129919.07   -41003.211    2642.5592    -43645.77    23.372134    0.9613176 
   17700    207.35567    73.487985    129841.02   -41022.818    2579.8988   -43602.717    23.417371    0.9618955 
   17800    209.60994    10.463761    129828.79   -41014.176    2607.9461   -43622.122    23.619287   0.96198611 
   17900    212.90614    49.662943     129917.7   -40979.462    2648.9571   -43628.419    23.813116   0.96132774 
   18000    214.56364    73.853813    129891.68   -40928.594    2669.5795   -43598.174    23.845945   0.96152036 
   18100    207.46077    72.873038    129692.59   -41031.955    2581.2063   -43613.161    23.945527   0.96299636 
   18200     210.2202    24.116202    129757.27   -41046.566    2615.5389   -43662.105    24.125505   0.96251635 
   18300    214.74169    16.460293    129749.72   -40975.657    2671.7949   -43647.452    24.294406   0.96257236 
   18400    208.64899    260.93531    129668.33   -41034.973    2595.9901   -43630.963    24.303741   0.96317656 
   18500    211.93743    93.647643    129625.88   -40994.169    2636.9046   -43631.074    24.337845   0.96349197 
   18600    208.50083    161.83541    129651.13   -41049.342    2594.1467   -43643.488    24.428371   0.96330434 
   18700    211.86755    220.70736    129559.12   -41013.802    2636.0351   -43649.838    24.440436   0.96398842 
   18800    213.63299    152.12028    129663.37   -40982.235    2658.0006   -43640.236    24.711777   0.96321335 
   18900    215.08499    67.459888    129772.02    -41026.17    2676.0662   -43702.236    24.599824   0.96240694 
   19000    214.63797    38.634455    129443.15   -41009.756    2670.5043    -43680.26    24.741094   0.96485208 
   19100     208.5487   -103.74392    129511.53   -41075.924    2594.7423   -43670.666    24.666907   0.96434265 
   19200    208.67337    48.819678     129403.2   -41054.193    2596.2934   -43650.486    24.678711   0.96514993 
   19300    212.89529      51.9028    129663.26   -41001.652    2648.8222   -43650.474    24.876491   0.96321421 
   19400    209.72366    114.75789    129608.63   -41006.894     2609.361   -43616.255    25.117249   0.96362021 
   19500    208.56611    161.94969    129699.52   -40985.171    2594.9589    -43580.13     25.11977   0.96294489 
   19600     212.7938    83.135541    129600.03   -41029.567    2647.5594   -43677.127    25.097204   0.96368415 
   19700    214.52329 -0.026372595    129796.55   -41014.036    2669.0776   -43683.114    25.312952   0.96222504 
   19800    207.97112    203.86543    129553.86   -41056.287    2587.5562   -43643.844    25.514284   0.96402755 
   19900    210.93527    89.626628    129740.29   -41063.537    2624.4358   -43687.973    25.600829   0.96264233 
   20000    208.85266     193.7758    129670.29   -41120.062    2598.5242   -43718.586    25.646531   0.96316196 
   20100    211.92168    68.003155     129672.4   -41081.119    2636.7086   -43717.828    25.676797   0.96314627 
   20200    209.15609    300.97699     129835.2   -41124.501    2602.2994   -43726.801    25.727246   0.96193857 
   20300    209.09717    110.56522    129885.75   -41148.781    2601.5664   -43750.348    25.914438   0.96156425 
   20400    206.47715    204.53363    130135.61   -41140.209    2568.9683   -43709.178    26.148573   0.95971801 
   20500    204.32869    115.95412    130075.29   -41105.781    2542.2373   -43648.018     26.31739   0.96016311 
   20600    206.30149    29.663483    130187.36   -41129.747    2566.7827   -43696.529    26.396909   0.95933656 
   20700    212.67993    150.98215    130154.25   -41077.086    2646.1427   -43723.229    26.381705   0.95958057 
   20800    210.01639    34.870813    130068.99   -41091.619    2613.0032   -43704.622    26.379245   0.96020956 
   20900    208.10968    87.195648    129943.47    -41145.08    2589.2801    -43734.36    26.427631    0.9611371 
   21000    208.83831    138.12294    129914.16   -41228.886    2598.3456   -43827.232     26.40639   0.96135392 
   21100    208.16044    113.99843    130038.77   -41252.601    2589.9116   -43842.513    26.542275   0.96043271 
   21200    206.52304    109.54585    130174.62     -41225.4    2569.5393   -43794.939       26.813   0.95943042 
   21300    204.47541    13.560264    130160.05   -41228.672    2544.0628   -43772.735     26.86417   0.95953783 
   21400    211.94645    92.802059    130184.22   -41198.805    2637.0168   -43835.822    26.858273   0.95935966 
   21500    208.05614    2.0519234    130155.24   -41199.949    2588.6139   -43788.563     26.87693    0.9595733 
   21600    210.31754    174.81473    130078.06   -41151.425      2616.75   -43768.175    26.844185   0.96014262 
   21700    212.08672   -1.1462188    130206.63   -41121.045     2638.762   -43759.807    26.780279   0.95919454 
   21800    207.85088     117.8863    130136.41   -41109.855    2586.0601   -43695.915     27.13291   0.95971216 
   21900    210.55598    274.28346    129979.21   -41122.795    2619.7167   -43742.511    27.164634   0.96087279 
   22000    210.88009    259.86415    130162.88   -41156.648    2623.7492   -43780.397    27.177803   0.95951699 
   22100    211.31797    188.89435    130403.74   -41111.569    2629.1973   -43740.766    27.340166    0.9577447 
   22200    213.92339    15.720027    130677.93    -41149.83    2661.6137   -43811.444    27.317906   0.95573514 
   22300     211.8142    75.603843       130626   -41132.667    2635.3714   -43768.039    27.553352   0.95611507 
   22400    211.64381    24.087482    130717.96   -41104.321    2633.2514   -43737.572    27.539466    0.9554425 
   22500     215.3805    41.959945    130590.53   -41122.095    2679.7429   -43801.838    27.459874   0.95637481 
   22600    213.46184    213.67499    130690.32   -41103.777    2655.8711   -43759.649    27.626019   0.95564453 
   22700     213.8862    137.87369    130830.65   -41105.819    2661.1509    -43766.97    27.827744   0.95461949 
   22800     214.1907    214.69077    130755.85   -41093.907    2664.9395   -43758.847    27.929557   0.95516559 
   22900     210.9263    145.16298    130831.03   -41140.058    2624.3241   -43764.383    27.969486   0.95461677 
   23000    211.03633     32.30076    130794.82   -41124.184    2625.6932   -43749.877    27.938025   0.95488105 
   23100    209.21573    30.539194     130877.2   -41223.198    2603.0415    -43826.24    28.110595   0.95427997 
   23200    209.56991    96.569255    130768.58   -41165.148    2607.4481   -43772.596     28.13126   0.95507265 
   23300    209.47567    207.16939    130938.76   -41217.322    2606.2755   -43823.598     28.08686    0.9538313 
   23400    211.38675     75.69618     130892.7   -41147.393     2630.053   -43777.446    28.107164   0.95416696 
   23500    209.57436    159.37648    130784.16    -41188.07    2607.5035   -43795.574    28.298678   0.95495887 
   23600    213.06159    208.82029    130758.64   -41175.757    2650.8913   -43826.648    28.101669   0.95514524 
   23700    210.49054     104.4767     130681.1   -41205.382    2618.9025   -43824.284    28.216739   0.95571195 
   23800    209.90347     151.3079    130750.08   -41253.102    2611.5982   -43864.701    28.275021   0.95520773 
   23900    207.83047    123.76433    130755.47    -41268.74    2585.8062   -43854.546    28.454135   0.95516841 
   24000    208.98422    134.39141    130892.97   -41209.426     2600.161   -43809.587    28.454005   0.95416499 
   24100    211.92744   -76.727989    130738.21   -41204.944    2636.7803   -43841.725     28.36355    0.9552945 
   24200    209.00655    215.31365    130521.64   -41268.864    2600.4389   -43869.303    28.514036   0.95687956 
   24300    205.65911    21.890266    130616.13   -41245.563    2558.7904   -43804.353    28.740664   0.95618737 
   24400    207.13969   -17.376307    130488.63   -41289.548    2577.2116   -43866.759    28.653655   0.95712164 
   24500     212.6424    113.85106    130427.09   -41244.329    2645.6757   -43890.005    28.772853   0.95757326 
   24600      206.282    136.32566    130261.38   -41231.013    2566.5403   -43797.554    28.725405   0.95879143 
   24700    207.18661    254.77068     130296.1   -41231.622    2577.7953   -43809.417    28.869916   0.95853594 
   24800    206.30728    212.38291    130272.73   -41221.506    2566.8548   -43788.361    28.931982   0.95870789 
   24900    213.26941    108.85558    130458.32   -41164.723    2653.4769     -43818.2    29.038188     0.957344 
   25000    212.44532     140.6593    130602.74   -41149.408    2643.2237   -43792.632    29.047573   0.95628541 
   25100    209.53665    148.81935    130700.14   -41159.898    2607.0342   -43766.932    29.097553   0.95557274 
   25200    211.89981    93.249239    130497.16   -41204.699    2636.4366   -43841.135    29.260483   0.95705905 
   25300    212.36755    258.39715    130449.23   -41209.194     2642.256    -43851.45    29.261297   0.95741074 
   25400    208.51077    90.581393    130513.58   -41192.225    2594.2704   -43786.495    29.250236   0.95693864 
   25500    211.43615    174.66349    130516.49   -41146.787    2630.6677   -43777.455    29.212977   0.95691734 
   25600    207.56117    123.98916     130488.4   -41229.133    2582.4555   -43811.588    29.282106    0.9571233 
   25700    208.81727   -73.820699    130555.75   -41247.383    2598.0838   -43845.466    29.556214   0.95662957 
   25800    208.67538    97.010508     130740.3   -41232.443    2596.3185   -43828.761    29.716287   0.95527923 
   25900    209.30966    150.79154    130819.02    -41191.91    2604.2102    -43796.12     29.65141   0.95470441 
   26000    209.78027    142.69038    130920.13   -41128.988    2610.0654   -43739.054    29.818384   0.95396708 
   26100    208.19765    73.046107    130720.03   -41217.259    2590.3745   -43807.633    29.713919   0.95542734 
   26200    209.50127    64.103258    130768.63   -41212.405    2606.5941   -43818.999    29.723852   0.95507229 
   26300     211.1393    290.38427    130862.93   -41192.703    2626.9743   -43819.677    30.002538   0.95438405 
   26400    210.26494    77.984322    130768.61   -41198.536    2616.0955   -43814.632     30.15459   0.95507239 
   26500    210.57365    69.519363    130938.49   -41270.319    2619.9365   -43890.256     30.31225   0.95383332 
   26600    209.29714    3.0132253    130970.81   -41318.257    2604.0543   -43922.311    30.286249   0.95359794 
   26700    210.96313    35.939745    131053.77   -41350.177    2624.7824    -43974.96    30.252642   0.95299427 
   26800    210.40366    49.077919    131203.89   -41290.922    2617.8215   -43908.744    30.365898   0.95190389 
   26900    208.39788    191.23674    131220.91   -41302.486    2592.8658   -43895.352     30.29958   0.95178043 
   27000     205.8307    120.80142    131073.28   -41348.975    2560.9252     -43909.9    30.356778   0.95285243 
   27100    208.75084    31.427783    131222.77   -41351.756    2597.2573   -43949.013    30.378469   0.95176695 
   27200    208.20617    52.995884     131184.6   -41371.426    2590.4806   -43961.907    30.375357   0.95204384 
   27300    208.22152   -12.356563    131246.27   -41393.756    2590.6715   -43984.427    30.569542   0.95159653 
   27400     210.9865    60.166773    131323.18   -41345.765    2625.0731   -43970.838    30.528958   0.95103923 
   27500     213.0881    180.27062    131235.86    -41293.21    2651.2211   -43944.431    30.506889   0.95167198 
   27600    208.11431    116.25843    131257.22   -41313.873    2589.3377    -43903.21     30.84109   0.95151712 
   27700     215.0555    186.93003    131366.23    -41324.32    2675.6993    -44000.02    30.930719   0.95072751 
   27800    211.39176    81.116351    131387.49   -41265.218    2630.1154   -43895.333    30.820573   0.95057366 
   27900    214.74775    46.977576    131305.97   -41290.198    2671.8703   -43962.069    30.682353   0.95116388 
   28000    211.85283    49.586722    131197.27    -41328.91     2635.852   -43964.762    30.803478   0.95195189 
   28100    209.78593    98.271456    131252.48   -41315.854    2610.1358    -43925.99    31.130254   0.95155148 
   28200    210.47998    55.059067    131346.78   -41367.455    2618.7711   -43986.226    31.114039    0.9508683 
   28300    212.56425    127.24929    131275.68   -41358.127    2644.7034    -44002.83    31.096985   0.95138329 
   28400    208.54452    41.051007     131186.7   -41397.872    2594.6903   -43992.562    31.166391   0.95202857 
   28500    202.47886    304.09277    131234.06   -41415.269    2519.2219    -43934.49    31.160268   0.95168502 
   28600     206.2779    12.607682    131297.35   -41358.016    2566.4893   -43924.505    31.187723   0.95122628 
   28700    206.23939   -1.1910549    131355.05    -41360.64    2566.0101    -43926.65    31.219733   0.95080844 
   28800    205.72895    7.5941203    131278.78   -41318.233    2559.6593   -43877.892    31.382445   0.95136083 
   28900    212.27524    71.663626    131226.14    -41278.75    2641.1076   -43919.857    31.259205    0.9517425 
   29000    211.61475    52.208842    131191.15   -41363.047    2632.8898   -43995.937    31.139332   0.95199629 
   29100    214.90408   -87.970697     131302.7   -41304.203    2673.8153   -43978.018    31.434441    0.9511875 
   29200    214.66968    43.537366    131357.19    -41284.77     2670.899   -43955.669    31.461728   0.95079293 
   29300    209.07406    120.42108    131204.87   -41344.131    2601.2787    -43945.41    31.497967   0.95189678 
   29400    210.55016     105.4715    131334.91   -41392.036    2619.6443   -44011.681    31.589757   0.95095428 
   29500    208.54842     86.07517    131156.47   -41425.155    2594.7388   -44019.894    31.562469   0.95224803 
   29600    209.62511    49.145752    131093.89   -41348.751    2608.1349   -43956.886    31.615512   0.95270261 
   29700    207.75205    61.955034    131086.46     -41389.4    2584.8304   -43974.231    31.589357    0.9527566 
   29800    207.54142    186.99747    131414.49   -41362.579    2582.2098   -43944.789    31.636726   0.95037842 
   29900     212.5546    58.118784    131249.08   -41396.606    2644.5833   -44041.189      31.7054   0.95157611 
   30000    209.66017     12.99431    131147.95   -41370.587    2608.5711   -43979.158    31.845561   0.95230988 
   30100    211.53667    62.411936    131085.52   -41369.213    2631.9183   -44001.131    32.012539   0.95276346 
   30200    207.04996     75.82799    131047.28   -41373.511    2576.0951   -43949.606    32.189276   0.95304143 
   30300    208.44395    33.110442    130943.42    -41337.04    2593.4391   -43930.479    32.151272   0.95379741 
   30400     211.2356    151.58971    131035.46   -41307.035    2628.1725   -43935.207    32.241314    0.9531274 
   30500    210.96645    125.58068    131038.78   -41325.649    2624.8237   -43950.473    32.157774   0.95310326 
   30600    212.86593    126.78457    131076.14   -41317.445    2648.4569   -43965.902    32.285605   0.95283161 
   30700    210.13579    52.393964    131047.53   -41329.805    2614.4888   -43944.294    32.355323   0.95303964 
   30800    207.95699    218.47229    130917.35   -41268.659    2587.3803   -43856.039    32.329644   0.95398735 
   30900    210.15585    113.65778    130903.44   -41369.353    2614.7383   -43984.091    32.487729   0.95408869 
   31000    210.98827     103.1029    131144.38   -41403.258    2625.0952   -44028.353    32.581037   0.95233583 
   31100    206.29822   -17.988036    130894.11   -41409.499     2566.742   -43976.242     32.50487   0.95415668 
   31200    207.75801    133.38733    130910.01   -41417.934    2584.9047   -44002.838    32.634282   0.95404078 
   31300    212.33346    195.59513     131052.2   -41372.832    2641.8319   -44014.663    32.718836   0.95300568 
   31400    211.68252    161.52656    131093.02   -41338.774     2633.733   -43972.507    32.896865    0.9527089 
   31500    207.93304    274.27083    131187.01   -41383.237    2587.0823    -43970.32    32.845635   0.95202632 
   31600    209.90227    32.816676    131123.46   -41322.583    2611.5833   -43934.166    32.784606   0.95248774 
   31700     211.1397    229.75588     131081.7   -41360.678    2626.9792   -43987.657     33.00257   0.95279119 
   31800    213.38252    165.61229    131140.63   -41300.358    2654.8842   -43955.242     33.16727   0.95236308 
   31900    213.30856   -111.10024     131272.9   -41304.045    2653.9641   -43958.009    33.182516   0.95140346 
   32000    215.08731    129.21996    131168.06   -41306.064     2676.095   -43982.159    33.304347   0.95216387 
   32100    211.52806    149.89155    131131.43   -41319.696    2631.8113   -43951.507    33.165978    0.9524299 
   32200    213.29355    181.38409    131242.81   -41321.614    2653.7773   -43975.391    33.324992   0.95162158 
   32300    211.30005    176.85636    131205.39   -41309.979    2628.9744   -43938.954    33.340047   0.95189298 
   32400    211.35733    126.22977    131138.13   -41379.474     2629.687   -44009.161    33.825503    0.9523812 
   32500     209.6569    112.59246    131160.62   -41381.904    2608.5305   -43990.434    33.870414   0.95221789 
   32600    208.50806    204.06911    131406.25   -41320.792    2594.2366   -43915.028    33.827541   0.95043796 
   32700     211.3066    14.089079    131429.23   -41391.171    2629.0558   -44020.227    33.734354   0.95027177 
   32800    206.29994    7.1935984    131289.56   -41432.411    2566.7635   -43999.175    33.670265    0.9512827 
   32900    206.88672    70.834833    130971.08   -41416.953    2574.0641   -43991.018    33.748058   0.95359597 
   33000    208.28458    195.68682    131116.24   -41467.163    2591.4561   -44058.619    33.846477   0.95254021 
   33100    206.66886    83.655849    131001.54   -41393.255    2571.3536   -43964.609    33.797669   0.95337419 
   33200    209.35256    270.03294    130996.58   -41420.632    2604.7439   -44025.376    33.867177   0.95341035 
   33300    211.77175    324.38414    131217.13   -41362.511    2634.8432   -43997.354    33.973806   0.95180785 
   33400    208.58385    206.41784    131362.45   -41442.282    2595.1797   -44037.462    34.012018   0.95075489 
   33500     209.2837    147.94585    131442.27   -41401.272    2603.8871   -44005.159    34.106615   0.95017756 
   33600    210.52855    79.119192    131443.62   -41372.971    2619.3754   -43992.346    34.125881   0.95016776 
   33700    210.34658    184.47356    131459.22   -41364.135    2617.1113   -43981.246    34.152206   0.95005503 
   33800    211.52534    97.586991    131621.08   -41363.718    2631.7773   -43995.495    34.156978   0.94888671 
   33900    213.75162    7.0766319     131567.8   -41383.812    2659.4765   -44043.289     34.23585   0.94927093 
   34000    213.80718    47.311085    131557.98   -41358.824    2660.1678   -44018.991    34.430063   0.94934178 
   34100    211.88041    301.44404    131539.52   -41400.135    2636.1952    -44036.33    34.440902   0.94947501 
   34200    207.31704    22.621605    131487.22   -41393.659    2579.4181   -43973.077    34.555705   0.94985269 
   34300    209.29072    211.50824    131566.61   -41451.621    2603.9744   -44055.596    34.496227   0.94927952 
   34400    209.10376    17.228197    131556.57   -41397.919    2601.6483   -43999.567    34.492276   0.94935196 
   34500    206.84203    208.20216     131599.1    -41421.48    2573.5081   -43994.988    34.554002   0.94904519 
   34600    208.45936    165.09763    131722.92   -41405.665    2593.6307   -43999.296    34.540004   0.94815304 
   34700    211.27473     9.243682    131782.17   -41480.637    2628.6593   -44109.296    34.611064   0.94772677 
   34800    211.33708    126.68947     131932.8   -41466.727     2629.435   -44096.162     34.71525   0.94664473 
   34900    209.11188    226.20047    131995.69   -41484.034    2601.7494   -44085.784     34.91763    0.9461937 
   35000    202.79261    28.577059     131872.9   -41559.299    2523.1257   -44082.424    34.765441   0.94707474 
   35100    211.85081    11.933878    131799.45   -41499.552    2635.8269   -44135.379    34.674175    0.9476025 
   35200    209.69906    222.26245    131833.25   -41498.084    2609.0549   -44107.139    34.747782   0.94735958 
   35300    205.72059    -59.95249    131675.36   -41480.417    2559.5553   -44039.972    34.745232   0.94849556 
   35400    208.64654    116.10964    131613.85     -41492.1    2595.9596    -44088.06    34.842513    0.9489388 
   35500    210.01273    8.3136432    131561.45   -41393.858    2612.9576   -44006.816    34.871832   0.94931677 
   35600    210.28868    176.10293    131502.76    -41434.75     2616.391   -44051.141    35.039163   0.94974044 
   35700    210.74935    117.05682    131516.12   -41394.396    2622.1226   -44016.518    34.960696   0.94964399 
   35800     209.3089    112.60816    131687.54   -41429.137    2604.2007   -44033.338     35.04775   0.94840784 
   35900      209.071    148.51729    131562.33   -41379.722    2601.2407   -43980.963    35.058925   0.94931041 
   36000      213.553    86.867067    131698.56   -41350.442    2657.0053   -44007.448     35.09115   0.94832843 
   36100    211.42908    162.96687    131715.35   -41370.829    2630.5797   -44001.408    35.041152   0.94820759 
   36200     206.0833   -84.278851    131704.23   -41396.588     2564.068   -43960.656    35.269055   0.94828765 
   36300    207.67464   -66.506653    131579.17   -41449.926    2583.8674   -44033.794    35.150176    0.9491889 
   36400    208.21784    196.62536    131481.77   -41387.245    2590.6257   -43977.871    35.285552   0.94989206 
   36500    210.01052    56.585518    131520.15   -41367.949    2612.9301   -43980.879    35.354808   0.94961485 
   36600    204.51474    106.04428    131598.54   -41486.061    2544.5522   -44030.613    35.467797   0.94904921 
   36700    210.89642    259.16915    131516.86   -41427.839    2623.9524   -44051.792    35.450462   0.94963867 
   36800    210.23287     16.18329    131620.87   -41418.835    2615.6966   -44034.531     35.62885   0.94888821 
   36900    208.80027    80.953199     131558.6   -41432.421    2597.8724   -44030.293    35.621708   0.94933731 
   37000     211.5054     29.54437    131579.58   -41371.383    2631.5293   -44002.913    35.763247   0.94918599 
   37100    211.32945    96.256873    131506.97    -41352.86    2629.3401     -43982.2    35.635338   0.94971004 
   37200    208.87229    91.976452    131534.15   -41403.413    2598.7684   -44002.182    35.533576   0.94951379 
   37300    209.74863    60.759002    131514.32   -41421.484    2609.6717   -44031.155    35.787511   0.94965699 
   37400    209.45052    208.75994    131475.48   -41457.537    2605.9626   -44063.499    35.967573   0.94993754 
   37500    208.13743    79.701973    131531.29   -41470.314    2589.6253   -44059.939    36.022559   0.94953443 
   37600    210.65424    94.755536     131471.6   -41437.084    2620.9392   -44058.024    35.915385   0.94996557 
   37700    207.12708    4.7101238    131491.56    -41443.39    2577.0546   -44020.445    35.978921   0.94982137 
   37800    205.30954    208.57301    131447.43   -41533.344     2554.441   -44087.785    35.821691   0.95014025 
   37900    206.24313    45.662172     131510.3   -41489.917    2566.0566   -44055.973    36.062781   0.94968601 
   38000    207.18397    138.72283    131564.91   -41461.411    2577.7624   -44039.173    36.169517   0.94929182 
   38100    209.59775    27.588309    131588.58    -41424.19    2607.7945   -44031.984    36.413826   0.94912105 
   38200    207.74674    5.2976746    131444.21   -41442.374    2584.7644   -44027.138    36.455148   0.95016348 
   38300    211.69753    50.678403    131467.03   -41385.083    2633.9198   -44019.003    36.519667    0.9499986 
   38400    209.48149   -14.010959     131339.8   -41447.066     2606.348   -44053.414      36.3239   0.95091882 
   38500      210.624     24.40331    131462.12   -41454.467     2620.563    -44075.03    36.308052   0.95003404 
   38600    209.29595    178.10744    131371.55   -41411.663    2604.0396   -44015.702    36.361302   0.95068902 
   38700    209.47989    301.00331    131494.46   -41418.405    2606.3281   -44024.733    36.357908    0.9498004 
   38800     210.6344    137.57802    131438.37   -41450.623    2620.6924   -44071.315    36.518254   0.95020571 
   38900    207.75443    48.834507    131258.91   -41413.971    2584.8601   -43998.831    36.406099   0.95150487 
   39000    208.02908     149.8476       131477   -41462.619    2588.2772   -44050.896    36.512967   0.94992651 
   39100    211.84053    78.171181    131617.72   -41432.985    2635.6989   -44068.684    36.744045   0.94891095 
   39200    210.86074    116.42349    131504.07   -41453.641    2623.5085   -44077.149    36.750251   0.94973101 
   39300    206.78948    204.19323    131427.85   -41436.571    2572.8542   -44009.426    36.736382   0.95028179 
   39400    211.35804    177.61639     131575.2   -41393.751    2629.6959   -44023.447    36.791856   0.94921754 
   39500     215.6531    5.8293289    131545.08   -41373.749    2683.1345   -44056.884    36.897433   0.94943488 
   39600    209.37749   -38.768842    131446.96   -41408.368     2605.054   -44013.422    37.036591   0.95014363 
   39700    213.40733    81.780102     131419.9   -41361.379    2655.1929   -44016.572    37.041002   0.95033923 
   39800    214.50716    181.77987    131549.16    -41429.83    2668.8769   -44098.707    36.954379   0.94940546 
   39900    207.85654    132.30521    131566.36    -41480.57    2586.1305     -44066.7     36.74544   0.94928132 
   40000    208.55449    60.107407    131644.33   -41515.059    2594.8144   -44109.874    37.133676   0.94871912 
   40100    211.79029    74.840973    131661.59   -41419.802    2635.0739   -44054.876    37.144892   0.94859477 
   40200    211.14694     33.38401    131622.64   -41436.675    2627.0693   -44063.745    37.290222   0.94887542 
   40300    210.93909    145.36642    131588.96   -41415.658    2624.4833   -44040.142    37.303222   0.94911831 
   40400    216.36627      31.8477    131731.06   -41348.881    2692.0077   -44040.888    37.514668   0.94809446 
   40500    215.63189    52.909084    131764.04    -41368.46    2682.8707   -44051.331    37.712497   0.94785719 
   40600    212.34686    93.619552    131579.12   -41416.999    2641.9987   -44058.998    37.400269   0.94918926 
   40700    207.72799    170.32687    131598.32   -41453.053    2584.5311   -44037.584     37.56189   0.94905077 
   40800    206.90702    267.81924    131740.57   -41485.237    2574.3167   -44059.554    37.437881   0.94802605 
   40900    207.74099    11.059757    131614.86   -41521.432    2584.6929   -44106.125    37.187493   0.94893152 
   41000    209.07205    277.94549    131739.17   -41433.851    2601.2538   -44035.105    37.399876   0.94803609 
   41100      210.814    49.429955    131791.07   -41416.558    2622.9269   -44039.485    37.646436    0.9476628 
   41200    210.84167    8.7700214    131723.86   -41427.326    2623.2712   -44050.597    37.769676    0.9481463 
   41300      204.885    172.42476    131597.87   -41576.386    2549.1589   -44125.545    37.804879   0.94905403 
   41400    210.64864      213.557    131771.23   -41528.606    2620.8695   -44149.475    37.783213   0.94780548 
   41500    208.14358    226.28828    131878.59   -41534.531    2589.7018   -44124.233    37.701525   0.94703384 
   41600    206.34929    44.132022    131979.88   -41506.924    2567.3775   -44074.301    37.704752   0.94630705 
   41700    207.69051    188.44216    131936.84    -41481.87    2584.0648   -44065.935    37.748751   0.94661577 
   41800    210.61165    127.67748     131837.5   -41484.261    2620.4093    -44104.67    37.822157   0.94732901 
   41900    211.29943    6.9428002    131960.06   -41463.079    2628.9666   -44092.046    37.954598   0.94644916 
   42000    210.99048    102.92228    132035.88   -41467.134    2625.1227   -44092.256    38.182017   0.94590572 
   42100    214.45237    96.960348    132110.65   -41461.819    2668.1952   -44130.014     38.47485   0.94537035 
   42200    210.91225    8.1707393    131849.78   -41416.533    2624.1493   -44040.683    38.350554   0.94724083 
   42300    215.19387    116.92636    131792.11   -41395.781    2677.4209   -44073.202    38.330883   0.94765529 
   42400    207.97996    16.349764    131917.34   -41428.935    2587.6661   -44016.601    38.241789   0.94675568 
   42500    210.36272     60.18413    131746.21   -41423.348    2617.3122   -44040.661    38.083486   0.94798547 
   42600    206.16354   -24.196936    131688.89   -41438.438    2565.0663   -44003.504    38.406827   0.94839811 
   42700    212.23005    107.35661    131685.06    -41449.19    2640.5453   -44089.736    38.390788   0.94842566 
   42800    211.72819    140.01128    131789.73   -41398.826    2634.3013   -44033.127    38.451766   0.94767242 
   42900    209.65506    69.811013    131619.81   -41472.719    2608.5075   -44081.227    38.449347   0.94889588 
   43000    208.68213    80.767322    131810.29   -41503.651    2596.4025   -44100.053    38.380089   0.94752457 
   43100     211.1181    55.231798    131726.87   -41484.001    2626.7105   -44110.712    38.485407   0.94812465 
   43200    210.02132   -50.120892    131917.66   -41459.483    2613.0645   -44072.548    38.596351   0.94675335 
   43300    211.78397    243.54152    131803.73   -41463.036    2634.9952   -44098.031    38.533212   0.94757173 
   43400    213.64886    86.377126    131860.77   -41415.007    2658.1981   -44073.205    38.740477   0.94716183 
   43500      209.603    175.10197    131819.54   -41421.262    2607.8598   -44029.122    38.835317   0.94745812 
   43600    216.00574    295.94002    131997.51   -41340.345    2687.5221   -44027.868    38.666633   0.94618069 
   43700    216.29028   0.81219172    131997.23   -41367.604    2691.0623   -44058.666    38.817638   0.94618267 
   43800    210.03661    91.281256    131832.03   -41372.595    2613.2547    -43985.85    38.890148   0.94736836 
   43900    207.94681    149.54349     131903.3   -41402.223    2587.2536   -43989.477    38.816287   0.94685648 
   44000    210.35829      102.844    131963.14   -41439.428    2617.2571   -44056.685    38.840481   0.94642711 
   44100    209.61998    78.129978     131812.1   -41455.074    2608.0711   -44063.145    39.110787   0.94751155 
   44200    210.94155   -58.124255    131905.71   -41494.423    2624.5139   -44118.937    39.303084   0.94683916 
   44300    210.76759    156.57417    131902.06   -41514.157    2622.3496   -44136.507    39.428675   0.94686536 
   44400    211.70395    98.706515    131899.39   -41477.147    2633.9997   -44111.147    39.205487   0.94688454 
   44500    208.41733     3.737095    131769.42   -41508.944    2593.1078   -44102.052    39.066733   0.94781848 
   44600    205.67106       57.115    131819.94   -41559.067     2558.939   -44118.006    39.007951   0.94745523 
   44700     205.3131    192.53147    131867.94   -41526.197    2554.4853   -44080.682    39.089951   0.94711035 
   44800    208.03995       92.403    131705.81   -41492.965    2588.4125   -44081.377    39.273111   0.94827625 
   44900    209.12901    123.89534    131812.52   -41439.978    2601.9625   -44041.941    39.660342   0.94750857 
   45000    211.27732    112.77628    131869.04   -41436.667    2628.6916   -44065.359    39.663833   0.94710242 
   45100    214.02666    204.27932    132126.71   -41379.676    2662.8986   -44042.575    39.638042   0.94525547 
   45200    212.46983    132.30496       132052    -41450.71    2643.5287   -44094.238    39.454546   0.94579024 
   45300    211.57906    175.54444    132133.63   -41467.305    2632.4458   -44099.751    39.516396   0.94520593 
   45400    211.53816    43.438421    132097.55   -41456.495    2631.9369   -44088.432    39.530927   0.94546413 
   45500    213.66371    145.44917    132014.49   -41459.959    2658.3827   -44118.342    39.515313   0.94605896 
   45600    212.19962   -46.915905    131896.86   -41453.342    2640.1668   -44093.509    39.797866   0.94690269 
   45700    207.31032    29.626517    131758.74   -41463.586    2579.3345    -44042.92    39.832683   0.94789531 
   45800     213.7649    54.454639    131637.26   -41412.884    2659.6418   -44072.526    39.603112   0.94877004 
   45900    211.27388     111.3525    131794.28   -41366.646    2628.6488   -43995.295    39.609562   0.94763971 
   46000     214.1601    61.093094    131805.21   -41349.273    2664.5589   -44013.832    39.732587   0.94756108 
   46100    216.40052    63.852026    131694.35    -41297.17    2692.4339   -43989.604    39.872064   0.94835873 
   46200    218.51324    86.586814    131756.29   -41299.007    2718.7201   -44017.728    39.902847   0.94791294 
   46300    212.98009    129.78429    131839.18   -41317.516    2649.8772   -43967.394    39.905693   0.94731693 
   46400    214.65739    118.33818     131787.9   -41353.619     2670.746   -44024.365    39.787354   0.94768554 
   46500    215.05861    150.09753    131893.24   -41377.933     2675.738   -44053.672    39.993007   0.94692865 
   46600    212.11017    11.324778    131754.25   -41367.009    2639.0538   -44006.063    40.027462   0.94792759 
   46700     207.5131    106.33616       131903    -41440.05    2581.8575   -44021.908    40.112475   0.94685862 
   46800    205.66248   -1.3525308    131763.79   -41490.529    2558.8323   -44049.362    40.136478   0.94785896 
   46900     210.1893    198.33719    131826.36   -41410.467    2615.1545   -44025.622    40.190045    0.9474091 
   47000    214.12726    169.86911    131809.32   -41402.394    2664.1503   -44066.544    40.145496   0.94753153 
   47100    208.31557    14.502763    131661.25   -41381.981    2591.8417   -43973.822    40.161622    0.9485972 
   47200    209.53536    163.60426    131694.83   -41438.147    2607.0183   -44045.165    40.291797   0.94835534 
   47300    207.21659    174.58916    131678.79   -41460.003    2578.1684   -44038.172    40.466975   0.94847086 
   47400    216.21112    245.88265    131638.39   -41418.083    2690.0773    -44108.16    40.495612   0.94876189 
   47500     209.6379    102.20147    131654.59   -41377.403     2608.294   -43985.697    40.467939   0.94864515 
   47600    215.45149    77.576962    131655.15   -41339.121    2680.6261   -44019.747    40.531273   0.94864111 
   47700    211.46449    146.65709    131606.18   -41384.352    2631.0203   -44015.372     40.59674   0.94899409 
   47800    214.16514    154.76262    131633.39   -41392.561    2664.6215   -44057.183    40.701222   0.94879792 
   47900    208.16522     90.45476    131625.11   -41467.937    2589.9711   -44057.909    40.803263   0.94885767 
   48000    205.76151    79.970202    131579.82   -41477.533    2560.0644   -44037.597    40.908833   0.94918423 
   48100    207.39762    29.934886    131699.72   -41434.538    2580.4207   -44014.959    40.913501   0.94832007 
   48200    211.37137    266.04318    131688.36   -41466.672    2629.8617   -44096.534    40.766176   0.94840194 
   48300    212.54831    137.99984    131976.89       -41440    2644.5051   -44084.505    40.547095    0.9463285 
   48400    214.21361    52.991231     131917.1   -41366.532    2665.2245   -44031.757    40.591258   0.94675737 
   48500    210.80896    14.831538    131962.23   -41421.029    2622.8642   -44043.893    40.863741    0.9464336 
   48600    207.79121    76.215793    131838.37   -41433.413    2585.3177   -44018.731    40.928298   0.94732275 
   48700    211.19328    260.41499    131862.05   -41403.435    2627.6459   -44031.081    41.150438   0.94715262 
   48800    209.65541    159.17804    131702.55   -41437.392    2608.5119   -44045.904    41.129649   0.94829972 
   48900    212.85465   -9.2695986     131639.3   -41435.334    2648.3165   -44083.651    41.022596   0.94875537 
   49000    214.09085    211.19937    131698.69   -41469.975    2663.6972   -44133.673    41.038747   0.94832748 
   49100    209.55185     173.2422    131742.84   -41463.252    2607.2234   -44070.475    41.024444   0.94800971 
   49200    209.72304    139.60288    131706.88   -41484.058    2609.3534   -44093.412    41.048797   0.94826855 
   49300    209.57589    97.397183    131673.77   -41445.358    2607.5225    -44052.88    41.279635     0.948507 
   49400    207.37709    165.70807    131633.02   -41410.735    2580.1653     -43990.9    41.236474   0.94880059 
   49500    205.47137    41.775251    131589.46   -41426.901    2556.4545   -43983.356    41.430919   0.94911472 
   49600     215.6743     39.83627    131473.77    -41417.58    2683.3983   -44100.979    41.483381   0.94994988 
   49700    210.16774    158.89052    131439.06   -41426.932    2614.8862   -44041.818    41.404464   0.95020071 
   49800    212.50569    219.35572    131563.84   -41480.566    2643.9748   -44124.541    41.569776   0.94929949 
   49900    212.54116    74.602805    131536.13   -41368.364    2644.4161    -44012.78    41.490992   0.94949953 
   50000    214.28307    312.87104     131644.7   -41403.843    2666.0888   -44069.932    41.314037   0.94871642 
   50100    210.68203    132.66622    131764.89    -41423.84     2621.285   -44045.125    41.634395    0.9478511 
   50200    209.54099    177.98558    131719.15    -41469.59    2607.0883   -44076.679    41.757805   0.94818018 
   50300    212.45608    31.308009     131655.2   -41438.863    2643.3575    -44082.22    41.581692   0.94864079 
   50400     208.1542    33.680893    131559.98   -41468.917     2589.834   -44058.751    41.483539   0.94932737 
   50500    210.63678    223.35749    131608.38    -41512.75     2620.722   -44133.472    41.336128   0.94897823 
   50600    208.74386   -17.683249    131699.83   -41540.837    2597.1705   -44138.007    41.471394   0.94831932 
   50700     204.9371    140.72378    131935.59   -41553.581    2549.8071   -44103.388    41.579452   0.94662472 
   50800    206.80035    54.591038    131921.24   -41548.971    2572.9895   -44121.961    41.610611   0.94672771 
   50900    207.51014    85.388418    131877.96    -41465.23    2581.8207   -44047.051    41.857049   0.94703839 
   51000    211.55468    82.567147    131773.72    -41503.01    2632.1424   -44135.153     42.01191   0.94778756 
   51100    208.00342    41.580908    131906.23   -41529.676     2587.958   -44117.634    41.964035   0.94683543 
   51200    206.93113    9.2532168    131994.48   -41495.953    2574.6167   -44070.569    41.900212   0.94620237 
   51300    208.73713    144.88979    131977.52    -41553.92    2597.0867   -44151.007    41.910493   0.94632396 
   51400    207.73215    170.02541    132086.21   -41553.715    2584.5829   -44138.298    42.034478    0.9455453 
   51500    206.69718    17.072934    132016.18   -41559.917    2571.7059   -44131.623    42.151496   0.94604686 
   51600    208.78914    144.93388    131958.06   -41504.942    2597.7339   -44102.675     42.08234   0.94646353 
   51700     211.2717    -20.96036    131965.55   -41492.913    2628.6216   -44121.535    42.265306   0.94640983 
   51800    206.54254    123.63104    131831.76   -41524.977    2569.7819   -44094.758    42.287551   0.94737025 
   51900    212.28497    162.78172    131841.68   -41554.331    2641.2287    -44195.56    42.318356   0.94729903 
   52000    205.79735    52.903714    131854.19   -41574.089    2560.5103     -44134.6    42.505761   0.94720915 
   52100    205.14305     276.4752    132049.33   -41511.147    2552.3696   -44063.516    42.516456   0.94580932 
   52200    212.23376    223.72831    132113.48   -41530.648    2640.5914   -44171.239    42.458303    0.9453501 
   52300    206.73461    118.18331    132140.49   -41515.222    2572.1716   -44087.393    42.570385   0.94515684 
   52400    214.57963      46.9622    132169.65   -41475.283    2669.7785   -44145.062    42.685805   0.94494835 
   52500    210.29683   -24.686264    132168.68   -41473.041    2616.4924   -44089.533    42.663455   0.94495527 
   52600    211.00361    113.76898    132036.85   -41511.778    2625.2861   -44137.064    42.529778   0.94589872 
   52700    208.28072    62.425195    132107.05   -41542.277    2591.4081   -44133.685    42.424122    0.9453961 
   52800    207.91191   -19.763357    132088.32   -41498.501    2586.8194   -44085.321    42.363458   0.94553015 
   52900     206.9031    67.586322     131961.1   -41487.804     2574.268   -44062.072    42.425904   0.94644172 
   53000    207.52471    116.86499    131882.75    -41464.69     2582.002   -44046.692     42.31575   0.94700403 
   53100    210.08199    95.602306    132007.84   -41509.023    2613.8193   -44122.843     42.40753   0.94610659 
   53200    212.73546    16.913535    131871.74   -41512.243    2646.8336   -44159.077    42.480273   0.94708309 
   53300    212.76542    143.55085    131862.56   -41513.248    2647.2063   -44160.454    42.509719   0.94714897 
   53400    210.14626    147.15404    131920.05   -41589.427     2614.619   -44204.046    42.728326   0.94673626 
   53500    206.99276    132.15177    132016.54   -41599.746    2575.3834    -44175.13    42.670078   0.94604425 
   53600    208.13477   -70.294453    132033.55   -41600.726    2589.5922   -44190.319    42.703597   0.94592238 
   53700    203.18854    138.84125    132056.58   -41628.938    2528.0517    -44156.99    42.868466   0.94575744 
   53800    210.45043    191.89381    132247.87   -41517.946    2618.4035    -44136.35    43.013659    0.9443894 
   53900    208.54748    192.22176    132257.26   -41563.285    2594.7272   -44158.012    42.945219   0.94432237 
   54000    210.19285    50.203181     132206.1   -41539.019    2615.1986   -44154.218    43.002321   0.94468783 
   54100    208.25148     88.31684    132151.79   -41560.629    2591.0444   -44151.673    42.777784   0.94507607 
   54200    208.89817    179.51615    132085.08   -41528.938    2599.0904   -44128.028    42.715508   0.94555333 
   54300    209.71294    98.146217    132206.77   -41505.133    2609.2277    -44114.36    42.836314   0.94468303 
   54400    208.94424    143.15182    132121.61   -41542.176    2599.6636    -44141.84    42.809347   0.94529193 
   54500    211.92852    68.601415    132045.34    -41546.19    2636.7938   -44182.983    42.908375    0.9458379 
   54600    210.52574    119.14131    132087.61   -41457.259    2619.3404   -44076.599    42.987167   0.94553528 
   54700     214.9366   -4.3358459    132178.11   -41476.599    2674.2199   -44150.819    42.907348   0.94488787 
   54800    209.28869   -182.35937    132317.58   -41547.621    2603.9492    -44151.57    43.048251   0.94389193 
   54900    203.50796     47.30233    132084.67   -41573.613    2532.0259   -44105.639    43.028771   0.94555633 
   55000    206.55985    63.065609    132176.71    -41628.06    2569.9972   -44198.058    42.830609   0.94489784 
   55100    203.45214    119.41415    132222.25   -41585.301    2531.3314   -44116.632    42.784743    0.9445724 
   55200    207.81495    60.203934    132206.24    -41584.17     2585.613   -44169.783    42.996247    0.9446868 
   55300    209.71528     94.20338    132370.67   -41539.679    2609.2568   -44148.936    43.125516    0.9435133 
   55400    210.53073    72.565651    132325.74   -41517.898    2619.4025     -44137.3     43.21121   0.94383368 
   55500    211.88048    50.288665    132247.13   -41464.095     2636.196   -44100.291    43.348595   0.94439469 
   55600    211.23398    30.242498    132346.14   -41504.956    2628.1522   -44133.108    43.236057   0.94368821 
   55700    211.29121    104.08214     132398.6   -41511.504    2628.8643   -44140.368    43.196021   0.94331426 
   55800    208.41131    36.135808    132208.82   -41515.016    2593.0329   -44108.048    43.158672   0.94466834 
   55900    210.63178    118.12681    132276.39   -41477.828    2620.6598   -44098.488    43.173489   0.94418584 
   56000     207.9435    149.97926     132297.3   -41466.027    2587.2125    -44053.24    43.254716   0.94403662 
   56100    213.76166  -0.86038158    132253.64   -41438.363    2659.6015   -44097.965    43.333223   0.94434823 
   56200    212.50298    133.20745    132193.39   -41432.232     2643.941   -44076.173    43.332908   0.94477862 
   56300    209.98063    58.597966     132314.3    -41465.55    2612.5582   -44078.108    43.395369   0.94391529 
   56400    213.14664    1.8004795    132161.97   -41449.066    2651.9494   -44101.015     43.46637   0.94500328 
   56500    208.45709    208.42393    132127.09   -41534.762    2593.6025   -44128.364    43.489634   0.94525269 
   56600    206.46537    83.324465    132134.04   -41542.091    2568.8218   -44110.913    43.419502   0.94520301 
   56700    206.87446    115.33891    132043.35   -41572.193    2573.9116   -44146.105    43.649596    0.9458522 
   56800    207.12518    5.1756798    132004.68   -41503.353     2577.031   -44080.384     43.60164   0.94612924 
   56900    209.60501   -50.149845    132080.22   -41472.149    2607.8848   -44080.034    43.645306   0.94558814 
   57000    209.42353    156.18389    132187.25   -41421.828    2605.6268   -44027.454    43.646435   0.94482252 
   57100     211.7253    181.06546    132377.06   -41493.451    2634.2653   -44127.716    43.816379   0.94346776 
   57200    209.37104   -20.398581    132371.21   -41539.679    2604.9737   -44144.653    43.773697   0.94350949 
   57300     203.6085    55.703306    132201.47    -41584.13    2533.2768   -44117.407    43.845563   0.94472092 
   57400    204.24293    178.96099    132251.45   -41593.589    2541.1704   -44134.759    43.924544   0.94436389 
   57500    205.80775    197.92356    132282.97   -41640.158    2560.6397   -44200.798     43.80995   0.94413882 
   57600    210.20248    45.508625    132238.03   -41594.001    2615.3184   -44209.319    43.945193    0.9444597 
   57700    205.45622    166.96266    132309.17   -41624.469    2556.2659   -44180.734    43.938074   0.94395189 
   57800    205.49528    100.88709     132409.5    -41651.43     2556.752   -44208.182     43.82756   0.94323665 
   57900    208.40273    13.148581    132493.13   -41627.275    2592.9262   -44220.201    43.955404   0.94264123 
   58000    206.48888    64.993721    132644.74   -41631.662    2569.1142   -44200.776    43.985079   0.94156383 
   58100    205.13986   -3.5158118    132388.88   -41560.405    2552.3298   -44112.735    43.876952   0.94338358 
   58200    212.47186    220.49299    132426.59   -41505.549    2643.5538   -44149.103    43.982405   0.94311489 
   58300    213.50024    36.400037    132428.27   -41438.611    2656.3488    -44094.96    44.008088   0.94310298 
   58400    215.74591    162.44034    132581.54   -41448.671    2684.2893    -44132.96    44.174607   0.94201268 
   58500    213.56119    95.384642    132623.85    -41457.43    2657.1072   -44114.537    44.259089   0.94171216 
   58600    211.92814    32.848587    132436.55   -41438.525     2636.789   -44075.314    44.120192   0.94304398 
   58700    211.60103    93.610104    132397.44   -41443.659     2632.719   -44076.378    44.076549   0.94332257 
   58800    208.33648    71.527449    132463.37   -41481.861    2592.1019   -44073.963    44.200483   0.94285304 
   58900    209.00963    168.67557    132182.04    -41529.81    2600.4771   -44130.287    44.377606   0.94485978 
   59000    206.89982    218.58753       132180   -41510.689    2574.2271   -44084.916    44.417554   0.94487435 
   59100    208.85825    227.32381    132356.14   -41507.396    2598.5937    -44105.99    44.489639   0.94361692 
   59200    209.46453    61.807577    132412.44   -41529.763     2606.137     -44135.9     44.60479   0.94321566 
   59300    208.77533    169.21054    132269.73   -41519.528    2597.5621    -44117.09    44.643349   0.94423337 
   59400     205.3857    84.547416    132356.18   -41562.681    2555.3886   -44118.069    44.535523   0.94361662 
   59500    211.74579    128.62712     132257.7    -41531.83    2634.5202    -44166.35    44.477464   0.94431927 
   59600    213.22355   -128.70389    132157.88   -41532.695    2652.9064   -44185.601    44.523197   0.94503252 
   59700    209.87056   -30.626418    132142.55   -41559.163    2611.1887   -44170.352    44.545708   0.94514214 
   59800    208.53408     65.25996    132144.74     -41556.4    2594.5604    -44150.96    44.606355   0.94512646 
   59900    206.65801    40.549174     132299.7    -41542.21    2571.2185   -44113.428    44.672082   0.94401949 
   60000    207.76138    47.930954    132364.16   -41574.967    2584.9466   -44159.914    44.718765   0.94355975 
   60100    206.55977    178.53564    132288.27   -41539.738    2569.9963   -44109.734    44.657894   0.94410099 
   60200    208.92959    12.482179    132283.37   -41512.478    2599.4813    -44111.96    44.586634   0.94413599 
   60300    210.92402    50.059595    132321.62   -41464.156    2624.2958   -44088.452    44.619991   0.94386308 
   60400    210.30343    124.87968    132109.57   -41419.814    2616.5745   -44036.389     44.70174   0.94537804 
   60500     212.4387    225.87255    132157.56   -41437.748    2643.1413    -44080.89    44.691866   0.94503475 
   60600    209.95483    27.689497    131927.84    -41482.67    2612.2372   -44094.907    44.681519   0.94668035 
   60700    208.88691    111.02704    132014.98   -41495.448    2598.9503   -44094.398    44.725274   0.94605545 
   60800     210.3227    117.91846    131823.52   -41440.055    2616.8143   -44056.869    44.752805   0.94742951 
   60900     208.4291    160.55665    131776.71   -41429.921    2593.2543   -44023.176    44.935902   0.94776604 
   61000    212.69779    70.601521    131741.46   -41475.078    2646.3648   -44121.443    44.761128   0.94801964 
   61100     209.1892    84.656638    131718.78   -41510.898    2602.7114    -44113.61    44.579795    0.9481829 
   61200     209.0041    209.59385    131606.18   -41504.943    2600.4083   -44105.351    44.600902   0.94899415 
   61300    205.39262    146.65509    131833.28   -41492.767    2555.4747   -44048.242     44.65526   0.94735937 
   61400    205.87901    41.449744    131795.06   -41523.789    2561.5263   -44085.315    45.024841   0.94763411 
   61500    207.86046    55.499415     131814.9    -41513.82    2586.1793       -44100    45.104691   0.94749146 
   61600    206.83674     96.02543    131808.55   -41485.232    2573.4423   -44058.675    45.076154   0.94753707 
   61700    209.06928    149.37219    131749.08   -41561.365    2601.2194   -44162.585    44.935156   0.94796481 
   61800    200.91269    74.982767    131720.54   -41617.864    2499.7358     -44117.6    45.133117   0.94817022 
   61900    207.44831     104.4619    131754.51   -41554.942    2581.0513   -44135.993    45.159588   0.94792577 
   62000    209.03793     201.2411    131958.02   -41512.861    2600.8292   -44113.691    45.167277   0.94646378 
   62100    208.33526    140.23363    131851.22   -41523.586    2592.0867   -44115.673    45.368327   0.94723049 
   62200    211.39569    26.649711    131877.61   -41481.341    2630.1642   -44111.505    45.237691    0.9470409 
   62300    203.87935    126.23722    131943.14    -41507.33    2536.6467   -44043.977    45.391699   0.94657052 
   62400    209.50087   -67.601892    131822.03   -41442.946    2606.5891   -44049.535     45.38301   0.94744022 
   62500    212.23152     70.36119    131867.33   -41454.942    2640.5636   -44095.506    45.515288   0.94711474 
   62600    205.55704    17.306694    131746.01   -41469.212    2557.5204   -44026.733    45.523405   0.94798692 
   62700    209.12547   -26.386161    131794.06   -41488.397    2601.9184   -44090.316    45.523918    0.9476413 
   62800    212.46635    95.871322    131836.42   -41460.308    2643.4853   -44103.794    45.643005   0.94733679 
   62900    209.25265    23.184904    131903.09   -41407.168    2603.5008   -44010.669    45.663457   0.94685795 
   63000    211.30222    101.02103    131926.09   -41366.659    2629.0014   -43995.661    45.683392   0.94669287 
   63100    215.38011    94.364398    131821.56   -41350.307     2679.738   -44030.045    45.649976   0.94744355 
   63200    211.29202    46.267197    131783.24    -41377.66    2628.8744   -44006.534    45.806458   0.94771911 
   63300    212.75256    114.43369    131809.91   -41412.547    2647.0464   -44059.593    45.906435   0.94752731 
   63400    214.44189    101.85332     131780.4   -41350.945    2668.0648    -44019.01    46.019021   0.94773949 
   63500    205.11742   -58.032869     131776.5   -41448.308    2552.0506   -44000.359    46.061587   0.94776759 
   63600    207.76056    51.407232     131800.3   -41442.789    2584.9363   -44027.725    46.094995    0.9475964 
   63700    210.70855      235.123    131899.74   -41451.362    2621.6149   -44072.977    46.095735     0.946882 
   63800    207.70658     79.39662    131918.81   -41565.206    2584.2647   -44149.471    46.242273   0.94674516 
   63900    206.19084    176.45453    132043.18   -41560.287     2565.406   -44125.693    46.448371   0.94585337 
   64000    210.16634    120.97104    132111.66   -41557.799    2614.8689   -44172.668    46.597189    0.9453631 
   64100    212.24926     105.7099    132017.86   -41485.927    2640.7843   -44126.711    46.491159   0.94603479 
   64200    213.03094    92.781626    132126.08   -41481.617    2650.5098   -44132.127    46.346433   0.94525995 
   64300    213.55156    194.85813    132148.08   -41396.238    2656.9874   -44053.225    46.433748   0.94510259 
   64400    212.94071    177.18678    132262.42   -41416.272    2649.3873    -44065.66    46.315304   0.94428554 
   64500    208.83729    -13.57785    132057.86   -41408.455    2598.3329   -44006.787    46.517077   0.94574826 
   64600    208.33944    50.148693    131962.14   -41460.539    2592.1388   -44052.677    46.242489    0.9464343 
   64700    208.27865    101.28017    131875.87   -41469.457    2591.3824   -44060.839    46.271817   0.94705342 
   64800    208.57764    237.65814    131923.52   -41484.845    2595.1024   -44079.948    46.428668   0.94671133 
   64900    213.24146   -34.692724    131917.93   -41468.309    2653.1292   -44121.439    46.310723   0.94675141 
   65000    209.54467    136.89145    131745.82   -41441.279     2607.134   -44048.413    46.500861   0.94798828 
   65100    206.62858    117.05947    131779.92   -41457.935    2570.8524   -44028.787    46.518916   0.94774297 
   65200    211.47914    193.90292    131768.25   -41448.061    2631.2025   -44079.264    46.432197   0.94782692 
   65300    209.34546    115.46796     131702.1   -41446.521    2604.6555   -44051.177    46.407112   0.94830297 
   65400    213.25792    159.27598     131840.8   -41383.656     2653.334    -44036.99     46.76802   0.94730535 
   65500    210.89869    128.11466    131805.01    -41450.76    2623.9807   -44074.741    46.698128   0.94756255 
   65600    211.21638   -49.307666    131793.11   -41487.438    2627.9334   -44115.372    46.895711   0.94764809 
   65700    210.25696    236.59572    131937.55   -41535.935    2615.9963   -44151.931    46.737524   0.94661069 
   65800    206.17163    58.552087     132026.7   -41542.262     2565.167   -44107.429    46.833341   0.94597143 
   65900    209.56997    132.67497    131910.97   -41506.878    2607.4489   -44114.327     46.82579   0.94680138 
   66000     214.7852    65.795166    132175.19   -41428.371    2672.3363   -44100.707    46.690926   0.94490871 
   66100    213.32244    7.8699323     131971.8    -41384.33    2654.1367   -44038.467    46.854765   0.94636497 
   66200    214.94572    140.09205    131922.46   -41352.021    2674.3334   -44026.354    46.579201   0.94671894 
   66300    215.37362    59.605718    131969.62   -41396.499    2679.6573   -44076.156    46.825762   0.94638064 
   66400    210.20248    166.81403    131872.46   -41431.877    2615.3185   -44047.196    46.932166   0.94707789 
   66500    213.90091    44.643018    131996.68   -41446.993    2661.3339   -44108.327    47.063611   0.94618663 
   66600    211.64884    196.73506    131921.54   -41471.894     2633.314   -44105.208    47.174185   0.94672551 
   66700    210.71893    141.35109       131913   -41503.874    2621.7441   -44125.618    47.362793   0.94678681 
   66800     211.1256    203.75279    132029.45   -41460.732    2626.8039   -44087.536    47.476135   0.94595179 
[...]
   84600    208.12617    111.82157     131780.9   -41504.449    2589.4853   -44093.934    53.832577   0.94773593 
   84700    207.85965     -23.9142    131798.31   -41519.956    2586.1693   -44106.125      53.8572   0.94761068 
   84800    208.12696    151.03914    131772.76   -41490.355     2589.495    -44079.85    53.952724   0.94779445 
   84900    210.80965    67.739655    131691.93   -41481.931    2622.8728   -44104.804    54.206964   0.94837618 
   85000    207.79172    128.75584    131656.08   -41439.228     2585.324   -44024.552    54.206129   0.94863444 
   85100    208.33827    89.012351    131604.97   -41437.973    2592.1242   -44030.097    54.506293   0.94900283 
   85200    209.27027    81.525803    131650.04   -41449.873      2603.72   -44053.593    54.496995   0.94867799 
   85300    205.76425    95.131327    131761.68    -41497.49    2560.0984   -44057.589    54.501848   0.94787413 
   85400    211.79532    207.75266    131829.13   -41492.071    2635.1364   -44127.208    54.630945    0.9473892 
   85500    212.88067   -44.067681     131907.6   -41476.047    2648.6402   -44124.687    54.750921   0.94682557 
   85600    209.95676    57.478674    131727.52   -41446.946    2612.2612   -44059.207     54.82799   0.94811993 
   85700    207.10572    29.879581    131804.91   -41476.547    2576.7889   -44053.336    54.596539   0.94756326 
   85800    207.50441    94.576449    131941.96   -41473.913    2581.7494   -44055.662     54.90539   0.94657904 
   85900     212.8756    49.769938    131826.81   -41386.123    2648.5772     -44034.7    54.924589   0.94740585 
   86000    210.08327    79.504856    131794.68   -41439.505    2613.8352    -44053.34    54.800514   0.94763685 
   86100    210.98833    146.10028    131941.17   -41439.945     2625.096   -44065.041    54.909201   0.94658471 
   86200    211.98563   -28.706167    131851.26   -41407.311    2637.5042   -44044.815    54.787296   0.94723017 
   86300    211.74547   -103.30269    131770.52   -41448.141    2634.5162   -44082.657    54.977528   0.94781057 
   86400    211.68426    19.366493    131680.94    -41464.55    2633.7546   -44098.305     54.83865   0.94845531 
   86500    209.86992    70.479405    131625.03   -41443.839    2611.1808    -44055.02    54.820988   0.94885823 
   86600    212.77733    258.33407    131716.91   -41376.861    2647.3545   -44024.215    54.896954   0.94819634 
   86700    210.98573   -26.681942    131972.82   -41367.786    2625.0635    -43992.85    55.067709   0.94635765 
   86800    210.71674    172.02639    132013.21   -41439.094    2621.7168    -44060.81    55.208385    0.9460681 
   86900    213.40006   -1.9728275    132097.88   -41419.167    2655.1025   -44074.269    55.206947   0.94546172 
   87000    209.77786    123.66454    132018.31   -41429.199    2610.0354   -44039.234    55.185766   0.94603156 
   87100    208.32517   -44.193925    131837.53   -41471.001    2591.9611   -44062.963    55.115649   0.94732878 
   87200    212.05247    110.74763    131963.08   -41457.932    2638.3359   -44096.268    55.126064    0.9464275 
   87300     216.1173    227.48384    131951.26   -41464.775    2688.9101   -44153.685    55.432672   0.94651229 
   87400    207.89199    97.473001    131995.84   -41475.177    2586.5716   -44061.748    55.373111   0.94619261 
   87500    210.46545    13.568151    131943.56   -41497.682    2618.5903   -44116.272    55.449389   0.94656753 
   87600    211.16408    53.692245     131921.3   -41506.728    2627.2826    -44134.01    55.597285   0.94672727 
   87700    211.01764    28.995329    131896.47   -41521.585    2625.4607   -44147.046    55.698888   0.94690552 
   87800    209.11816    14.129262    131973.45    -41503.13    2601.8275   -44104.957    55.703515   0.94635314 
   87900    204.53077    37.733765    131904.42    -41519.25    2544.7516   -44064.001    55.907667   0.94684842 
   88000    207.43073    159.76499    131776.35   -41533.524    2580.8327   -44114.357    55.790286   0.94776862 
   88100    211.11901    140.22461     131898.1   -41459.818    2626.7218    -44086.54    55.725142   0.94689379 
   88200    208.12551    47.393906    131877.95   -41437.759     2589.477   -44027.236    55.756366   0.94703848 
   88300     209.7639    109.50497    131699.06   -41473.058    2609.8617    -44082.92    55.836265   0.94832484 
   88400    203.52052    175.59356    131689.16   -41572.634    2532.1822   -44104.817    56.045881   0.94839611 
   88500    210.68829    68.637969    131835.44   -41468.408    2621.3629   -44089.771     56.33302   0.94734385 
   88600    209.49682      129.407    131858.13    -41426.95    2606.5387   -44033.489    56.240262   0.94718082 
   88700    213.49081     133.4514    131839.01   -41422.835    2656.2315   -44079.067    56.056432   0.94731821 
   88800     212.7196    136.12031    131750.16   -41363.035    2646.6363   -44009.671    56.045402   0.94795703 
   88900    210.20646    213.90267    131805.65   -41409.078    2615.3679   -44024.446    56.123093   0.94755798 
   89000      214.512    52.053594    131944.67   -41395.622    2668.9371    -44064.56    56.181424   0.94655957 
   89100    209.03123   -15.792348    131962.07   -41487.509    2600.7459   -44088.255    56.305847   0.94643474 
   89200    206.24941    33.349517    131938.86   -41513.343    2566.1348   -44079.477     56.30643   0.94660127 
   89300    206.13567   -21.244878    131840.83   -41525.738    2564.7196   -44090.458    56.431991   0.94730508 
   89400    206.17539    18.323578    131804.82   -41550.924    2565.2138   -44116.138    56.492855   0.94756393 
   89500    207.02778    49.679979    131819.84   -41587.191    2575.8192    -44163.01    56.261036   0.94745596 
   89600    208.54107    155.33428    131828.86   -41623.074    2594.6474   -44217.722     56.32306   0.94739109 
   89700    205.07347    125.38385    131956.01   -41594.208    2551.5039   -44145.711    56.551987   0.94647825 
   89800    204.84377    121.09549    131856.64   -41564.174    2548.6459    -44112.82    56.409518   0.94719155 
   89900    202.65605      88.5893    131798.94   -41634.104    2521.4265    -44155.53    56.309066   0.94760616 
   90000    209.75984    28.662292     131735.1   -41540.732    2609.8112   -44150.543    56.377777    0.9480654 
   90100    208.76181    135.73009    131678.53   -41550.157    2597.3938   -44147.551    56.495695   0.94847273 
   90200    208.20654    85.823593    131676.86   -41561.731    2590.4852   -44152.216    56.390976   0.94848472 
   90300    205.38036    148.14037    131622.44   -41576.911    2555.3221   -44132.233    56.696799   0.94887686 
   90400    208.15242    112.00266     131769.2    -41557.24    2589.8119   -44147.052    56.857676   0.94782008 
   90500    209.61036    25.457732    131774.28    -41526.68    2607.9514   -44134.632     56.74209   0.94778352 
   90600    216.91386    40.312925    131659.39   -41445.218    2698.8208   -44144.039    56.611099   0.94861057 
   90700    210.65587    38.500093     131896.8   -41455.787    2620.9595   -44076.747    56.734829   0.94690312 
   90800    209.05748    226.74786    132034.68   -41492.377    2601.0725   -44093.449    56.756457   0.94591432 
   90900    206.06999    37.091005    131939.04   -41580.546    2563.9025   -44144.449    56.770298   0.94659997 
   91000    207.93599    216.73186    132036.19   -41597.737    2587.1191   -44184.856    56.848552   0.94590345 
   91100    205.03977     141.1441    132005.07   -41582.679    2551.0845   -44133.763    56.911022    0.9461265 
   91200    210.47226      88.9561    132088.75   -41548.124    2618.6751   -44166.799    56.940484   0.94552706 
   91300    210.58774    154.97714    132147.66   -41458.869    2620.1119   -44078.981    56.918116   0.94510556 
   91400    210.22741   -29.587138       132223   -41438.719    2615.6287   -44054.348    56.936071   0.94456705 
   91500    209.65678    69.733859    132040.71    -41453.27    2608.5289   -44061.798    56.898082   0.94587108 
   91600    212.20216    171.61251     132108.2   -41488.818    2640.1983   -44129.016    56.972666   0.94538785 
   91700     210.6686    136.72083    132184.25   -41550.223     2621.118   -44171.341    57.214251   0.94484393 
   91800    211.73666   -4.9496688    132257.56   -41521.025    2634.4066   -44155.432    57.325132   0.94432023 
   91900    209.97476    42.786163    132227.88     -41539.1    2612.4851   -44151.585    57.340633   0.94453217 
   92000    209.18569    137.09761    132288.64   -41548.015    2602.6677   -44150.683    57.509174   0.94409837 
   92100     205.6334    236.42899    132424.04   -41596.382    2558.4704   -44154.853    57.641064   0.94313308 
   92200    210.63859    30.241793    132429.22   -41533.354    2620.7446   -44154.099    57.715779   0.94309615 
   92300    213.38337    40.300096    132301.92   -41451.307    2654.8948   -44106.202    57.481024   0.94400362 
   92400     209.8391    135.65645    132429.56   -41464.599    2610.7973   -44075.396    57.496358   0.94309376 
   92500    208.26768   -18.079307    132409.73   -41524.948    2591.2459   -44116.193     57.47855   0.94323501 
   92600    212.42953    150.06469    132440.91   -41507.958    2643.0272   -44150.985    57.564431   0.94301291 
   92700    210.99955    95.836099     132446.1   -41496.349    2625.2355   -44121.585    57.621506   0.94297597 
   92800    211.89977    170.12251    132481.05   -41539.407     2636.436   -44175.843    57.493201   0.94272724 
   92900    211.71651   -46.479869    132298.58   -41503.985    2634.1559   -44138.141    57.654726   0.94402746 
   93000    209.32136     112.9595    132249.97   -41529.878    2604.3557   -44134.234    57.627534   0.94437447 
   93100    214.79233   -55.463762    132358.15   -41475.405    2672.4249    -44147.83    57.742865   0.94360256 
   93200    210.99848    171.68932    132344.74   -41485.775    2625.2222   -44110.997    57.477186   0.94369816 
   93300    212.43038    176.04452    132381.19   -41515.695    2643.0378   -44158.732    57.759981   0.94343837 
   93400    209.42596    31.261256    132507.91   -41564.445    2605.6571   -44170.102    57.732985   0.94253609 
   93500    207.51886    169.75528    132383.01   -41622.828    2581.9292   -44204.757    58.002631   0.94342535 
   93600    207.17187    83.100033    132514.17   -41685.517    2577.6119   -44263.128    57.971506    0.9424916 
   93700    206.83978    122.96961    132586.69   -41652.948    2573.4801   -44226.428    58.043347   0.94197608 
   93800    208.70504     163.6748    132780.01   -41627.807    2596.6875   -44224.495    57.916071   0.94060464 
   93900    211.19067    57.462203    132680.94   -41619.783    2627.6135   -44247.397    57.878121   0.94130699 
   94000    209.69904    149.35519    132564.42   -41618.761    2609.0548   -44227.816     58.01152   0.94213435 
   94100    212.35947    150.27805    132575.06   -41618.242    2642.1556   -44260.398    58.154249   0.94205875 
   94200    209.01741    136.76016    132818.03   -41606.137     2600.574   -44206.711    58.171329   0.94033538 
   94300    211.49396    179.73188    132559.56   -41555.681    2631.3869   -44187.068    58.022492    0.9421689 
   94400    209.97648    67.718082    132616.07   -41552.577    2612.5067   -44165.084    58.057144   0.94176743 
   94500    213.35079    129.75387    132570.38   -41495.699    2654.4894   -44150.188    58.051652   0.94209198 
   94600    211.67919   -118.10844    132451.29   -41537.248    2633.6916   -44170.939      58.1311   0.94293901 
   94700    212.23131     61.04951     132550.2   -41588.926     2640.561   -44229.487    58.233543    0.9422354 
   94800    210.04381   -29.894236    132536.83   -41596.541    2613.3443   -44209.886    58.282213   0.94233048 
   94900    213.92531    109.33446     132473.9   -41572.437    2661.6375   -44234.075    58.064954   0.94277808 
   95000    212.59951   -1.0532639    132491.32    -41562.69    2645.1421   -44207.833    58.261152    0.9426541 
   95100    211.59773   -86.809245    132470.89   -41567.414     2632.678   -44200.092    58.400856    0.9427995 
   95200    213.80831    101.59609    132414.55   -41611.859    2660.1819   -44272.041    58.562482   0.94320069 
   95300     214.5373    93.865632    132281.84   -41512.742    2669.2518   -44181.994    58.583781    0.9441469 
   95400    215.30367    100.82353    132304.36   -41578.873     2678.787    -44257.66    58.675314   0.94398622 
   95500    210.00269    122.50195    132320.29    -41579.04    2612.8327   -44191.873    58.756104   0.94387259 
   95600    213.39614   -11.626037    132279.46    -41575.22    2655.0537   -44230.273    58.540347   0.94416391 
   95700    212.15989   -57.626643     132169.6   -41630.351    2639.6724   -44270.024    58.657645   0.94494866 
   95800    208.44681    52.694056    132190.41   -41672.084    2593.4746   -44265.559    58.530428   0.94479995 
   95900    213.14587    266.96975     132323.7   -41621.054    2651.9399   -44272.994    58.496157   0.94384823 
   96000    209.20341    189.01089     132448.7   -41681.318    2602.8881   -44284.206    58.505735    0.9429575 
   96100    211.25289    91.387258    132498.55   -41636.571    2628.3876   -44264.959    58.529589   0.94260267 
   96200    206.60789    150.51293    132486.07    -41671.09    2570.5949   -44241.685     58.73282   0.94269151 
   96300    213.35167    25.590513     132615.8    -41621.86    2654.5004    -44276.36    58.829204    0.9417693 
   96400    213.47546     89.64418    132722.35   -41609.903    2656.0406   -44265.944    59.031681   0.94101328 
   96500    212.19646     38.18543    132660.13   -41656.011    2640.1274   -44296.138    58.953672   0.94145462 
   96600     210.0951     83.86678    132613.24   -41643.139    2613.9825   -44257.122    59.197381   0.94178748 
   96700    207.45218    185.68755    132721.82   -41707.918    2581.0995   -44289.017     59.16579   0.94101702 
   96800    205.34922    237.76836    132673.29   -41753.077    2554.9346   -44308.012     59.21103   0.94136123 
   96900    208.40172    114.78565    132721.55   -41707.463    2592.9136   -44300.377    59.203792   0.94101896 
   97000    206.30103    23.971911    132672.51   -41698.075    2566.7771   -44264.852    59.153758   0.94136673 
   97100    208.06054   -35.537184    132691.98   -41683.489    2588.6686   -44272.157    59.248744   0.94122862 
   97200     209.1868    209.45233    132641.15   -41683.342    2602.6815   -44286.024    59.333413    0.9415893 
   97300    207.96874    128.40088    132639.09   -41680.127    2587.5265   -44267.654     59.28839   0.94160396 
   97400    211.05437    104.00611     132536.5   -41691.393    2625.9176    -44317.31    59.154691   0.94233281 
   97500    212.18283   -32.368119    132756.02    -41593.76    2639.9577   -44233.718    59.374136   0.94077457 
   97600    207.72898    24.706399    132890.91   -41661.129    2584.5434   -44245.673    59.507282    0.9398197 
   97700    213.80211    261.99549    132837.69   -41608.907    2660.1047   -44269.012    59.591816   0.94019617 
   97800    213.23554    144.41595    132836.69   -41598.973    2653.0555   -44252.029    59.479979   0.94020325 
   97900    214.96032    66.186396    132999.02   -41576.593    2674.5151   -44251.108    59.354525    0.9390557 
   98000    212.38767   -8.4533383    132995.31   -41602.628    2642.5063   -44245.134    59.364328   0.93908193 
   98100    206.01922     88.79183    132879.86    -41683.83    2563.2707     -44247.1    59.724473   0.93989784 
   98200    210.97402    66.120943    132812.42    -41664.21    2624.9179   -44289.128    59.773311   0.94037506 
   98300     210.0733    194.00127    132950.34   -41685.087    2613.7113   -44298.798    59.990011   0.93939959 
   98400    205.56652    78.877827    132930.32   -41693.873    2557.6383   -44251.511    60.058921   0.93954107 
   98500    208.16384    123.50221    132897.35    -41702.28    2589.9539   -44292.234    59.974833   0.93977415 
   98600    206.75006     130.0049    132896.64   -41724.389    2572.3638   -44296.753    59.937343   0.93977913 
   98700    206.33496    79.401182    132850.75   -41769.341    2567.1991    -44336.54    59.860096   0.94010378 
   98800    206.97555    212.21484     132821.7   -41742.839    2575.1694   -44318.008    59.818959   0.94030937 
   98900    209.25502   -67.413878    132681.65   -41745.986    2603.5303   -44349.516    60.128066   0.94130192 
   99000    206.49931    56.327509    132753.92   -41781.513     2569.244   -44350.757    60.092855   0.94078945 
   99100    205.98322     13.74429    132698.26   -41707.382    2562.8228   -44270.205    60.087593   0.94118409 
   99200    206.03456    74.153991    132584.42    -41696.99    2563.4616   -44260.452    60.051622   0.94199224 
   99300    210.83704    69.543983    132664.22   -41651.531    2623.2136   -44274.744    60.048299   0.94142559 
   99400    211.80101    311.19331    132719.55   -41619.754    2635.2072   -44254.961    60.144199    0.9410331 
   99500     217.0284   -31.859103    132816.85   -41517.077    2700.2459   -44217.323    60.280311   0.94034373 
   99600     210.3214    30.574284    132726.91   -41541.249    2616.7981   -44158.047    60.516768   0.94098091 
   99700    219.45862     227.5462    132628.48   -41561.296    2730.4824   -44291.778    60.481523    0.9416793 
   99800    213.77594   -4.0454372    132796.55   -41586.203    2659.7791   -44245.982    60.618557   0.94048748 
   99900    212.04811    64.052521    132724.24   -41655.061    2638.2816   -44293.343    60.399138   0.94099989 
  100000    211.08439    13.556367    132665.54   -41673.171    2626.2912   -44299.462    60.413053    0.9414162 
  100100    212.31835    122.39223    132678.35   -41604.183     2641.644   -44245.827    60.399776   0.94132532 
  100200    213.11648    86.932203    132590.61   -41604.446    2651.5742   -44256.021    60.380884   0.94194821 
  100300    213.52032    23.506357    132424.69   -41593.744    2656.5987   -44250.343    60.297521   0.94312843 
  100400    212.59825    77.855903    132572.34   -41632.788    2645.1264   -44277.915    60.353367   0.94207803 
  100500    214.00164    36.834202    132654.73   -41554.998    2662.5872   -44217.585    60.706768   0.94149292 
  100600    210.00222    192.52821    132543.84   -41625.971    2612.8268   -44238.798    60.630643   0.94228063 
  100630    212.19607    105.08711    132553.21   -41612.169    2640.1225   -44252.292    60.689082   0.94221401 
Loop time of 78.4967 on 6 procs for 100000 steps with 4175 atoms

Performance: 550.341 ns/day, 0.044 hours/ns, 1273.939 timesteps/s
98.5% CPU use with 6 MPI tasks x no OpenMP threads

MPI task timing breakdown:
Section |  min time  |  avg time  |  max time  |%varavg| %total
---------------------------------------------------------------
Pair    | 62.254     | 63.414     | 65.109     |  13.0 | 80.79
Neigh   | 4.8564     | 4.9045     | 4.9623     |   1.5 |  6.25
Comm    | 5.8584     | 7.5829     | 8.7594     |  38.4 |  9.66
Output  | 0.15899    | 0.15973    | 0.16301    |   0.4 |  0.20
Modify  | 1.7383     | 1.7661     | 1.8257     |   2.3 |  2.25
Other   |            | 0.6692     |            |       |  0.85

Nlocal:        695.833 ave         707 max         686 min
Histogram: 2 0 0 1 0 0 1 1 0 1
Nghost:        1446.33 ave        1457 max        1434 min
Histogram: 1 0 0 1 1 0 1 1 0 1
Neighs:        0.00000 ave           0 max           0 min
Histogram: 6 0 0 0 0 0 0 0 0 0
FullNghs:      19137.3 ave       19569 max       18829 min
Histogram: 2 0 1 0 1 0 0 1 0 1

Total # of neighbors = 114824
Ave neighs/atom = 27.502754
Neighbor list builds = 5241
Dangerous builds = 0

undump              1
unfix               2
unfix               3
unfix               4


################################################
#######         Run Simulation         #########
################################################

reset_timestep      0
log                 log.run_${NAME}
log                 log.run_liquid_density_MLmW
