LAMMPS data file via write_data, version 29 Oct 2020, timestep = 800000

4175 atoms
1 atom types

-0.5963683308788887 50.59636833087673 xlo xhi
-0.5963683308788887 50.59636833087673 ylo yhi
-0.5963683308788887 50.59636833087673 zlo zhi

Masses

1 18.015

Atoms # atomic

833 1 42.16815428303694 24.427924252375057 10.18588968368375 0 0 0
2430 1 5.381539773537648 0.5169465699826956 1.6340012724286566 1 1 0
682 1 9.755989385931159 1.0389356092487245 1.8757933895838916 0 0 0
4 1 5.924207943333342 -0.35872244729071606 10.972985317939417 0 0 0
2288 1 15.965629730999176 2.1879017312624724 1.572129905331729 0 1 0
1512 1 18.449645207128494 2.391249508539617 2.123325797295397 0 0 1
197 1 38.14137601304087 -0.17061935327925198 1.9760460156654158 0 0 0
504 1 24.269668136316724 1.4830609212400234 1.342064682815814 0 0 0
589 1 1.4853545159874995 -0.30384109662738684 1.587196180489657 1 0 0
965 1 29.005700916954606 0.5936397638316091 2.180082005720649 0 0 0
140 1 50.19863792378848 10.423890389490177 0.05635789806164093 0 0 0
106 1 33.63367395394351 1.1518867724405126 0.6714677523500998 0 0 0
2019 1 42.9009190079876 13.021477091503646 -0.4047315615417594 -1 0 1
2591 1 0.5135638120114931 22.604292111751167 -0.3766790039493419 0 0 0
2184 1 41.45891026748636 2.8220835415078183 0.9120182041079778 0 1 0
15 1 14.361849404146758 16.82584552150175 -0.05031462519994623 0 0 0
4040 1 45.88984950558493 1.7467627771384935 2.4232892935833172 0 1 1
9 1 47.86741463858939 1.1052476167326015 0.20584888312226302 0 0 0
2534 1 50.15311942995938 0.37739431362238085 2.216717306458467 -1 1 0
761 1 3.893284974040683 4.749259583130986 0.4245923475183644 0 0 1
280 1 7.1008829147645 2.6400122945103903 2.2329182334002997 0 0 0
619 1 6.622642040063084 5.052644903363511 0.6761763950141244 0 0 0
12 1 12.955245999245836 5.7479391890908635 2.147966323830383 0 0 0
4152 1 19.677524408188972 4.961754128534331 2.0905036057048276 0 1 1
2069 1 25.167455791689775 6.19592340098873 1.4165919722770197 0 0 1
336 1 24.449429423571303 3.8696427419588932 2.6669160859211485 0 0 0
2978 1 30.264943838216773 3.0790444495780473 1.9261893558800955 0 1 0
3799 1 35.7327388810408 2.6634456421303816 -0.1693091301738608 0 1 1
349 1 36.65541454855038 4.337806161607158 1.8762248132378838 0 0 0
389 1 41.83648940503334 5.112020990402103 2.0236613713934366 0 0 0
1865 1 44.64438101506602 4.7437408619060415 2.4855380428372045 0 0 1
596 1 -0.2934394152481184 9.38298603472323 2.297813464969454 0 0 0
1925 1 -0.05821798176273285 6.700606310162716 1.4898107396405185 0 0 1
2016 1 2.5990673187573723 7.118112819722809 -0.09567379704184198 0 0 1
617 1 8.286316322737758 6.858975101462225 1.8717623296100219 0 0 0
1653 1 44.15045643354128 2.0041124146795646 -0.03798843379893346 0 0 1
1877 1 15.02554896265916 7.4061065683701415 1.7480620127297977 0 0 1
1405 1 20.57013556079535 8.040749695583791 1.1922546604458715 0 0 1
1695 1 19.12324856854546 6.014879017252151 -0.24866289901535227 0 0 1
1406 1 23.046725111656794 7.35028623389001 -0.0672927485079633 0 0 1
531 1 28.38410356734977 6.953708668775016 1.9244573894008226 0 0 0
1833 1 30.906092947820618 8.163406878248034 1.7771722522493727 0 0 1
2374 1 33.26848493722708 6.768596990882643 1.1069300419069257 0 1 0
1435 1 35.43303970809874 8.182154226325848 0.5411172674495939 0 0 1
1419 1 37.72555926636919 6.855946873111959 0.5721592924650931 0 0 1
341 1 39.95598859844684 8.44193780440357 1.3051416156977105 0 0 0
1644 1 42.1089344583806 7.19123891860115 0.14131652428145336 0 0 1
1797 1 44.68567139650763 8.620954242425093 0.5316652793661127 0 0 1
47 1 46.42348523135979 6.515245488993906 0.7712992901796893 0 0 0
289 1 48.43284625992281 5.93617844104187 2.751766798696735 -1 0 0
1862 1 4.805179983444481 8.563065625235458 0.8341996059440979 0 0 1
226 1 3.933759675248992 11.297622318371362 0.8530510129337046 1 0 0
454 1 8.883692809899237 8.865771281193323 0.05299799298377217 0 0 0
2325 1 9.500720509120354 11.162586079178931 1.5488281989022812 0 0 0
1471 1 14.07849397439999 10.105914706104556 1.8973157237283007 0 0 1
1577 1 16.350600858864077 11.546216936946779 2.2672274507532104 0 0 1
1853 1 18.57128067457904 11.614795748703227 0.3699498962627039 0 0 1
676 1 25.909631733814233 10.33573811521775 0.9067693181940868 0 0 0
3205 1 19.537286697982584 1.0685991893231088 -0.2546410008479099 0 1 0
2011 1 30.873025785890484 10.29817657761409 -0.0003666904912131841 0 0 1
529 1 31.888619820638063 12.1648062917351 1.6796772227796124 0 0 0
580 1 35.51889372914758 9.869660197420387 3.019540693186915 0 0 0
665 1 37.05970229381777 11.925234266995966 2.5816929367934733 0 0 0
1221 1 39.33370428931811 11.12652625374365 0.9660356443149296 -1 0 0
575 1 46.72588982543725 11.316054297559571 2.915572990639694 0 0 0
486 1 5.439253086244423 13.324826263213401 2.0861846045360917 0 0 0
4146 1 7.027223605478435 15.0203321434901 0.5089452864305868 0 0 1
335 1 10.648510223211774 13.406264728679245 0.34629380433106693 0 0 0
287 1 15.219302752141244 14.126625195012094 2.978245909280079 1 0 0
3840 1 14.749282922004964 14.310701017886634 0.2226414142224964 0 1 1
373 1 20.47285125806052 13.694151556077713 0.674673498712578 0 0 0
338 1 25.98659699125163 14.605008416244928 0.7720410154955832 0 0 0
329 1 24.653809245530315 12.344513592968894 2.070667474973911 0 0 0
587 1 28.442232830212486 13.676357639947092 0.22016789565739714 0 0 0
2217 1 29.889634121296787 13.951028285955436 2.4773686916424116 0 0 0
694 1 33.53357860128866 13.189139506932129 -0.04570326731326857 0 0 0
252 1 36.003007821541445 13.86200336195247 1.0213975157227055 0 0 0
1976 1 41.295273131732024 12.871088066860395 1.8058597464962025 -1 0 1
690 1 -0.1264840035286975 13.701870256892537 16.2709255690097 0 0 0
1809 1 -0.36214042829849935 12.939408856120215 1.3350634742075267 1 0 1
1062 1 48.01780261707485 13.976016192477484 1.821260068730672 -1 0 0
2761 1 2.444623767929961 15.906977835404025 0.3298694244584157 1 0 0
1987 1 0.4700084463032266 17.634966023400207 1.014652397450434 1 0 1
3443 1 6.4253045797643145 23.960084010109078 11.287802157072974 1 0 0
1764 1 8.305869849492996 17.095886292786467 2.1758163110261575 1 0 1
1811 1 10.640769470587216 15.554136299042863 2.312911806440951 0 0 1
1553 1 8.681794714895943 18.772377292301343 0.06170170136992059 1 0 1
1544 1 12.4143924955374 17.76120632443788 1.5180865159388586 0 0 1
2700 1 19.811279871253028 24.651522732249262 3.953516598190623 0 0 0
121 1 16.537946633916718 18.33725325993336 0.5255861171556182 0 0 0
406 1 19.497354254761373 15.935506899760973 2.193908668099865 0 0 0
113 1 18.9334445727536 17.217662698269873 -0.26929872078421024 0 0 0
1835 1 26.225582743307978 16.764258226955253 2.717731433128721 0 0 1
168 1 28.646050062480057 18.294218489101272 2.765737163918355 0 0 0
299 1 30.968690612853806 16.351580093971915 2.7631456547424946 0 0 0
46 1 33.025039358086296 17.39073879163815 1.1748841009435451 0 0 0
261 1 35.604703371717626 16.564474980204714 2.2820696414565598 0 0 0
3676 1 37.19733367911987 18.68765488043102 1.6698640916056426 0 0 1
3977 1 41.154312374973095 15.681728231046307 1.2956389985748247 0 0 1
343 1 39.48020822862922 17.27877945824876 2.949624689637827 -1 0 0
20 1 43.57100943784745 16.746723018000118 0.8682998395173478 0 0 0
1948 1 45.14179450320078 17.68077562700825 2.995486936229776 0 0 1
3189 1 -0.38531234086346294 5.162262949999 16.20353220867541 0 1 0
1820 1 47.87979589573172 16.626468062857537 2.1086004467941506 0 0 1
1679 1 5.204974248082516 20.285382200256098 1.3920722328790247 1 0 1
4094 1 7.336869419677495 21.35198347141544 0.1699398794451754 0 0 1
296 1 11.03112278129099 19.979935848941835 0.6113557636469602 0 0 0
2344 1 10.680349223688085 21.71554578161105 2.78890488412333 0 0 0
178 1 15.648844476717066 21.11990228484492 0.41945918382566316 0 0 0
2633 1 20.07651469059744 20.86345804198249 1.3751037067797036 0 0 0
555 1 24.086600280178928 18.206157465306834 2.0992772035963463 0 0 0
860 1 19.890430015233104 24.70318038364217 9.936614180970244 0 0 0
3729 1 28.516535906088063 19.67081830232206 0.3385115961848233 0 0 1
1494 1 30.696963187495594 21.381762808788046 0.2752265308573213 0 0 1
3572 1 33.08859232164143 20.12934680225588 0.7582528463490399 0 0 1
2172 1 34.1063120311014 21.746548111343063 2.747150388952532 0 0 0
500 1 36.384727250340276 23.983497332207197 14.189674759383166 0 0 0
75 1 43.1066196950242 15.711801825779762 16.133893100930482 0 0 0
1956 1 41.69157087526425 20.489098233961524 0.9814554896167635 -1 0 1
4114 1 43.88416809789124 21.88023653553044 1.4221396893732905 0 0 1
1495 1 46.94893077875694 11.085320619735942 -0.047397044974540226 -1 0 1
3914 1 11.253308355461053 -0.08617178831514116 5.730146909954808 0 1 1
2763 1 2.3753509384959823 21.533774671241602 1.2505596377707269 0 0 0
1412 1 4.358252937449694 23.516347006277726 0.8690761098675106 1 0 1
3701 1 8.158417831197541 23.07405814602141 2.1333745354047164 0 0 1
2625 1 26.7597077341304 21.460826710078614 -0.1573840376163767 0 0 0
1891 1 48.95925843665368 18.2626946368554 0.16019273213468888 0 0 1
512 1 17.877014768007772 22.340390381273526 0.7077270886827196 0 0 0
1720 1 22.335730379354167 22.260028757382884 1.4938856293538136 0 0 1
188 1 26.769573380333988 22.586359525008284 2.500867223502794 0 0 0
128 1 30.734998914843974 22.586980670906005 2.975440140212691 0 0 0
2426 1 34.85381808948199 24.077509539270913 1.305263200466238 0 0 0
987 1 32.323969014004255 0.22380660164733424 14.736519144414547 0 0 0
2141 1 39.276305981503924 23.61350301357308 1.4563772128627628 0 0 0
1699 1 43.48793197649402 24.061255001622467 2.7757753727334595 -1 0 1
1648 1 49.837015144663255 23.76002195009692 1.1350679792715763 0 0 1
2343 1 22.537458985473247 0.08002288968554472 5.968289766707845 0 1 0
1366 1 3.11022684118387 1.2209210312814895 3.1984080072050607 1 0 0
429 1 3.2048130329818747 0.45356274360072124 5.832011364842117 0 0 0
595 1 7.123510438867011 0.7057050475630449 6.182014323854683 0 0 0
1581 1 7.913375521050542 3.145817563056249 4.95780791517044 0 0 1
346 1 29.187894039470862 9.430909422702369 14.80286564744216 0 0 0
305 1 11.68201729789086 2.1009687748593406 3.955341661917215 0 0 0
4025 1 18.755209859329078 1.2944696333211014 5.101221713065508 0 1 1
3809 1 21.353671560769726 1.7075564790386468 4.295456740691891 0 1 1
89 1 26.364653799641225 0.07326480903735544 2.91581178989936 0 0 0
2613 1 48.22413779751139 20.781960927889422 0.1314069571909593 0 0 0
416 1 32.9507163963249 1.4794944062831967 5.294162498981217 0 0 0
267 1 30.583773104725463 -0.2764162620160362 12.705551196914582 0 0 0
433 1 35.575903781204744 0.4861491704207124 5.773426955574066 0 0 0
2580 1 40.00003952818337 1.5331217394559329 2.838452671492401 -1 1 0
131 1 40.349452266251895 0.32100412628239716 5.176841503152409 0 0 0
16 1 44.70396251447202 -0.22388890721593036 3.936360074127358 0 0 0
1742 1 49.77025106350632 2.4930841614191075 4.151636961286366 -1 0 1
1985 1 0.2037120527802435 4.71924762147048 3.762962441413258 0 0 1
31 1 0.6995542167880568 5.537189883855071 6.490712680665313 0 0 0
1911 1 2.7339392991897733 4.0009393909506406 2.838930202912838 0 0 1
578 1 4.304273629888981 5.900328095231841 4.355460915820934 0 0 0
704 1 5.794785957166736 4.260688186076502 6.1179858342248865 0 0 0
3044 1 10.505814599817118 4.496679344609487 5.270228277183389 0 1 0
417 1 14.081542062668532 3.5403682131059346 3.1688225215819 0 0 0
546 1 14.81282274013913 3.4889159719770237 5.779779596353832 0 0 0
2372 1 17.459104008397208 3.8358241547914655 6.069001972781136 0 1 0
1429 1 18.02734480395048 5.79061357720704 4.311158053699199 0 0 1
2322 1 22.006142119364178 4.5262784628687225 3.8144179069853426 0 1 0
2722 1 26.08592925080961 2.9774038017599858 4.604924704529986 0 1 0
233 1 26.156549998858537 5.5710964405399634 5.4996334959498165 0 0 0
420 1 28.91672388641268 4.824427281980615 3.7688233811801934 0 0 0
1432 1 30.504808409196034 5.207269658859395 6.153090990701676 0 0 1
2423 1 34.279939388806106 5.050869827623569 2.799218717095871 0 1 0
2702 1 32.79992577122908 2.737204004584178 2.8507421680197362 0 1 0
613 1 38.62708254246232 3.5677948145631317 3.975861620266138 0 0 0
1802 1 40.285205205830465 5.702657215187325 4.33372654047162 0 0 1
1689 1 44.49022281387753 5.583793857853873 5.186427085967678 0 0 1
3517 1 47.35255592734493 3.580168937139838 3.8640372088988366 -1 1 1
663 1 46.171573237009675 3.7620679301159097 6.333382790815488 0 0 0
1786 1 6.25525502746902 7.8148053203431616 3.124175254947808 0 0 1
492 1 10.566330485726827 6.382205667442181 3.3244863456292033 0 0 0
3918 1 10.91495673259656 8.727478208653912 4.9679606234375635 0 1 1
45 1 13.610243587126059 7.588760492302356 5.894534197401284 0 0 0
1665 1 15.852747013137137 7.4926529356807325 4.328781412801251 0 0 0
253 1 21.174956841012573 9.281658003885415 5.455712114710138 0 0 0
599 1 25.048394617547096 7.407984691764742 4.07406079817867 0 0 0
1888 1 26.790413354931676 9.243092489332948 3.152787149376778 0 0 1
410 1 32.04977012585049 7.445390478154824 6.17791115924217 0 0 0
3818 1 34.39969617139074 6.131618798981585 5.317449269557874 0 0 1
538 1 36.587392507201784 7.91910131133978 4.493775638383971 0 0 0
2162 1 39.09562944243497 8.337566909241545 3.8954293389758847 0 1 0
62 1 45.583574242017576 7.948785444777926 5.323059007500154 -1 0 0
167 1 48.15299827944553 7.55324916883362 4.780321105585883 -1 0 0
1986 1 2.222487839417274 10.297951206539356 2.9734095246400085 1 0 1
2103 1 2.4288598549093483 9.990025894683544 5.690274529428677 0 0 1
390 1 7.491794469433051 12.26649723178862 3.417259981249533 0 0 0
651 1 7.026398292154426 9.991640917809445 4.5773802665443055 0 0 0
1132 1 11.580085122471628 10.61585046098336 3.2274888661302095 0 0 0
2768 1 17.066271051263975 10.012105844526253 4.155932892045094 0 1 0
2189 1 20.044110438627687 9.907185939151352 3.217685455666169 0 1 0
423 1 21.574341683879904 12.270017800352486 2.620484337113465 0 0 0
1733 1 23.83610148110063 9.473576032609179 5.39368277961006 0 0 1
51 1 28.99694611342845 10.17636842502383 5.331483078147295 0 0 0
339 1 31.20460188640497 9.159511000192602 4.241475188847214 0 0 0
151 1 33.148301607707296 11.22566137925509 3.688858813934183 0 0 0
241 1 40.37069961992244 9.662124990032561 5.73821972783668 0 0 0
627 1 42.211753739829476 11.035926660665595 3.9983287236713494 -1 0 0
456 1 44.53522112697027 9.682271671728374 3.3218548104381482 0 0 0
302 1 50.36160002788798 12.152943143081778 5.479444619406317 -1 0 0
1591 1 49.01817845649292 10.03134082814155 4.153411664800455 -1 0 1
1779 1 1.2693538031398743 12.940749398967993 3.6585889014354462 0 0 1
2110 1 2.8949330083033202 14.831420830320418 2.815053780846443 0 1 0
2453 1 4.641526965665061 13.905862990775791 5.060494894085576 0 0 0
2059 1 6.761274095070754 15.582904849613666 6.047103130449306 0 0 1
544 1 8.840650746091503 13.772906716973848 5.36467011518162 0 0 0
2096 1 11.334161321336296 14.879327872394198 4.8398337262068525 0 0 1
909 1 13.143569636533252 12.823318510136133 4.490622662421588 0 0 0
593 1 18.379271134063465 14.652463498586316 6.255258743431825 0 0 0
66 1 20.49697758390566 13.363253467120291 4.956307153332961 0 0 0
611 1 24.35663263973782 12.00417720001859 4.779758087326669 0 0 0
271 1 29.370743681363177 12.826836972914565 4.987808212212681 0 0 0
419 1 26.724434616730246 13.806973269106207 5.55459937715204 0 0 0
37 1 38.288049334129575 13.320384171893227 4.5237697677375115 0 0 0
562 1 35.79849154377637 13.69890481628924 6.032561981755851 0 0 0
2101 1 43.63534380194728 12.868196595450735 5.5318363336031755 0 0 1
281 1 46.0563426731036 13.842598390614853 4.508791909281129 0 0 0
450 1 48.64061567531777 14.416731532752035 5.746058191574658 0 0 0
637 1 0.4391294456377157 18.140807187603766 3.6878923415000937 1 0 0
3756 1 2.8181819084722854 17.150060916288727 4.384386441335735 0 0 1
154 1 7.229023652431941 17.80681643376468 4.4907267621530265 0 0 0
363 1 11.69219060751771 16.98812509549699 6.4645706270957 0 0 0
625 1 15.897120038905054 18.244323872650845 3.3665922420842214 0 0 0
628 1 17.364149555763753 15.813081163888793 3.7944612179738657 0 0 0
887 1 21.855603120275024 17.16053723315081 3.436237011168262 0 0 0
618 1 22.958307507137707 16.462935863665194 5.6330334749276245 0 0 0
176 1 25.728894359948136 16.39825662811368 5.483374784133622 0 0 0
405 1 31.967696023382224 16.358824249129217 5.221093702534864 0 0 0
348 1 34.57426286376907 15.84945204995671 4.7053515060246465 0 0 0
1462 1 35.96701773191457 18.338571773923825 5.329396158459748 0 0 0
284 1 39.4753021670689 15.74281385726687 5.357152667957226 -1 0 0
463 1 45.39145711870489 16.539813613846487 5.534923686258899 0 0 0
681 1 47.62900753072663 18.36264714675647 6.084036720911275 0 0 0
1993 1 49.37744071727304 16.964032379105642 4.56126100219318 0 0 1
2889 1 0.7909657927580247 20.89774988482966 3.4750094183623323 0 0 0
549 1 2.3926363916642734 21.81682776908798 5.4713397108610335 0 0 0
1600 1 4.8133067611092555 19.15654007560402 4.215816003795656 1 0 1
453 1 4.973129743936866 21.73424626826462 5.3283368860701295 0 0 0
622 1 10.565165071736708 21.25780988552101 5.375583944743694 0 0 0
90 1 9.609466495741751 18.60275289741105 5.953347134084401 0 0 0
155 1 13.101824373162454 18.84339494937592 3.9671403261558114 0 0 0
543 1 17.717869579725896 20.07945234335818 4.649587986905836 0 0 0
1892 1 20.483235096839476 19.686696600077607 3.9770244471333713 0 0 1
2602 1 24.347818462577077 21.08228938864559 2.8247709044866447 0 0 0
3512 1 29.158406423978164 19.546470031513003 5.127792252442982 0 0 1
2118 1 31.403400111655596 18.934389745857096 6.533561936309193 0 0 0
2796 1 32.497978121544584 21.460147336657027 4.846067199603674 0 0 0
91 1 36.40502329200276 20.371883412535503 3.361982091489317 0 0 0
1795 1 40.70208063620813 19.786713233462038 3.3604369537382883 0 0 1
63 1 38.6422791980175 21.97467268170017 3.769653116329028 0 0 0
684 1 42.86128334399025 20.5433777845373 4.980238526896447 -1 0 0
514 1 45.313162837074934 20.407821804420628 3.5087663475144844 0 0 0
2558 1 5.701717225563502 23.255246372955366 3.337324979798032 0 0 0
2188 1 13.802145409412208 21.483996405953516 2.827786042082049 0 0 0
153 1 15.909672017632928 22.23825581784365 4.353473628324879 0 0 0
1131 1 17.277346844845045 24.230322392986437 2.830599266103893 0 0 0
231 1 21.359379838130252 21.7046878865363 5.752210867985989 0 0 0
2290 1 23.944630563578034 22.212464014301354 5.34207492418025 0 0 0
3591 1 28.526360259400757 22.284175996172266 4.5791054072845165 0 0 1
2729 1 28.323658725381925 23.918468220578934 6.675370370617313 0 0 0
2142 1 34.299646576921134 23.50048372922803 5.77644606893613 -1 0 0
122 1 40.05469483297233 23.479000216245364 5.843626197277101 0 0 0
2113 1 42.82883323745062 23.469145097642087 5.234653722212535 0 0 0
498 1 49.1204674792487 24.421835219074392 14.954293462951323 0 0 0
513 1 49.14632330367284 21.558393847950814 2.7228905826801446 -1 0 0
4132 1 47.24949300533495 22.28838796911915 4.542964752347636 -1 0 1
2532 1 4.5884958431676255 1.9716023386647246 7.654674419207129 1 1 0
18 1 6.937489877870692 1.3904091960256084 9.098044562208825 0 0 0
216 1 9.65476022190288 0.7328401294142566 8.052709592849778 0 0 0
458 1 10.887188595690303 2.6506781660231784 9.65005837319142 0 0 0
2431 1 13.562403722753258 0.22119106680227296 9.383273390903515 0 1 0
4157 1 13.948678777879 0.9219620412644196 6.605159512788251 0 1 1
251 1 19.94679842200342 2.524683005001052 8.31828545886923 0 0 0
1667 1 23.162784284928524 1.5678736250488479 8.253318065685477 0 0 1
159 1 25.654925243806602 1.5607307613663992 6.882650009299089 0 0 0
992 1 27.202896721113014 1.5247639338234724 9.151573638690037 0 0 0
3348 1 31.014858333429615 -0.18767749068119244 4.324230385004192 0 1 0
229 1 30.068162702884194 0.8241978015180944 8.642160645035423 0 0 0
2884 1 38.189273366093346 -0.18827669952095694 11.433000740117807 0 1 0
1716 1 0.41069457624838646 9.459990154284633 14.841963898120946 0 0 1
3605 1 39.17701339686575 1.3393841328453389 7.540207052197907 0 1 1
394 1 43.10655732236418 0.28729532172221983 6.093839450830275 0 0 0
164 1 45.06780673522175 1.727536965928552 7.614126984569866 0 0 0
659 1 47.59278871774708 0.39272935241524487 7.6448343123826294 0 0 0
477 1 50.119204547301415 1.059848398278437 6.651591926846831 -1 0 0
2855 1 1.1153199185095137 4.282584814891018 8.732316406032911 0 1 0
2665 1 6.177984196421706 6.158636061008347 8.044035398934017 0 1 0
2756 1 11.171336576670337 4.785422974353707 8.082069018724992 0 1 0
2362 1 13.6972559949238 5.475806017494823 7.3207453086202 0 1 0
612 1 17.606111199190607 4.204287991098096 8.765207915686307 0 0 0
670 1 21.6706431891317 4.677984926530818 6.830007781502092 0 0 0
32 1 23.66599356088554 3.9231395917939516 9.637957943223354 0 0 0
1747 1 31.519735405918205 2.838963073495172 7.123763216968553 0 0 1
501 1 33.748531777439794 3.4180303366875497 8.945713699008902 0 0 0
3838 1 35.37863699358261 4.391629080626873 6.951913370099023 0 1 1
445 1 37.32013372199377 2.6559653014870275 6.14016707713512 0 0 0
3860 1 36.98072966545924 5.637959489530783 9.140649341498682 0 1 1
98 1 40.8383427794062 3.6977529962972353 8.141162426045426 0 0 0
1806 1 41.9651874633549 5.4839878865745915 6.3840624803435615 -1 0 1
713 1 43.04701516623314 2.6393251914672637 9.343591520356126 0 0 0
56 1 49.43834110459049 2.8486770626688975 9.044142655820865 0 0 0
2667 1 48.12914388344875 5.051109062092359 8.173320919647562 -1 1 0
888 1 -0.10458510326094256 8.360276773756294 8.662577558039585 1 0 0
1399 1 1.5659697837700834 6.392400093690128 9.975200849150072 0 0 0
2154 1 2.9145669238383816 7.414563970801925 6.489718777949827 1 1 0
316 1 3.986010681339116 7.33770040242588 8.837623880654249 0 0 0
115 1 7.9687891966437014 8.00760404096115 8.274635771364798 0 0 0
610 1 10.061315686670582 6.904679577206078 9.568823672445406 0 0 0
306 1 16.770444637884587 8.73411449490424 9.223932316671492 0 0 0
466 1 18.54645619980227 6.7898383635716355 8.573633904848794 0 0 0
518 1 19.912084709787536 6.685465157709396 6.142685636956881 0 0 0
3087 1 24.200433710743223 5.835105391642365 7.526812053500402 0 1 0
223 1 23.966381312540236 8.698222769441392 8.081634296742806 0 0 0
152 1 28.196574327745317 6.182558886347834 7.552236204342769 0 0 0
144 1 32.5996852213425 8.73316639997475 8.54946030359002 0 0 0
43 1 37.669419796893195 8.360164425354698 9.060782676753321 0 0 0
1638 1 42.0175525756392 8.077693466052791 7.392299661090239 -1 0 1
2785 1 44.58437016380808 8.985329197151295 7.809315859033164 0 1 0
631 1 49.54105545616608 6.800386508291688 6.921622898588521 0 0 0
404 1 0.504567498809644 10.826313299124541 7.379537374453301 1 0 0
443 1 5.005705943479368 11.195608946797837 6.224628417610751 1 0 0
2409 1 5.1287556503078555 11.819790336091645 9.065800069029285 0 0 0
1242 1 8.849950729697364 9.859250622371677 6.535392010046683 0 0 0
2739 1 9.28205881161301 12.370358932520231 7.649533989504155 0 0 0
639 1 14.286950659091207 9.456415580024196 7.8113781009711065 0 0 0
205 1 17.35819489557628 10.792819417088493 6.850079931982536 0 0 0
494 1 19.825561020270854 11.196923723529702 6.812466731062297 0 0 0
317 1 21.033378833878395 11.902975823967795 9.354114490821301 0 0 0
2709 1 26.251531240943628 9.819312725690205 8.76222931499157 0 0 0
608 1 28.585193332432816 8.905441924862266 7.839303595055528 0 0 0
653 1 30.241746578599344 9.29358471948352 9.901143137076733 0 0 0
337 1 34.27939127883486 10.88856277058232 8.164130402401156 0 0 0
192 1 36.554829416649646 9.48140987991855 6.726852098389312 0 0 0
1152 1 38.47269490813611 11.522565244808469 6.755222313360396 0 0 0
409 1 39.30965802024243 12.110993052926688 9.55334242608326 -1 0 0
331 1 44.63675474470496 11.923771292733921 7.813206795257649 -1 0 0
33 1 1.0571195076729476 13.581278591432309 8.343148402942047 0 0 0
439 1 7.086933042624621 15.975915087853853 8.65006696103452 0 0 0
689 1 7.407127482078092 13.317611201943658 9.497712023242768 0 0 0
127 1 13.873858984318122 12.10329101879384 6.863897871923228 0 0 0
2755 1 11.937144762289428 12.747504939404438 8.59963337597397 0 0 0
149 1 16.364064096742748 13.213984381926911 7.526555949896865 0 0 0
656 1 16.67338199300104 13.588672261821095 10.111904164543903 0 0 0
367 1 22.628760261092662 13.969520060532432 6.084162940519154 0 0 0
521 1 23.324738692093074 13.493521057722202 8.645030191307255 0 0 0
680 1 25.968907432464974 12.589972489323836 7.826374260893177 0 0 0
11 1 27.675001154509015 14.476292541500461 9.085305011551302 0 0 0
511 1 31.374910830898713 14.110079148830552 6.57248875923068 0 0 0
2669 1 30.461721728942823 13.977169583906647 9.238531643131688 0 0 0
525 1 33.513215536128456 12.344527547179895 6.141426548997525 0 0 0
1013 1 36.2919312233331 15.24435720401857 8.244944202378623 0 0 0
374 1 41.261051873218875 14.085648898345493 9.400847087878912 0 0 0
191 1 41.769386884272606 14.663468631544653 6.706031324294871 -1 0 0
1142 1 47.19395694590427 12.156417037427374 8.104662908721226 -1 0 0
354 1 47.98447812526948 14.953317310537365 8.58977536723476 -1 0 0
2279 1 0.31184844359170394 15.999633903949142 6.44752165718679 0 1 0
2462 1 3.080848327536165 15.407610002089694 6.671040996465717 0 0 0
526 1 4.454936751024524 16.806082875476026 8.774832787829569 0 0 0
19 1 9.24024738653596 17.28891863921761 9.712904801177267 0 0 0
210 1 11.479380217547313 15.636978793888762 8.956357949968181 0 0 0
1151 1 14.452244608417221 18.279674586986523 10.065482887398659 0 0 0
272 1 18.798884273822964 17.07797196921236 7.518351754645618 0 0 0
391 1 21.51638750274835 17.542664473392968 7.565843667314006 0 0 0
243 1 27.718275043040734 17.16747018979937 8.974587519145974 0 0 0
2257 1 26.880288387194852 18.735218693632007 6.836035794783424 0 0 0
353 1 30.273979946230362 18.428271198837912 9.060252000441736 0 0 0
2107 1 34.29133741661686 16.945810700710876 9.004799640254618 -1 0 0
54 1 38.12307468123773 17.596751783302263 7.056385973768605 0 0 0
647 1 39.395859959362056 18.0845974242843 9.465967538315496 -1 0 0
2272 1 43.54648033039483 16.696080852219644 7.746768337165676 0 0 0
1208 1 45.12528616711757 15.560352434687722 9.71853047621607 -1 0 0
55 1 48.69994560083101 17.723821566522105 8.49069967254853 -1 0 0
1394 1 1.2128124320553704 20.635895313144506 8.07119895407637 0 0 0
1293 1 6.530174893787484 20.147083214345585 8.643543102286523 0 0 0
3885 1 9.331082027770599 19.69971938103963 8.302992334968883 0 0 1
2250 1 12.148458644694722 20.580060583130958 8.793106297739975 0 0 0
3746 1 13.326765904684914 21.209284022441384 6.086417096979672 0 0 1
2671 1 14.363612038733894 18.474792562229297 6.971987223706369 0 0 0
2541 1 17.109796218852885 19.362588652940843 7.267083531781535 0 0 0
60 1 21.345234208875027 20.191688916511747 7.941454338960336 0 0 0
1783 1 18.92581546176165 20.34506905233362 9.416559402824465 0 0 1
1128 1 23.359356685031692 21.060506859230223 9.658472511538735 0 0 0
876 1 25.099599291401866 20.703789335235367 7.3352260980613195 0 0 0
125 1 34.15782500263127 19.387689257794964 7.057917854202835 0 0 0
10 1 34.21020667714201 21.732170133198554 8.376428491027642 0 0 0
2275 1 41.38696697407959 19.944311735178616 9.12909362936909 0 0 0
2455 1 43.53014448598101 19.45056508330911 7.430351738928236 0 0 0
65 1 45.689253886620236 21.34498554631946 8.260547557143079 0 0 0
4015 1 48.04515968780174 21.025684509080246 6.6955630587913495 0 0 1
218 1 50.18675449291393 21.944237079483425 8.13865932280008 0 0 0
2136 1 1.798511458715252 24.330576626373944 5.044538218686462 0 0 0
1091 1 42.79934032856925 23.897012490709276 14.609995455977113 0 0 0
3341 1 38.290619175774744 20.512417224782418 16.381088925955684 0 0 0
2617 1 6.608516588476001 22.54638772130613 7.465891442791097 0 0 0
697 1 9.270834924598695 23.323687134787587 6.787794194771279 0 0 0
4147 1 10.180047487709336 22.561829913278544 9.321657854657643 0 0 1
79 1 14.021273652144979 23.93378023229173 6.652481955949485 0 0 0
309 1 16.77349815686034 24.03000516086098 6.608479459829359 0 0 0
105 1 19.578503866247154 23.701169967416405 6.649343597801152 0 0 0
102 1 26.55296783229887 22.700537743460416 8.707857831497702 0 0 0
383 1 31.965269785473048 22.715082016256634 9.64256041566101 0 0 0
2390 1 30.765267510262035 23.988375375922917 7.509074419240081 0 0 0
2438 1 40.411981867240826 22.67436651925953 8.598569140656297 0 0 0
217 1 44.94030277075824 23.762679585346227 7.172228691696155 0 0 0
2504 1 -0.29042334716364626 24.28168312324787 7.094295715228237 0 0 0
2296 1 -0.23059137726956974 1.843766796299744 13.122915384171344 0 1 0
664 1 1.8880371243167047 0.9638480698134135 11.193821636533906 0 0 0
2203 1 4.152509708049347 0.23027029748794225 12.721835256290884 0 1 0
3121 1 12.408585115539902 1.709576825539021 11.722966675840366 0 1 0
193 1 16.24904665560812 -0.17053758271511676 10.419509247446564 0 0 0
2639 1 17.587757137280896 2.1902864634344454 11.008633502439261 0 1 0
2717 1 20.31674965712675 2.354615290329531 10.917927541174606 0 1 0
1124 1 10.057981297511954 11.055104766594832 13.972109826496956 0 0 0
100 1 28.754238382243347 2.086984270239474 12.294723458811168 0 0 0
1096 1 37.44204820259934 16.30996612734564 15.975336488523933 0 0 0
247 1 33.98391038325385 0.6286304730612311 9.909797900500987 0 0 0
917 1 35.595847137059444 0.4306861122107266 12.159574759491358 0 0 0
1670 1 16.176084898616082 6.496196048282017 -0.5077766068314375 0 0 1
2641 1 39.45234462428659 1.8458858381970034 11.992661775551147 0 1 0
2456 1 42.14339398036546 0.932539818383187 11.379508010285623 0 1 0
1347 1 44.10773826797717 1.6698951568501519 12.910121615930127 0 0 0
290 1 46.699654070283664 0.8778819321342382 11.963970684455175 0 0 0
2488 1 3.22376075273426 3.0506361185526036 9.82848810855975 1 1 0
632 1 4.3418970949284255 4.539504487134733 11.932154225536639 0 0 0
2784 1 6.516326010258028 3.9607962809129935 10.155466212471314 0 1 0
2483 1 8.921300210622265 3.5495997220431255 11.419273613203545 0 1 0
1869 1 9.38609506547625 6.128416305247068 12.130315224904962 0 0 1
1061 1 13.380364011932949 3.7686732904738296 13.216664922704414 1 0 0
2363 1 15.973515382954332 4.213766450702889 12.001689459915827 0 1 0
493 1 21.74617150923244 5.187164172943059 11.6479417474723 0 0 0
2898 1 26.135951496784724 3.476156311460497 10.94904126521355 0 1 0