LAMMPS data file via write_data, version 29 Oct 2020, timestep = 800000

4175 atoms
1 atom types

-0.8533136560900587 50.85331365609185 xlo xhi
-0.8533136560900587 50.85331365609185 ylo yhi
-0.8533136560900587 50.85331365609185 zlo zhi

Masses

1 18.015

Atoms # atomic

694 1 30.124726412087917 24.213955935130105 1.3645588662103387 0 0 0
107 1 7.301827274407373 1.9278132116167117 -0.4723073886082965 0 0 0
1429 1 13.564203262322616 0.35006717120522324 1.2394459807714244 0 0 1
2437 1 17.85678002569901 0.8485662252485455 2.6835952995307273 0 1 0
184 1 17.690726759049713 2.0958252943022 0.34170649955318355 0 0 0
708 1 6.805502795679274 9.490491681928331 -0.7453071789450587 0 0 0
2284 1 31.794055985301092 24.814663131995168 10.339277436955534 0 0 0
1534 1 26.706208680772143 1.5475747846624608 -0.08793034172816871 0 0 1
2365 1 29.663925028438165 1.3306165322466499 -0.7493069376119152 0 1 0
434 1 30.93725506036453 1.744802993424106 1.5489592589550654 0 0 0
4003 1 33.89955627935235 2.2463720253693777 1.7114833824679279 0 1 1
1777 1 35.15724065620497 0.9911593520505371 -0.30806447639371204 0 0 1
1854 1 39.62903422907918 1.277201243655313 0.4495851211660875 0 0 1
552 1 45.49053724805467 0.9032045492352037 1.697976158326651 0 0 0
1840 1 50.21599200260804 1.1321896826689561 0.8080648643755721 0 0 1
871 1 42.0808664179079 23.870669326663197 13.500704384187593 0 0 0
1591 1 2.0669689388098185 2.750371322717359 0.7851170625144657 0 0 1
273 1 34.708483698693286 15.93205464493973 -0.7994086861237262 0 0 0
502 1 2.6955749776678943 5.169087853587836 1.7686484687328994 0 0 0
289 1 6.7342146741816205 3.304889988687184 1.7182585389058147 0 0 0
610 1 11.017640371753371 4.20812713200572 0.9934114013810678 0 0 0
595 1 14.958736212652802 10.71317706945971 -0.32868774796840516 0 0 0
1505 1 13.312555026678902 3.126567854000433 2.059178883849494 0 0 1
4097 1 15.617083013600034 4.052158792279065 0.991084885574 0 1 1
555 1 31.16659581422796 17.48928874435157 -0.4556880199450294 0 0 0
2687 1 22.02628861495752 1.832384367537026 0.36260382592919993 0 1 0
3650 1 25.73863402482758 3.082892345370757 2.1823643541771576 0 1 1
662 1 28.79369783861997 5.35556777317814 2.071166626086476 0 0 0
67 1 34.05669998148155 4.857157867609182 1.341178189414837 0 0 0
185 1 36.66079063999436 4.555075384175892 0.8161947937637235 0 0 0
2130 1 5.87334816440101 -0.60614793180927 2.9792274041631357 1 1 0
2454 1 43.08436830428045 3.0351525914467214 1.8200467035014003 0 1 0
456 1 47.863924619235334 2.528966664439144 1.6526625810998605 0 0 0
623 1 3.440003052755566 20.78141965481579 -0.4522551616850255 0 0 0
2329 1 26.570987584732034 -0.565978387145883 4.285480877678319 0 1 0
1851 1 5.289282552302399 5.720945864105404 1.5754489794734892 1 0 1
336 1 11.753856128024955 6.7263798992931 0.07444114814802028 0 0 0
1597 1 14.268850771903745 8.149241521195199 0.46777881511269914 0 0 1
392 1 5.4216663851041815 17.085506848830516 16.071354225810094 0 0 0
29 1 37.617318170597365 6.815865913626973 -0.621670045008224 0 0 0
1961 1 20.61839328880953 5.9400460097134475 0.0632635759140785 0 0 1
594 1 46.412217696876155 4.524794035755066 -0.6513019909057268 0 0 0
183 1 26.050910929563166 5.72883204372234 1.7809641791871513 0 0 0
1683 1 48.10405404651785 23.31968221134035 -0.6300853580924096 -1 0 1
2069 1 30.231385188680527 6.964638788250758 0.3386414960789488 0 0 1
1208 1 1.7687915666382419 -0.8197186824287974 15.937761876775241 0 0 0
489 1 40.30343465208197 7.405642890721282 0.9361106557033461 0 0 0
425 1 42.44576100943592 5.579161133520616 0.34837901829808193 0 0 0
589 1 44.978829669771066 6.602612071658718 0.009802104241646847 0 0 0
579 1 49.26117335390936 4.828040261292457 0.20299436602120302 0 0 0
190 1 -0.16703451371386924 3.1504785357700342 -0.5807685140942118 1 0 0
80 1 1.8831560039235073 9.523010118457798 2.308556317930462 0 0 0
254 1 4.246613884596705 10.090410360965349 0.9318284507177119 0 0 0
1405 1 19.853826413812886 3.248307699236901 -0.5278747722563542 0 0 1
1579 1 8.867961121795961 10.365201437881073 1.047425764753276 0 0 1
212 1 15.225781584225189 24.952553051625898 14.24415075565961 0 0 0
459 1 18.633751617668757 9.672707888545188 0.7463987192271595 0 0 0
370 1 17.424886455750354 11.746102488414747 -0.5802677422315372 0 0 0
1972 1 20.99561284624229 10.526569953378358 1.9910271852113914 0 0 1
2041 1 24.69103846447785 8.890665762239363 0.0160649451517747 0 0 1
1501 1 25.978516594719384 11.031393610656083 1.0033677692333713 0 0 1
676 1 28.604947153760552 10.852718794822568 0.28485948100336267 0 0 0
1 1 30.37047404590594 11.555351159352806 2.403072217197975 0 0 0
436 1 31.495253175362507 9.237406371668524 1.4289065025501877 0 0 0
144 1 33.88287088969532 10.15379933622914 0.06719860688433754 0 0 0
411 1 36.0971433417721 10.046918699400697 1.9502175603799379 0 0 0
699 1 37.44039488638887 2.4414028132188292 -0.4095717324433581 0 0 0
562 1 40.31960114554413 10.13008256066614 1.7331465198404383 0 0 0
1552 1 44.08767824484765 11.278670564095453 -0.268765113133969 0 0 1
511 1 42.90377677792254 11.008772170520524 2.0060041203441266 0 0 0
1764 1 50.34969767802837 7.599524213429909 0.9543774114091126 0 0 1
443 1 0.7465091310497138 13.421894031128097 0.06431391274390297 1 0 0
2002 1 3.5905957456653708 12.92098208948191 0.23493258590160893 0 0 1
213 1 4.341429336229129 14.337536435091387 2.514310027864506 0 0 0
2097 1 8.47219029371395 14.76878817624418 0.7278673347406446 0 0 1
532 1 10.366986646735604 12.63172538781561 0.03166285780853062 0 0 0
617 1 13.273392732716015 12.756096334597471 0.46779262545756306 0 0 0
1916 1 17.43714318571136 13.967235959353514 0.8630490425637036 0 0 1
1631 1 19.99252084067886 14.761653904400724 0.5141352940558037 0 0 1
570 1 21.808096927104224 12.649305033397349 0.3531564690891633 0 0 0
2021 1 24.2773989764643 13.414785454761303 0.7545095959284216 0 0 1
1602 1 28.660090088155354 15.07365393315236 0.5728463929921834 0 0 1
2814 1 44.99704941910974 -0.8150645741661506 3.858195134323733 0 1 0
42 1 32.44637161158264 13.358399063919228 2.1149756299185354 0 0 0
1726 1 36.55316189322208 13.88652645082448 -0.0720359798450888 0 0 1
192 1 36.61659569955248 12.918609203467662 2.6847929484844757 0 0 0
536 1 38.8849063552348 15.769946377249923 0.4568297738655762 0 0 0
490 1 43.18161690852347 13.778156873863773 2.491068346026931 0 0 0
47 1 46.06605146691829 13.074255356056453 0.19741039557503015 0 0 0
575 1 49.63942560208038 10.274012484512415 1.5257788125536664 0 0 0
458 1 0.4602330087864748 15.951843475246207 0.8513015154384662 0 0 0
628 1 3.2847019622064044 16.656883905333817 1.8670128541995576 0 0 0
2044 1 9.711361724296793 17.000390658210243 1.3843054710023646 0 0 1
1794 1 13.453444608604931 15.364163216628032 -0.28429529891602834 0 0 1
1984 1 12.362122431166139 17.217348240107686 1.6847661811204415 0 0 1
1769 1 16.02658589789731 16.312135695862555 -0.061632601690443156 0 0 1
709 1 16.54257083033286 18.009473986913893 2.048299311155366 0 0 0
660 1 27.90937347676751 17.693786189362445 0.32266412556049984 0 0 0
417 1 31.164179160826855 15.892448549170776 1.849023758058744 0 0 0
274 1 31.054573739475675 12.611289350949109 16.32924246100483 0 0 0
713 1 40.90396325145012 5.856921436613076 15.744287192991095 0 0 0
587 1 33.94019126773679 17.27583811824112 1.7538169331091398 0 0 0
54 1 41.899167366516316 15.779868463125574 0.4765115563080864 0 0 0
1820 1 43.39055853289006 18.046968704032146 0.8169834770206839 0 0 1
108 1 46.068108140657316 17.218455452466536 0.9284281253901647 0 0 0
1905 1 18.256427189995016 7.582763063139863 -0.778426364899344 0 0 1
37 1 49.9068141621857 16.669224044175184 1.7693080118667956 0 0 0
827 1 49.23117451484818 19.54541206274244 0.9334632482903702 -1 0 0
46 1 -0.4705931463066654 20.956567699999724 0.7586815818205594 1 0 0
2795 1 33.79477349983072 24.68529260354434 6.905287161808707 0 0 0
1869 1 4.869768101257979 18.746839773715458 0.7255087922572876 0 0 1
333 1 10.169899851263768 20.810039521326413 1.2479610130513676 0 0 0
2411 1 12.310438764584948 19.925281534577607 2.68854413377542 0 0 0
1902 1 15.10588540311225 20.342806430115335 2.0287407613038897 0 0 1
1544 1 15.769836847720843 20.94715184494024 -0.5389316364154377 0 0 1
2105 1 19.25348213247155 18.980373594067725 2.480365210452715 0 0 1
1808 1 20.11522865745779 20.317660327699162 0.07145190910607224 0 0 1
105 1 24.376967241424946 19.403692003592372 1.9128323009586699 0 0 0
188 1 26.896677278013534 18.709821275964945 2.7991952425094166 0 0 0
691 1 32.65688753513531 19.85124441085931 1.156969191858857 0 0 0
460 1 35.51248973052098 20.246374441787474 1.7775171851310843 0 0 0
1425 1 36.7152404332065 23.8710866385951 -0.6015387551914135 0 0 1
262 1 39.95234358011702 20.275762179278022 2.182076466667125 0 0 0
463 1 33.67014316683001 12.859329990579102 -0.0977754882134727 0 0 0
398 1 46.88856828947424 20.907275971779384 0.49660230684667006 -1 0 0
2034 1 3.6025961757840266 23.15716445616086 0.6972148949892039 0 0 1
1880 1 6.112773054508161 23.76888841364283 0.6333503020823474 1 0 1
2066 1 7.4315610614970335 22.075960697956067 2.231973041564884 0 0 1
387 1 14.91829553005684 8.818099154697308 16.21705953274974 0 0 0
2538 1 19.78559551215811 24.366087572968496 1.7217805948762641 0 0 0
596 1 21.57298117507357 22.465145862685773 0.813358000028638 0 0 0
2716 1 22.91597643113564 -0.5958194980213515 -0.6101605720060009 0 1 0
6 1 27.7685935247222 22.613510931919055 1.0073809724197167 0 0 0
299 1 39.363661794923054 20.151424999741295 -0.7283118421758958 0 0 0
7 1 43.31247239031815 23.908329303926138 1.3799613853930657 0 0 0
178 1 16.93803919960509 6.7027122084443365 16.04780292839996 0 0 0
1893 1 50.295304475065706 23.576614460760354 1.149006600501595 0 0 1
123 1 1.6625659867473397 0.9517195160962153 2.877968445718981 1 0 0
2053 1 3.1393507641748166 2.3124294350468073 5.00283024740458 0 0 1
298 1 19.27097667433764 24.866545942060817 5.74281723885007 0 0 0
267 1 5.485823028693607 1.8407470781068982 3.7364931267747012 1 0 0
683 1 9.833403654353036 2.373660457940649 4.884822581923217 0 0 0
1193 1 39.473970957944665 23.472920290080786 13.788788026989694 0 0 0
606 1 15.869343870887384 1.189767232991552 4.562009359700202 0 0 0
360 1 42.939748589511844 9.885601151144998 15.770483581240107 0 0 0
690 1 21.79546347540842 1.2789213516017215 4.784679242913648 0 0 0
276 1 17.947186286912412 24.968613223014906 14.968727388122476 0 0 0
382 1 27.121753573562124 2.039025537629411 4.39124500502477 0 0 0
604 1 35.51476768482954 1.8081843796798736 4.040394646680825 0 0 0
2182 1 33.07192896671502 2.0250113007197985 5.653150339346467 0 1 0
582 1 41.04166569230393 1.0913599330285946 5.128145653518504 0 0 0
1295 1 28.32647304238609 23.2153763615264 16.215714093696334 0 0 0
227 1 50.76378969298431 -0.28465825627332497 3.077556739511176 -1 0 0
131 1 47.56201321278232 1.387877170247469 5.894111372621292 0 0 0
147 1 50.13609609724074 0.7343033413930622 5.693774506415519 0 0 0
134 1 2.185654781737346 4.863673351979391 4.320696845591039 0 0 0
48 1 9.241173639017342 3.9569018475093394 2.939116635133467 0 0 0
116 1 14.057913320994995 3.268351720752098 4.6469749345412135 0 0 0
484 1 15.07866729595141 5.871752009843415 5.519117194930952 0 0 0
179 1 19.95975566356232 3.1633546138599113 5.772829095304177 0 0 0
2578 1 23.03571548752535 3.0422022032135185 2.77999463186095 0 1 0
2781 1 29.51723477583254 3.1028161490725363 3.4003085688331094 0 1 0
75 1 31.554890755833192 4.400234782697208 4.924917410516522 0 0 0
2752 1 33.81627239775666 5.893266285328671 3.759702227819637 0 1 0
21 1 37.203542121607526 3.844838219695358 5.079813968256882 0 0 0
69 1 38.52527180484125 4.413738885122974 2.9106703087789016 0 0 0
2306 1 40.64753451232133 2.5011586242256625 2.6751601573063355 0 1 0
323 1 44.7264635341268 4.301259667629481 3.8289784206229207 -1 0 0
281 1 43.606327780105914 4.361703399757384 6.322716270672703 0 0 0
1517 1 47.11397081247082 3.355558471841526 4.0861939636410485 -1 0 1
226 1 48.89235200257419 4.979909795977745 5.49625079365253 0 0 0
1976 1 1.2856315067390671 7.338409765007979 0.6891051532106467 0 0 1
477 1 4.188068960746908 6.488829344745716 5.3759143726649645 0 0 0
211 1 6.160665290059958 7.286306840131644 3.405882707647147 0 0 0
22 1 10.590182875686567 8.218149381274534 2.010790906829252 0 0 0
626 1 8.809981739118442 6.679615080033756 3.643970716599709 0 0 0
109 1 16.840408442674985 5.242007386158826 3.045109217638434 0 0 0
670 1 15.32614353301378 7.723372083424172 3.1852563046255273 0 0 0
1667 1 19.42497018484148 5.287976358557906 4.19622749858656 0 0 1
265 1 22.97100317050577 8.439048057939944 2.228373885288264 0 0 0
682 1 21.895112288857742 5.7104084483622595 2.7787357365591085 0 0 0
3760 1 24.426703365124173 5.804287272807273 4.428310201897409 0 1 1
705 1 27.91115649924715 8.971725565062423 4.5865967150678415 0 0 0
269 1 30.29658321010309 6.920088831658818 4.241924887661916 0 0 0
438 1 32.565072940776794 8.456730945594183 3.645309279628507 0 0 0
96 1 36.1169194340324 6.476897145988457 5.564356037470129 0 0 0
420 1 38.46152684011136 8.120556511958988 5.140370513388393 0 0 0
71 1 40.391481623241596 6.55348435107871 3.9243783592641632 0 0 0
450 1 42.22935930443078 6.623593934466199 5.915289574501022 0 0 0
140 1 44.123892455046914 8.68853122211836 6.023661077568392 0 0 0
388 1 45.18819800534677 6.841827832108369 2.7157828648784372 0 0 0
8 1 48.03225048745524 5.922802220602008 2.6259636562056796 0 0 0
401 1 50.184591116418204 7.234485607328944 4.0144374209711176 0 0 0
468 1 0.10645872712139626 11.65623614904774 2.0508292563875403 0 0 0
2763 1 4.0960739648388556 11.025832639991501 5.4411414236655755 0 1 0
1536 1 5.725991627266706 10.309821232125815 3.4247182311038094 0 0 1
1969 1 7.943011708567221 11.643587483916471 3.394519905762289 0 0 1
20 1 9.891832093749144 11.75240039301205 5.223349070644437 1 0 0
32 1 12.46134920012558 8.778929968299334 3.9457124545666327 0 0 0
251 1 12.495720773887035 11.28078915235991 4.7395939945172785 0 0 0
493 1 17.275633293156137 9.779102499548834 3.192880180157907 0 0 0
600 1 24.28732011439532 8.664682866767999 4.701060438049105 0 0 0
423 1 25.8471226761355 10.90800903633487 3.631369288429566 0 0 0
253 1 30.794047900196297 10.654259470358634 5.153930950676565 0 0 0
337 1 35.14777531992957 9.049834141214145 4.237563999574676 0 0 0
545 1 38.6293561310013 10.733773525134078 3.895510303549271 0 0 0
671 1 44.87695968911576 9.480446564142815 3.405566577557769 0 0 0
325 1 47.28446902605557 10.690865355607302 3.482311430573687 -1 0 0
505 1 0.44521880221774124 13.429453070733025 4.152425367770062 1 0 0
275 1 3.1680995817509787 13.563777868384852 4.815743259937285 1 0 0
1577 1 7.1058439776090125 14.211667150369369 2.9884161631843473 0 0 1
1607 1 13.95429704908927 13.19194935870009 3.162884372763843 0 0 1
530 1 16.41637518506106 12.554198127480198 3.1878653882637824 0 0 0
365 1 17.248170435868126 14.416447713073175 5.024973530813586 0 0 0
1877 1 20.148878903770107 14.92460188749219 4.578242889924252 0 0 1
516 1 21.34510760403311 12.382205594881038 4.017258693277346 0 0 0
153 1 24.10562925041795 12.919134404349233 4.376074270290616 0 0 0
2068 1 28.354955718427107 12.231946861962129 4.807642439386232 0 0 1
230 1 27.75369483486999 14.587208569721392 3.4080259343122936 0 0 0
568 1 34.12646387528306 13.572891431662919 3.9559775459856583 0 0 0
294 1 37.831065748205006 14.66949101055924 4.523867548529358 0 0 0
374 1 39.691089219556815 12.858430274456918 5.463655129328535 0 0 0
361 1 42.166070392094866 14.15598970560918 5.005487065466691 0 0 0
292 1 45.88112616896255 14.637822048320558 2.721790984777692 0 0 0
91 1 46.73308747576615 13.012135468269763 4.980643337377963 0 0 0
496 1 50.7635597883878 15.730628631965846 4.335056942188388 -1 0 0
666 1 0.4287421785936787 17.760689554454306 5.700238879199629 1 0 0
633 1 7.993519906502593 16.1791608982087 4.795723014662866 0 0 0
492 1 8.62639344932624 18.327960840278866 3.424186453541245 0 0 0
431 1 13.483765833925958 15.835894427050974 3.88142253329476 0 0 0
687 1 16.12510226934087 16.898866968726345 4.577902205776855 0 0 0
1485 1 20.67630562823718 16.478586984600334 2.493783506351857 0 0 1
2042 1 23.23572236690307 17.009527616879584 3.391082417512518 0 0 1
363 1 24.970625739760585 14.865147957094301 2.751950791397067 0 0 0
85 1 28.12782940684056 17.01243329381542 4.702995759400557 0 0 0
177 1 30.794296125992023 17.429407744641434 4.123305161523903 0 0 0
296 1 34.615391181865895 16.328464486754836 4.295735618468479 0 0 0
10 1 38.83593813352931 16.646803523276972 3.0244764760877674 0 0 0
675 1 41.21516216517132 16.86398168540152 4.320427062037905 0 0 0
199 1 46.35638666954048 16.77491089213462 4.926090389462516 0 0 0
471 1 48.432438798368025 15.271839569844172 5.558552194868427 0 0 0
642 1 1.350194073402922 21.015387561470934 3.156684761329722 0 0 0
263 1 2.2680266233971293 18.48624814382268 3.789009987067674 0 0 0
170 1 4.828139294644992 19.052376775976132 5.239853746458995 0 0 0
136 1 6.188121341810423 19.4603645372308 2.88102198299792 0 0 0
302 1 10.61515415224566 19.884665535797804 4.911692108380246 0 0 0
1783 1 17.48970208562128 19.155526738305923 5.958508058838823 0 0 1
28 1 19.3580117955756 20.612832760552834 4.635842088109018 0 0 0
90 1 22.117033451822728 20.635490637414684 5.246918168966245 0 0 0
653 1 28.375506970487734 20.91435492377256 3.1241479864383024 0 0 0
560 1 31.028178308214546 19.99098793909237 3.2579753733667323 0 0 0
383 1 37.82328948792285 19.23550092625943 3.173063599898356 0 0 0
673 1 37.61915492129992 20.51895230617513 5.62306444934393 0 0 0
287 1 42.37998470577817 19.03257053884183 3.1188838653653153 0 0 0
277 1 43.92400063767635 20.645531732589205 4.333915638627522 0 0 0
63 1 46.42334539542024 20.923515540435414 3.1349511012996003 0 0 0
175 1 47.972760209499306 18.632108812108555 3.715465202757974 0 0 0
637 1 49.84611221183685 19.26562871074716 5.4399439265742835 0 0 0
2311 1 -0.2998777559901835 21.62251599601484 5.149516549267017 0 0 0
81 1 3.0379263711965847 23.300714772343493 3.346285615266324 0 0 0
33 1 5.549700377815145 23.114816656985518 4.1254665888942625 0 0 0
672 1 5.2025477344643605 21.577798349958105 6.350059496892243 0 0 0
668 1 9.11958236306452 23.380047348384227 3.780938494940382 0 0 0
549 1 13.786112701304518 24.39697593118021 3.593854749794338 0 0 0
697 1 15.687513697095856 22.16050293400355 4.00156703553524 0 0 0
2500 1 18.37372015611896 23.226383212989504 3.8676085736436594 0 0 0
543 1 27.63328148999588 23.662588982572778 13.716158256076886 0 0 0
1632 1 23.355296561983153 21.705040190704057 2.9068301009762267 0 0 1
2485 1 25.240582110190793 23.49316118899207 3.8953635279699954 0 0 0
308 1 32.034487714204246 -0.22380644110710957 16.08700716094558 0 0 0
678 1 27.64884882675542 22.71131197545944 5.0986371296805375 0 0 0
2307 1 32.110305481120804 22.657327784038124 2.9641414532170836 0 0 0
480 1 31.458025555430424 23.459040329083795 5.874114595261303 0 0 0
2461 1 34.84365346685755 22.196608880456658 3.6210963766999447 0 0 0
2567 1 35.18317372264457 22.080577082105105 6.567925816545557 0 0 0
191 1 40.18852506595271 22.640708241251403 3.559361564937607 -1 0 0
2446 1 42.62270750361188 22.903595015029648 3.782870469634684 0 0 0
357 1 47.29778613604347 23.12792526555729 4.378863443997683 0 0 0
602 1 50.02334646061705 23.421313073640345 3.717055960190815 -1 0 0
222 1 -0.10666863515788771 2.620217012976462 7.258112244807863 1 0 0
2447 1 2.4256605344210405 1.203770403711792 7.572618393520907 0 1 0
486 1 7.2679323104598765 1.9940149514469674 5.95503507013974 0 0 0
2409 1 -0.3173312769178528 24.845400544792078 15.084159984714283 0 0 0
2496 1 12.630079772868996 0.39932290951962246 9.081394011830348 0 1 0
2162 1 17.660340363890686 1.984147539983725 6.668227336213817 0 1 0
2251 1 18.20595383810789 -0.10576280012337047 8.071496029035886 0 1 0
106 1 22.64437985873116 -0.10875345937057523 6.739341972944426 0 0 0
2300 1 22.954077739928934 1.761762638256172 8.520734088971126 0 1 0
247 1 29.378046920544442 1.004532948214628 9.641939666163884 0 0 0
2363 1 34.1584300151595 1.8434524895062343 8.432006955540533 0 1 0
258 1 38.04707828087766 0.2688673060174971 7.538097213598091 0 0 0
150 1 43.29157301637772 1.5654563069444611 7.256496122053752 -1 0 0
614 1 46.353840706160426 1.9011894025598206 8.455688569192324 0 0 0
619 1 0.04767217209090879 5.087917167450063 6.089424902982512 0 0 0
526 1 4.205705974887641 3.2242885073519805 8.759394972961708 0 0 0
578 1 6.0235621178184795 4.322360297499879 7.011002042234501 0 0 0
540 1 10.185638834208417 4.030897676097969 8.24486084283187 0 0 0
260 1 12.133870748621048 2.4044583862995954 6.503181062300972 0 0 0
1982 1 13.571247826853098 3.16616633948148 9.140300755251456 0 0 1
306 1 16.433310975470494 3.6037589207323713 8.686608276469741 0 0 0
385 1 21.064373573551816 3.7161345965020907 8.262703097249123 0 0 0
452 1 23.248410038918315 5.48766956333396 8.702583156120951 0 0 0
576 1 25.43239597842089 5.331338106097459 6.836358652622593 0 0 0
82 1 26.892741147083193 2.9434006732340983 7.154463253879372 0 0 0
2138 1 29.039889015443165 3.6262574542034622 8.971023819894988 0 1 0
612 1 31.064236496466187 4.624425582588226 7.712547353485679 0 0 0
162 1 33.508730633327346 4.482757586799695 8.963932096424514 0 0 0
9 1 39.04184030077733 2.5697749623333035 6.599456576792801 0 0 0
482 1 40.32652484230165 4.211742661275079 8.787015424806158 0 0 0
353 1 45.276759346573826 4.460410306338279 8.328830578434728 0 0 0
494 1 47.51413369843154 5.8885608171867005 7.579957921073447 -1 0 0
290 1 0.5182835072514866 6.221219131334566 8.661485912872463 1 0 0
446 1 4.25875302019207 6.838786139814343 8.347745125510444 0 0 0
541 1 9.425392394484254 7.4630587960913175 6.309691079709412 0 0 0
686 1 8.045821462412098 5.8108909044994395 7.904909436906426 0 0 0
89 1 12.286898273369298 6.861969550800565 6.0601181920053495 0 0 0
548 1 12.97409534139669 7.971040314639977 8.53526291025282 0 0 0
591 1 17.068024436415026 6.0883048548860055 7.709350873673696 0 0 0
495 1 19.369729361395994 7.123929695758451 6.508565618996757 0 0 0
354 1 21.43437187412605 7.567991005259255 8.284953192133479 0 0 0
225 1 27.07685487688035 7.510809902720348 6.943692056980532 0 0 0
474 1 29.870051726555147 6.92660250091115 6.941072723739317 0 0 0
94 1 35.16242511328198 6.652911232334208 8.156259671846094 0 0 0
469 1 36.93081081966028 7.964644261639213 9.743494529706727 0 0 0
472 1 38.994772097454565 8.392980822458924 8.019733009814692 0 0 0
35 1 41.122391301946934 6.8180357759627785 8.41443224008247 0 0 0
665 1 46.7087224895112 8.206459137084856 6.963593846061208 0 0 0
664 1 1.069191131044371 8.889394914883953 7.500771536129692 0 0 0
280 1 2.561371018978495 8.87963663178597 4.850795813996501 0 0 0
154 1 7.254639619706468 10.072291003484716 9.26954208267676 0 0 0
219 1 9.318567290732979 10.290121304037934 7.362105488496294 0 0 0
447 1 11.759845554945551 10.396453587407887 8.567629587176741 0 0 0
31 1 13.883462852255828 11.455236645940019 7.1981020954862736 0 0 0
554 1 16.726957833459533 10.487480628427956 7.722328765012291 0 0 0
465 1 18.619538170844297 9.546448119537398 5.839522915347562 0 0 0
115 1 20.46446877845338 10.975170118798745 6.266243701888969 0 0 0
479 1 22.65929706279044 9.309109155989734 6.658940888492048 0 0 0
625 1 24.18836148490432 10.421092689067756 8.873384243576849 0 0 0
649 1 26.424820485792132 8.946605496656703 8.976079523230696 0 0 0
351 1 28.42468776110137 10.83706362242569 9.144388097023189 0 0 0
271 1 30.600905761426134 9.464016761096877 7.626427330621141 0 0 0
605 1 33.21823172941068 8.60613859213517 8.448327213298017 0 0 0
128 1 34.799093008481364 10.569339584301574 6.782614746406198 0 0 0
300 1 36.33850652446215 12.107359106715212 8.68133051084236 0 0 0
255 1 40.48789455424094 10.61941286600047 8.651523616243418 0 0 0
652 1 42.9177924528397 10.684007583190192 7.3082436221885185 0 0 0
2782 1 48.74423990058662 9.28660576402268 5.167507164737076 -1 1 0
256 1 50.28208035806193 10.462358832963043 7.181549942752014 0 0 0
187 1 0.5593406069527032 12.447637842122766 6.850066005737673 1 0 0
381 1 -0.18522143321737938 14.66422155134898 8.469169935288049 1 0 0
409 1 4.401002341592758 13.482801450603997 9.660526489500985 0 0 0
544 1 4.926145448094983 11.161356471224813 8.356975956778143 0 0 0
193 1 9.749306920934128 14.440029374492461 6.436589918289506 0 0 0
36 1 13.86699564750507 14.034959417653345 7.800181964617851 0 0 0
376 1 16.67347760858476 14.749314142417381 7.9437533552624835 0 0 0
1115 1 18.076766107894088 12.491671830062367 9.076929417570463 0 0 0
239 1 20.891602236075418 12.288413714261912 8.837181920578036 0 0 0
454 1 24.90941203783592 12.758875820154879 7.216291211679257 0 0 0
483 1 27.751158333099344 12.767563831291643 7.386236046270721 0 0 0
557 1 29.045774390957344 15.03878870696688 8.602481255676683 0 0 0
645 1 31.850177894327423 14.521612161947868 7.6858292647849815 0 0 0
419 1 32.96105876725248 12.411456642843046 6.204172958779013 0 0 0
119 1 35.651391184741975 14.74053007203525 8.744612448160014 0 0 0
348 1 38.958221536793666 12.707511033833834 7.92624128110816 0 0 0
583 1 44.112687037689746 13.09539949413109 6.4316686169635435 0 0 0
359 1 48.057904824145716 13.495782632907737 10.091645093283942 0 0 0
2164 1 1.659188576016696 16.72421317976607 7.879600159348794 1 0 0
616 1 3.87530712682664 15.089284894171193 7.254675025370727 0 0 0
189 1 6.0655623663617 16.798321080258223 6.630216644177711 0 0 0
2443 1 9.956891364754016 17.649345620639956 8.763173088655762 0 1 0
607 1 12.298077142349332 15.658075534258284 6.407983669237938 0 0 0
501 1 11.650386521171683 18.506504769188698 6.997362079751748 0 0 0
15 1 19.189811826336086 18.19404772097373 7.83984425954989 0 0 0
317 1 22.8941286336455 17.930142668373506 5.809983145579673 0 0 0
689 1 20.91429639741764 16.434368906096793 6.661493588357437 0 0 0
524 1 24.56961647781722 14.907890365430315 8.827422109652284 0 0 0
518 1 25.087743727145607 17.314602853555805 7.528353845746359 0 0 0
2602 1 27.817495205161624 17.19901361540576 7.528676550237384 0 0 0
329 1 32.630507747510464 16.7736157594208 6.184899426510958 0 0 0
101 1 36.54254391141005 16.024397784118154 6.660932023261625 0 0 0
346 1 37.496956057613865 18.39791702598101 7.398733451014218 0 0 0
488 1 40.278461235701585 17.629782294419794 6.969474648961632 0 0 0
399 1 41.797238639258936 16.514042206805502 9.063968975218552 0 0 0
176 1 44.14412171797798 15.37258799548221 8.269168829140645 0 0 0
559 1 45.34570785348499 17.538239549347207 7.2055988136148805 0 0 0
295 1 47.57405501207308 17.900019092297587 8.769113253614343 0 0 0
17 1 48.847326443372694 15.54240709526566 8.373852622513915 -1 0 0
218 1 -0.3117536565451574 20.558483653172903 9.141392383215374 1 0 0
127 1 7.427961086869235 18.37943468592768 8.48643505026094 0 0 0
205 1 7.656371434255043 21.107631288361887 7.6384671304543765 0 0 0
429 1 13.650007344553382 20.128970546712846 7.9830472791960325 0 0 0
2427 1 15.648474043395495 21.04996090419761 6.349200264627715 0 0 0
533 1 21.812671956308414 21.834651556993887 7.905853098957792 0 0 0
467 1 28.605294276910897 19.642682505141178 8.626635843605635 0 0 0
2555 1 30.99709570233148 21.04955960790297 7.606225310404561 0 0 0
529 1 32.52812576860195 18.622812211036262 8.20747227853559 0 0 0
339 1 34.977299650427526 19.93638069759325 8.357016929501738 0 0 0
151 1 40.92973958627647 20.268753569485487 7.432779971932709 0 0 0
405 1 43.755653462624295 20.10874759038302 6.9163835458701834 0 0 0
500 1 48.972466362918695 20.079547208091167 7.927394966857976 0 0 0
309 1 0.5700219870129786 22.753313171138412 7.7186985019998975 0 0 0
2177 1 3.3767595114141793 23.141188675284077 8.026975252991189 0 0 0
2470 1 9.68190936612585 22.19492384559834 6.070522038850468 0 0 0
528 1 11.422383913533334 23.613600677887757 7.634616435382583 0 0 0
117 1 17.193959701659377 22.839801306094625 8.156376439205303 0 0 0
49 1 19.822316268062494 23.737230387898776 8.114885271611454 0 0 0
60 1 24.263975320483638 21.941353524465782 8.884892314534966 0 0 0
125 1 26.581979884776654 21.243409588575947 7.187389191303394 0 0 0
2290 1 27.497992497806425 23.850511143674904 8.376328463033328 0 0 0
2656 1 37.29733312587865 23.533099391335348 7.584432463508852 0 0 0
2625 1 39.53212985150669 22.29508205596665 6.114225360482943 0 0 0
714 1 25.3506862638789 22.228172419808978 13.580340970385604 0 0 0
498 1 45.15585729230701 22.128633126681976 7.967209697588478 0 0 0
1141 1 47.73746072044051 22.424953037286695 7.186644977687319 0 0 0
1740 1 20.13865934958965 -0.3466430835315729 3.270689121854071 0 0 1
62 1 -0.4535009351605568 2.333157940206434 10.050457809654164 0 0 0
200 1 50.75767107493213 -0.39791665834360745 9.961484261164989 0 0 0
2286 1 4.172563952636015 0.9833770300926634 12.18668175233682 0 1 0
2486 1 7.542431928953585 1.2192247474136022 8.799774584451994 0 1 0
2597 1 5.85407983895749 2.3901375080203158 10.703040430757358 0 1 0
2739 1 23.729050073613656 22.731015576024642 15.612331412590219 0 0 0
2778 1 10.044453629364241 1.8386055156921661 9.468909833769013 0 1 0
198 1 15.8696678909252 6.190165409995067 -0.6214025832458699 0 0 0
24 1 15.526170869878523 1.462528113924956 10.915450890347138 0 0 0
3599 1 18.658622428414123 0.7931729598150601 10.698172536757784 0 1 1
930 1 21.443931957616396 0.830735884429801 10.708305155655122 0 0 0
599 1 25.68274847067188 1.6545607256821016 9.151667133048376 0 0 0
580 1 28.871161025592475 0.9320073178013326 12.291200086457462 0 0 0
586 1 32.27790780559908 0.6207423478340806 10.047059298345658 0 0 0
2360 1 36.25928713333374 0.4631070958462262 9.56921884715194 0 1 0
160 1 37.676812113794966 1.7821959425320832 11.492364000450829 0 0 0
293 1 41.295340627827926 -0.04567524295301317 10.720177311081786 0 0 0
349 1 42.03037552318945 2.376208256531955 9.473346937308829 0 0 0
2154 1 47.14357022216816 1.8756740512652654 10.984697789101991 0 1 0
327 1 45.01270365795647 2.013768098252169 12.786704133604857 0 0 0
703 1 44.40781964545222 13.775173950793645 15.854692873591496 0 0 0
803 1 1.7579306913506842 2.732723108423742 11.692820474545034 0 0 0
53 1 2.600787601344014 5.156249908484096 10.058710501587345 0 0 0
466 1 7.15615118759805 3.839845306903002 12.647270386037503 0 0 0