LAMMPS data file via write_data, version 29 Oct 2020, timestep = 800000

4175 atoms
1 atom types

-0.2242463684634366 50.22424636846627 xlo xhi
-0.2242463684634366 50.22424636846627 ylo yhi
-0.2242463684634366 50.22424636846627 zlo zhi

Masses

1 18.015

Atoms # atomic

308 1 2.9374242088280105 1.1776144792443353 2.898488042500998 0 -1 0
3387 1 26.346026792081258 2.5531098405422363 15.906574159826096 0 0 0
3195 1 7.052121526214131 0.29424606843508727 3.34061672174527 0 0 1
2780 1 19.331211353323848 0.035555070503135444 7.483369654691835 1 1 -1
3373 1 12.320025759206693 5.814045866477478 0.2900520474258349 0 1 0
684 1 14.64510007551404 3.819504631347656 1.0070311559471818 0 0 1
50 1 15.668420016867172 1.3381697816008833 2.120220716248878 1 0 0
2288 1 30.831602997043756 -0.11228456969561965 3.3054754618942095 0 0 0
1349 1 25.996993846875007 0.9371636446993459 2.670086905584692 1 1 1
2207 1 44.03638118980993 22.559398194295802 14.7975186256567 -1 0 0
1145 1 17.20301011536157 0.8152012201225616 -0.22120731826766762 0 0 1
2524 1 32.61468098904352 1.9035675917235464 2.7743925148914856 0 1 0
1078 1 26.897436359373284 0.873074170000121 -0.002236722198113217 0 0 0
2040 1 30.810737311285653 -0.11299467529223346 6.135161232927961 0 0 1
41 1 38.20588060377699 0.9567604224740376 0.6529406186951325 -1 0 -1
3018 1 41.89018032496129 0.4634109776336027 2.1559956505283004 0 1 1
197 1 44.15177903050797 1.8474500508392775 2.6764437274929413 0 0 0
87 1 46.454275093198845 -0.006254716947714567 2.4811615387488466 -1 0 0
1782 1 49.477529022162344 3.574943446395703 1.7343953185716363 -1 0 2
888 1 1.3264367862179876 4.818477615570049 1.3127295823795786 1 1 1
3684 1 3.5097655629969777 3.4145715520204134 1.2120401130511107 0 1 1
1612 1 6.232059055531578 4.44484955691985 1.5384203329992938 1 1 1
1919 1 8.481446345037256 3.054799266412875 1.1264594272023756 0 -1 1
3510 1 10.272142577516918 4.263462332827414 2.713723241610542 1 1 1
48 1 16.94649597176783 5.794019995603955 1.2276319923365158 0 0 0
3426 1 21.463864581199324 4.540606470083212 2.5002982608947053 -1 1 0
390 1 25.095611467065 5.833049516271364 1.9913112042464713 0 0 0
3130 1 14.668606652613931 11.097754496654067 0.3880463851172815 1 1 0
751 1 29.701059648218436 4.390106010924852 1.3494612452416703 0 1 0
2128 1 31.37869269870223 7.171024299460454 1.4747142953293686 0 0 1
3200 1 32.60759065977675 4.141202869784854 1.0105241357201136 -1 1 0
1264 1 39.98829018071004 4.73719345179734 1.5585915050980208 0 0 1
1935 1 42.39547950199463 5.978060772250056 2.0475984999959707 -1 0 0
2868 1 44.16294361486945 4.005526077785212 1.0344761868635677 0 1 1
666 1 45.517166267287564 23.270074459423704 4.039303073025231 0 0 0
1050 1 48.059952632723125 5.0633205408901505 3.6291789797019476 0 1 1
2529 1 7.672963456028961 8.104398929647001 1.0386759975783957 1 1 1
39 1 10.437417544723495 7.348698802796304 1.6254341775867973 0 0 1
4019 1 7.835010463059151 0.4877853190637297 0.5008999363550323 0 0 1
4101 1 3.8601478009807746 24.522225606983096 12.524622739752479 0 1 1
439 1 15.191863421357134 7.956110124318778 1.8307207229534446 0 0 0
2324 1 32.720049614992334 18.023795963350207 0.497213214118285 -1 1 -1
1694 1 26.8993291056753 0.982322224433265 6.8751530349761865 0 1 0
556 1 15.06734147384991 24.87114746002129 0.8515931764002795 0 0 1
2240 1 32.27637725644378 9.461220823700671 4.926360831614635 0 0 0
2326 1 14.799535370134885 19.01135144441204 0.029915080067539956 0 0 0
3901 1 37.44228006129633 9.469201240005466 1.581285398696928 0 1 1
4170 1 19.10796598838115 18.85193497680988 0.892659723962766 0 0 1
1755 1 42.30681634959234 8.617683598228224 1.264572021006625 0 0 0
525 1 13.354784465184194 16.623971687087824 0.2545743812822455 0 1 0
1269 1 49.52706558286128 7.385314372047343 3.0769183088294896 0 0 0
1028 1 39.835590628973634 8.838141932677335 0.24417578723860017 0 1 0
1487 1 0.823205750523728 11.45888799136793 0.6609615695928034 1 0 0
1728 1 48.961818953776614 12.695653574749631 1.757716561769583 0 0 1
3151 1 4.185100566757197 9.665011641468974 0.4387239947171476 1 1 1
510 1 35.918229666814696 24.245578057465135 12.452501267603079 0 0 -1
2735 1 19.87660881272724 23.902016287543482 0.48926013811577695 0 0 0
2701 1 9.108919004582075 10.24655713726354 2.729915484842099 1 1 0
2723 1 32.52958253311681 0.5190765915154332 13.804308525343034 0 1 1
2139 1 17.137726150863752 9.873308088053808 1.5779597821760976 1 0 0
10 1 22.211162177829948 11.089809901597475 1.6419074096998663 1 0 0
1416 1 21.58433441346838 8.617964378027013 0.6538421762755515 1 1 1
2649 1 24.95542592645757 10.755527127560514 1.888104752566655 0 1 1
2792 1 27.998141546340715 10.63959269417758 1.0489913371667428 0 0 0
1938 1 36.209105236054896 20.914969239152366 0.6850000794994242 0 1 1
1133 1 33.177184518718406 11.58762069387062 2.0211818038201175 -1 0 1
3007 1 36.67930471721354 12.111176178048565 2.3239115556169536 -1 1 0
228 1 41.022515932947215 10.597898696529782 3.055547314659697 -1 0 1
927 1 39.50729126374824 12.57207543320945 2.406544096983238 -1 0 1
2661 1 17.278010722177108 24.95328195722091 13.689359687293468 0 0 0
1794 1 47.41435219217888 10.603355551894637 1.5284901061139438 -1 0 1
1865 1 36.45147851091566 22.224754632446597 10.288894615280928 0 0 1
338 1 3.013776629624155 12.284484866185949 2.0310294907334594 0 0 0
3872 1 5.1438781628621815 12.76561293490962 0.38275065579913137 1 0 2
1977 1 42.2544269673749 4.289560641584382 16.23167058873256 0 0 0
1163 1 0.4318083220698119 0.34949341821819613 2.5942607619069133 1 0 1
2175 1 34.96494487832885 -0.1892329146702622 13.18042556721715 0 1 -1
54 1 14.189331564007775 13.30659626926185 1.8754414215324147 0 0 1
193 1 0.24814161053657952 24.751797467317637 4.289357840770455 0 0 0
677 1 35.36658272596455 18.322274843920297 0.07615044996562848 1 0 -1
2032 1 23.440213530307396 15.379182176703555 3.888287091821309 0 -1 1
954 1 25.143337783078046 13.68089099966289 2.449294837588723 0 0 1
2060 1 27.208626598148236 13.677051155071858 3.868585274616877 -1 0 0
1614 1 29.271086796457126 12.772333215014108 2.168970779327995 0 0 -1
3250 1 34.351614911794684 14.069976218486422 1.4889588759436305 0 1 0
2506 1 3.8904514864201776 -0.09930686732631377 11.592249359515302 0 1 0
2223 1 43.59470400321946 13.480022032985339 1.5490097755353727 0 1 0
3519 1 47.73659905016463 24.93096336257372 5.502677864423313 0 0 1
3719 1 48.87467507514552 15.093137436381124 3.4790005104531563 0 0 1
1636 1 0.9591917598948456 17.519635686904433 2.82629417224942 1 -1 0
2912 1 2.260786269226006 18.813613370058444 0.47656931124623125 1 0 1
871 1 18.580333555857756 7.953592217183454 0.2644309087949419 0 0 1
581 1 9.04458131235954 18.0871115810528 0.7774962330125574 1 1 1
44 1 7.607510124476264 15.800446386658319 0.5623601940959927 1 -1 0
3729 1 11.525815809013597 14.201399332594413 1.5876837063651452 0 0 2
2061 1 12.880221014593882 19.17512188276393 4.314002187267636 1 0 1
3954 1 16.956605948431363 16.910964417842337 1.5498356331909724 2 0 0
1954 1 21.35186989008789 16.45755114816961 2.448411998761502 1 0 1
3293 1 24.67460175456811 18.051308502031713 4.128953207905079 1 0 0
1802 1 27.983472084735247 17.240805128605622 0.975810953818486 1 0 1
1160 1 27.578981326511258 18.290178655433493 3.5820615832805514 2 0 1
4164 1 29.83221995212148 15.24812508158208 1.2375650869741035 0 0 1
1203 1 32.338620268157044 16.016910094886743 2.234656111730991 0 1 0
3213 1 7.994156937460755 -0.15039533863202004 14.784366584397175 0 1 0
1531 1 37.29960042016785 16.241346218042274 0.8928866049599671 -1 0 0
2989 1 33.325886260642164 24.666369077294387 1.3600553922482068 0 0 1
1575 1 22.348391514602522 3.82488126365065 -0.11638221368871941 -1 0 0
911 1 45.198310194589766 18.34490483607239 1.9073867101660031 0 -1 0
3443 1 48.8367268127336 17.11423957410362 1.0391941584617868 1 1 0
382 1 2.224646743909973 21.555207239117983 1.403782893563535 0 0 0
3228 1 5.19363148588036 22.068408228747884 1.890250094248958 0 0 1
2632 1 11.654869893550481 21.283104240375387 2.96777464353916 0 0 0
4084 1 36.76517897355832 17.457198670846132 16.28052285591407 1 0 1
3909 1 39.806341671322315 23.81530390475053 2.3641139033671155 0 1 1
2458 1 16.733904808556574 21.24889800982297 2.589019988869262 0 1 0
2216 1 37.47507821962601 -0.014134326740045333 7.946663123553261 0 1 0
3363 1 22.568485452523905 20.113994461240093 3.468915290477433 -1 1 0
2255 1 24.888042706537608 22.19595935902892 1.5183993516783847 1 1 0
152 1 29.214870726853725 21.42912807723074 0.4735546943524229 0 0 0
2547 1 27.357374736635805 22.588164128098654 2.261540332120738 1 1 0
1285 1 31.58882477366895 20.30176229845093 1.7261254943034963 0 -1 1
3508 1 33.83708786291467 21.898144458151123 2.0741183041482314 0 -1 1
3944 1 38.785290331817734 19.290484981985315 1.1622886683725917 -1 0 0
1381 1 9.319146488887046 11.621137019106921 0.17846789239700922 0 0 0
82 1 13.048366893557828 21.256092801280268 0.45633834538772944 0 -1 0
4064 1 23.580625392479238 1.717608496848363 15.208042060379896 0 1 0
2861 1 18.994085503174034 13.83503746941394 0.2518338748548874 0 0 1
1095 1 3.938598757055919 24.537633709823528 3.0399231007978393 1 -1 1
357 1 17.316117647989426 20.17519257586077 15.209066314378891 1 0 0
458 1 49.93930500527884 10.867603310220574 16.137587495734888 -1 0 0
3419 1 7.378508539488922 24.156003901693456 1.4322708688120425 1 0 1
1345 1 13.188336376594407 23.23913498673215 4.418179202915416 1 0 1
1034 1 15.646954512875759 23.55166116079551 3.168970494608744 1 -1 0
2219 1 21.00693042408284 0.3299241196941528 12.513999970407287 0 0 0
3840 1 33.709421806248216 24.615857752007297 5.698171452475437 -1 -1 1
1640 1 40.765873620019335 2.0459182438601746 0.3571020170883459 0 0 0
4138 1 28.340940716045832 1.1045872696873107 4.4148513792783275 -1 1 2
1930 1 37.05507866887308 23.3599362426647 2.2039299125726655 0 0 1
2600 1 11.655014231396391 21.495020767640053 16.02704091715321 0 0 -1
2146 1 40.94070156801716 21.135276137040297 2.139540339217521 -1 0 0
967 1 45.61741617134078 22.97262919603673 1.1219248847287395 -1 -1 1
785 1 47.94445751230219 21.751609648625507 1.1853941140777255 0 0 0
824 1 3.614251543088052 2.590891161746881 5.215120809881509 0 1 1
526 1 6.2605445665690675 2.978269353353401 3.999518203173518 -1 1 1
198 1 23.03335594957848 10.647965756711068 16.107641177070477 0 1 0
4175 1 12.479484709545725 0.5115937658990647 4.017025466779556 1 1 1
24 1 49.70583772487528 8.879603304588237 0.5771531470532477 -1 0 -1
2942 1 17.893209410147122 2.4534020063205486 3.710715472993827 0 1 -1
2244 1 20.39246844153147 1.012601354203674 3.2270750947634395 0 1 0
864 1 21.981482783133618 0.8707772682739583 8.002384309591378 0 1 0
2781 1 46.62656507547186 5.032259146842785 0.882254532619956 -1 1 0
3816 1 25.491437243652424 3.4097448667418964 3.5816046824981482 0 1 0
1955 1 22.41603705912758 0.15253273671862172 -0.0864455563475619 0 0 0
2019 1 45.651258245294045 24.242016209890796 7.973655420090969 0 1 0
892 1 37.013416915064596 1.135110273410044 3.076904716178781 0 1 1
1228 1 34.986219300690266 2.9027380035520247 3.955912300795662 0 1 0
1357 1 40.34397103845524 0.2636883211348546 4.598900579011684 0 0 0
3797 1 43.98884827473729 1.4744923637073934 5.280411053576249 0 1 1
175 1 48.64178828191186 1.604153659937575 3.853753767558147 0 1 -1
2001 1 1.9821930280852316 4.802045781389104 5.549639840811733 0 0 1
1057 1 7.828841962912977 3.5543767311135404 6.133786883361548 0 0 0
212 1 12.96435971337533 3.104446164218211 3.2809081576097716 0 -1 0
1238 1 13.66650188825981 3.879783085246064 5.764816857697301 0 1 1
2376 1 18.063629968777676 6.020637030080149 6.176029135503615 0 1 -1
4036 1 18.750856322803134 4.938724627214368 3.339892274663595 0 0 0
2155 1 22.730343194368242 2.7617808404882256 4.103966552919206 -1 1 1
2601 1 28.79813310059836 3.7731224520583693 3.8490472643607294 0 1 0
190 1 30.391799260221294 7.545467565188399 3.9527519369627555 1 0 0
1975 1 31.692069387845308 3.659411897823196 4.539652874968631 0 0 1
3217 1 34.71694305132732 6.067460571451266 6.655534662026491 0 0 1
1268 1 37.155175081963776 4.945464222726869 4.0835274946539295 -1 0 1
2159 1 39.1510767275569 2.973036554074418 3.5371985148690515 0 1 0
165 1 41.61928208961663 2.698440425056266 5.612346763638888 0 1 1
2103 1 46.21880562493237 2.815312622943126 5.885236080718235 -1 0 0
3528 1 1.7179553121227165 6.572074002550632 3.5571124979950643 0 1 1
3780 1 3.711694440102765 8.607362706246917 3.16330073148213 1 0 1
928 1 5.93903323101681 6.868654786892733 2.9934670292635506 0 0 -1
3061 1 9.776363086269477 5.461222071912234 5.445321353878456 0 0 1
2374 1 11.64332080354715 8.79103181307263 4.120757419610327 1 0 0
931 1 14.482091981308539 8.238348255075152 4.2157740961694685 0 0 0
1826 1 22.320690407434014 7.217326351319408 2.9764791855267267 -1 1 2
633 1 20.350193688257765 7.805837360108784 5.152885037030387 0 0 0
1318 1 24.829779556820984 8.522133398734951 3.7306219733613526 0 0 0
536 1 27.750288464119265 8.280521013198149 2.8964441740998863 0 0 0
1567 1 28.585696094632052 5.8307525908494995 5.6620397272659675 0 0 1
3665 1 33.45645621887459 8.635902509373544 2.2284807636843804 -1 2 1
3376 1 33.00086412988969 6.119715055926255 4.352609688191611 0 1 0
956 1 35.07654622285372 5.548730286585244 2.012154154697891 0 1 1
3120 1 36.86612164628639 7.872044468772884 3.7218959038852177 0 1 1
875 1 42.474243196245666 5.463633619318867 4.767698508564996 0 0 1
4005 1 45.14019133928119 5.348926809205955 5.042622070228923 0 1 1
2057 1 47.02009742804866 9.743242392006298 4.192526662573072 -1 0 0
792 1 3.9623362093751373 11.088302539371032 4.341594113789136 0 0 1
158 1 6.855032617448188 8.19038174038854 7.54640466593861 1 0 1
1067 1 8.333023344070872 10.109084153387494 5.334540251601156 0 0 0
492 1 6.495017182180038 12.082861158828024 4.880537351962819 1 1 0
2727 1 27.604212172169987 6.462869387592209 0.5765567390692221 0 0 0
2134 1 18.696005778368875 9.969202469158006 3.983655760355277 -1 0 0
2231 1 20.32978766302929 12.345105983441702 3.5271427887462137 1 0 0
307 1 24.02836152717494 10.666300277151434 5.7099685354855305 0 0 0
2972 1 26.492363170320672 12.07691954969123 6.367125568152531 0 1 0
2479 1 31.236983521210686 12.028008543689307 4.17510958092655 0 1 0
1284 1 35.11078866137838 9.423689543404091 5.126862903142882 -1 0 0
2241 1 39.37755391572648 8.996439975716385 4.609782885250749 0 1 0
3953 1 38.734294866319445 11.228234799568833 6.113745718601573 -1 1 0
3505 1 42.70546545427999 12.66748282163606 4.223435171214096 -1 1 1
1658 1 45.308496999180136 12.001324066756016 4.953996852515696 0 -1 1
3893 1 49.845906710223616 11.788112730006544 7.5542374670192185 0 0 1
397 1 2.307758014700361 14.643167072253314 3.4070013675104147 0 0 2
3338 1 6.407154190546293 14.27046232646119 2.724025242440125 0 0 1
2136 1 9.243830787680128 13.109635745032227 3.240109092621867 0 1 0
1833 1 10.441576018945751 14.171936389307243 5.568742741366429 1 0 1
3963 1 14.986634151599382 13.285838494709466 4.7190015920931305 0 0 0
250 1 17.148325036765037 15.12590312658085 4.793635497694013 -1 0 -1
3892 1 19.062686011832497 14.821008391336186 2.6874455668938393 -1 1 0
1217 1 22.369895483324903 14.595233032704035 6.415072636292891 0 0 1
3244 1 32.16343064315163 13.934549706115904 5.979414170060128 0 1 1
3053 1 36.15428454262343 15.012705191308475 3.5528068704814206 2 1 0
29 1 36.19005637784369 11.95614298397269 4.989519737446557 0 0 0
1291 1 38.727881582803164 14.771138479942783 4.119017237973136 -1 0 1
3182 1 40.38416600506547 13.223214543007483 5.604676247335399 0 0 1
299 1 46.268042518608354 14.573059910012079 4.579794326963886 0 0 0
3449 1 -0.21604177068849925 14.149047774017184 5.821857510438523 0 2 0
180 1 1.224565054481627 19.09650067584204 5.129758208129222 -1 0 1
1246 1 4.583457337743863 15.881436257613831 4.0999307435242915 0 0 0
3880 1 4.695624097009846 18.218201284252647 2.0046762579674193 0 0 0
1910 1 11.411481652605758 17.188177631018995 2.5091579777845645 1 0 1
3302 1 15.496567923320166 18.68155879635566 3.4090012443679965 0 0 0
2700 1 16.728999610943465 17.647952642523453 5.583311277696788 0 0 0
304 1 20.025316444159934 18.881466041149544 3.5301061832196803 1 0 0
823 1 19.60123469431649 18.350344818361005 6.195632858440908 0 0 0
3888 1 23.435297880539412 18.74644543858722 6.939248825078984 0 0 1
163 1 27.94860278925436 16.154430505324804 5.377961912866574 1 -1 0
3058 1 30.849391377642412 16.11335119018471 4.859938501958846 -1 1 0
2886 1 34.39939342693741 17.487089269204574 3.831195141266699 0 0 1
2970 1 38.77171789185199 17.30133288205223 5.809378927342519 0 1 1
2287 1 40.28785403203956 16.421190191901186 2.5321415438700248 -1 -1 0
1781 1 44.7936790029151 15.49679777829099 2.7067624204614407 0 0 0
2594 1 3.410734846840909 20.320419484001555 3.999985263368499 0 0 0
306 1 7.191476423101016 19.81020995141626 2.278350046279229 0 -1 1
2010 1 7.349979748923302 19.882875775168063 4.914569965103816 1 0 0
2280 1 9.15195550323948 22.07925137673638 4.980902844144302 0 0 -1
2393 1 10.308176643969167 19.731629457651817 6.562829161346773 0 0 0
447 1 17.922328959778323 22.046120458576148 6.843275930695931 -1 0 0
4035 1 21.698846438938983 20.963719267765573 6.067377728385924 1 0 1
2176 1 19.009379538759855 21.43145684904604 4.097561617232345 1 0 -1
983 1 27.201547364053678 21.027296686206583 4.800832737577647 0 0 0
1859 1 25.23070328230266 20.9082242605244 6.712986776622592 0 1 1
2559 1 32.049841420186155 19.00552169033087 4.573518283361518 -1 -1 0
605 1 31.191798764562613 21.9075174437381 6.703501928570002 1 0 0
679 1 36.72323156881751 21.540278248151743 5.680773677460308 1 1 0
1805 1 36.14661826276745 19.872894889077934 3.476971514494398 0 0 1
926 1 38.73597693094143 19.123874010761376 3.9974901341813167 0 0 1
2260 1 43.44025784621384 18.542365827013924 4.034383603062565 0 0 0
2382 1 46.19693107283895 21.00642219520888 5.878104138824329 -1 0 1
3134 1 47.784605553781034 19.056967681776396 2.374101038589181 1 0 0
2196 1 48.54312164558715 19.385141004188313 5.263265346107225 0 0 0
3169 1 50.21002003216232 21.50119780907526 5.99183791954347 1 0 0
1320 1 2.6874180763611055 22.724609739769356 4.906802070794861 1 -1 1
1230 1 42.912998214733136 0.2651076220863409 8.820986356807511 0 0 0
2442 1 6.5861960462791025 23.948176867410783 6.019389967411459 -1 1 0
1532 1 9.015025924523549 21.90751813375556 1.6154933339039121 0 -1 0
3015 1 34.76976191335319 23.141412788442253 16.434086168233783 0 0 0
3904 1 4.146491719864707 0.7650793766956978 15.683606776979145 1 1 1
1103 1 20.4999476787753 23.440996181877555 3.0959865361132324 0 -1 0
2664 1 23.257572982728462 23.502862614240836 3.406356921393627 1 0 0
531 1 23.661776893047065 22.909112717066403 6.049152479645547 0 0 -1
1834 1 29.059310179754238 23.114225777069855 5.365156006336302 0 0 1
3265 1 33.307777756801045 21.815980386959776 5.273442791842383 -1 0 0
3396 1 36.30033852750681 23.91114640260187 4.873535650721555 1 0 0
355 1 42.807362099583315 22.811324353876763 5.120587403865584 0 -1 0
205 1 41.49108355114875 20.31768320701045 4.755991506324739 0 0 0
1542 1 43.61607305413233 21.18223241316162 1.2148411799901224 -1 0 1
3481 1 48.552155987147856 22.679566133130113 4.014526810164961 0 0 1
462 1 42.84496240554961 10.936021310234203 16.0212111274243 0 0 0
2811 1 4.568783229373893 2.7444032325745398 7.931148654081349 1 1 1
4147 1 6.405600556773407 0.7853051556492154 7.737144768775623 0 0 1
4023 1 4.423846815877854 3.3905340741221104 10.59576581503809 1 0 0
3047 1 9.297797149612478 1.5139165858089783 7.378558394723858 1 1 0
2814 1 49.97803679604918 1.0791751980795754 -0.035528925941555434 -1 0 0
361 1 10.989027237128285 2.3337488340342425 9.65913201973583 1 0 1
1056 1 15.003351405958451 1.9794171319917049 7.199201737059126 0 -1 1
3947 1 14.53331186219196 1.154927312079958 9.807807712492526 0 1 1
4165 1 17.61166548009106 1.9188504808845201 6.413581913058641 0 1 1
1796 1 40.27033654652682 24.230912487929057 5.233522825956553 1 -1 1
1999 1 27.681174919880988 3.6246255543857 7.615128718610733 1 0 1
548 1 29.685869994621306 2.4750376010606416 9.372215574870472 0 0 0
2692 1 22.480294226538163 5.962518537136706 16.47796415363648 0 0 0
2764 1 34.50291068304263 2.389894077014678 6.6049496808543635 -1 1 0
2411 1 35.27136381820881 3.792798209522929 9.123884498258676 0 1 0
2378 1 38.84513759596979 2.1143748144176335 6.834010937824628 0 0 0
1566 1 41.02534586686653 2.3441630324366245 8.515102086665456 -1 0 0
1995 1 44.99900424401872 0.852201954055225 10.445901809417654 0 0 1
1322 1 50.035628639871305 1.0318014071564328 6.3880839315959514 -1 1 0
1831 1 0.26954804827114226 5.570928623259946 8.367253861767486 1 0 0
2 1 0.4224572891560069 2.744387155264722 10.150515976014688 0 1 0
3314 1 6.238010893036644 5.444363658883034 7.571653817433755 -1 0 1
797 1 7.867592739212897 7.376307423750052 4.932598285852413 0 0 0
2590 1 11.561378521456367 4.039762173750652 7.460648801161009 -1 1 0
846 1 19.285692336364146 3.728246570599628 7.397040299673439 -1 0 0
3987 1 25.260046608400593 3.8170765864108267 6.040542400725406 1 1 1
2003 1 22.085472426548126 3.604719031716695 6.746379164981346 0 0 0
3882 1 26.82480072320471 4.607919691639463 10.021931359385283 0 0 0
2205 1 29.346731081904668 6.041954615248713 10.580808304995426 -1 1 -1
1545 1 31.72563561178118 2.6207046184740808 7.166804729284678 -1 1 0
990 1 32.05997380590263 5.373156862519134 8.105245844636359 0 0 0
538 1 34.55202594922052 6.430875589405459 10.35495842727574 0 0 0
1469 1 37.272470195775185 4.7536651278600495 6.9903075252895235 0 1 1
2002 1 39.145758178776845 6.324032825038226 8.108671446392513 -1 -1 0
20 1 45.208308532386596 4.93503918083136 9.263959797518675 0 0 1
3099 1 40.92982067370822 4.7871505241651455 9.98840981300776 0 1 1
680 1 49.320114521475006 3.3736782403101473 7.613729515529019 -1 0 0
1197 1 0.094226270381144 7.826185237054803 6.015946903724286 0 0 0
1897 1 2.5773931846786757 8.908357235245154 6.241469077120941 1 0 1
4080 1 3.5906502343170064 6.617402560556067 6.9587486221285335 0 0 1
2894 1 10.049193097836023 7.508062572288734 7.755529958524699 2 1 0
3569 1 15.153881990818636 7.02628887578639 8.56821751383482 0 1 2
2883 1 15.45653385428754 6.304733728038947 5.8386813355539084 1 1 0
1915 1 18.516253849989095 7.3749095262067055 8.698225002598173 -1 0 1
1007 1 21.155665333142657 7.773013367051298 7.91972563799534 0 0 0
667 1 25.85758357469816 6.655424738334711 5.94765097030064 1 1 0
3578 1 25.61233933474382 8.138586119695617 8.274349270238302 -1 1 0
3534 1 29.733679878500016 7.260812746364049 8.034740676061633 1 1 1
1134 1 30.455723012490452 9.708830721734735 7.319974268440637 0 1 0
2305 1 32.87501563648944 10.034831085106575 9.054064682082993 0 0 0
1536 1 35.035791251018054 8.519599161521617 7.9730765368727035 0 0 0
3641 1 37.65623996272083 8.554256920472438 9.188841623988205 -1 1 1
2758 1 40.959705122051744 7.444033315509007 6.278589769043057 0 1 0
1691 1 45.0377856148441 6.969659176845523 7.118813934662101 0 1 0
423 1 48.5395231395659 9.54559106461196 6.302583376910255 0 -1 0
3085 1 46.940316626379555 8.778343947619812 8.277768457194826 -1 0 0
3042 1 2.158419189873948 12.905003717189814 6.027171651578191 1 0 0
1453 1 6.028981330063882 10.778889968200863 8.819357407860513 0 0 0
703 1 9.981904145769896 10.072401803419307 7.573688715943735 0 0 1
1667 1 12.523676394547353 10.4198545987509 6.477355597674146 0 0 1
1762 1 14.45568381992906 9.593765675185368 8.277101516725645 0 0 1
3948 1 15.81080120024032 10.535010939317623 4.692122352251818 0 1 1
2653 1 17.138966862389335 9.56924755557908 6.867716247421151 1 1 0
18 1 18.92878259672774 11.488522769808688 7.219861007962464 1 0 0
2394 1 23.270203979715877 9.599176932823008 8.164245969944018 1 1 -1
2245 1 28.78826273135636 11.76009162020285 8.263180541087046 0 0 -1
1560 1 27.437880317286275 9.611312306504104 9.778005717228654 1 0 2
3299 1 33.385391232753065 12.834370719494533 10.339588895399027 0 0 0
4053 1 35.84821048878473 13.231425311050051 9.027623357245679 -1 1 0
239 1 38.1959387187631 11.167485076109656 8.753669792147516 -1 0 0
3414 1 42.74239869624671 8.72212965634256 8.016762858385386 0 0 1
1997 1 48.709707862986136 12.691367025313546 9.91493447163762 -1 -1 0
2847 1 5.084865421370943 16.73861496613126 6.609681995004901 0 0 1
2774 1 6.224334746595813 13.13519403423776 7.353622461726002 0 0 0
3146 1 8.458870307078714 14.95300172968363 7.729650869259299 1 1 0
2958 1 12.634747463088248 13.08021617327051 6.5329781095539685 1 1 0
1225 1 13.993224714828225 14.78276141126373 8.56880367263636 0 -1 0
4007 1 18.179674202221303 14.14958390317875 7.194168544165799 -1 1 2
1010 1 21.57220084309221 11.885136293969751 6.072844840745275 0 0 1
1959 1 20.30228434258632 16.003906006150157 7.547542529237869 0 0 0
3575 1 20.924100965984458 15.544297110685653 10.236803745362652 0 1 1
1175 1 23.98920281299198 13.80567452070984 8.614154897095807 1 0 0
3418 1 23.493388142131124 15.868959139605359 10.594096163587231 0 1 0
3140 1 26.637116382075657 14.29181518787747 8.699604499477083 1 1 0
1916 1 31.10442399096511 13.550144542691676 8.519331053764173 -1 0 1
551 1 30.218192243612524 15.831127921528442 9.47417818728815 0 0 1
1339 1 35.062699608517335 14.24065878321032 6.493554702609974 0 0 0
3030 1 36.65660815410655 15.797037053183331 9.245735028221086 -1 1 0
2541 1 42.14658102358831 13.488084142719043 7.929633248384571 0 0 0
1075 1 43.70479040704288 11.202335660890103 7.401852704127847 0 1 1
2072 1 0.42084007884108965 14.674851720377617 9.494147608660843 1 0 1
3535 1 2.538615059104025 17.68915516133913 7.30198166435826 1 0 1
1873 1 2.9822137725798066 18.26395277671043 10.078881698579607 1 0 1
3996 1 6.910310142563394 16.884948935163695 9.274771661213942 0 1 1
1895 1 8.392369101750774 17.514067127153982 6.185739519022243 0 0 1
2055 1 11.473067710554048 16.664519769272545 5.6091934963148695 0 1 1
2654 1 12.703083331548752 17.207618196037025 8.243085342193758 1 0 0
3470 1 14.447747371258545 18.8551063151771 7.1342565936358975 0 1 0
576 1 23.980589589557127 18.519259866139258 9.98339270569645 0 0 0
1647 1 26.7053695221607 18.50065916876222 9.74413213605868 0 0 1
3281 1 27.76752277354832 16.62908089281969 7.973718284599684 0 1 1
2039 1 31.63768110229172 17.619986638075478 7.375766356970721 0 0 0
805 1 36.04205381747164 16.778791487204764 6.7153205837999455 0 0 1
236 1 40.663032750793576 17.553648835594803 7.726276668736052 0 0 0
424 1 39.41534144644838 15.837854965914076 9.53041232903016 0 0 -1
1420 1 42.53290156443474 15.651079280189961 4.31979204636385 -1 -1 0
501 1 43.079995877580245 15.898758571251008 7.253728070885626 0 0 0
1229 1 45.989850868398094 16.0779795226309 6.7388634644534795 0 0 0
654 1 48.23283870821598 17.713206535591343 7.348112975171783 1 0 0
380 1 0.1511707822238907 16.216623871977152 7.188176028134954 1 0 0
1331 1 4.916126732272801 19.72266215768408 6.354630285209586 0 0 0
3917 1 4.598955580384327 21.170105666276797 8.651477160869465 1 0 1
4018 1 8.371828558791455 19.159792183021228 9.268247240713835 0 0 0
57 1 9.217257760778448 23.019892292596516 8.160928395571615 1 -1 0
1445 1 11.598203928058952 21.305935613931233 8.895185470007004 0 1 0
1265 1 13.509552556248812 21.49888500693373 6.919559898881379 0 0 1
2946 1 18.666429294381846 20.089659250061747 8.544098672840128 0 0 1
2395 1 21.67017185643424 20.299288342243095 9.159260171155571 0 1 0
1843 1 26.369171440762074 22.725117198430443 8.854360902014953 0 0 0
489 1 28.011307732993966 20.77704965232547 9.562426485771885 0 -1 -1
3682 1 30.412420564988427 19.90559778453515 8.288950365945851 0 1 0
1778 1 34.20342070567544 18.120168800223684 8.155678136788467 -1 0 1
1661 1 34.719999591247074 20.690054180539075 7.410475678633408 0 0 0
3294 1 39.49631929930948 21.962316894927614 6.641308650988418 0 0 0
3476 1 41.383247684943754 20.415063613025332 8.328040826840098 0 1 0
3896 1 44.76937786684982 18.751706332092414 6.237051271102969 -1 -1 0
2075 1 43.955497037707985 19.79803320547053 9.041627812942323 -1 0 1
1 1 3.881510423183534 23.314839296528806 7.150818752790018 1 0 0
3599 1 18.08213944593668 7.6727888561248205 16.207297802559314 0 1 1
2869 1 15.549865953484053 23.36256674962674 7.305590742609794 -1 0 0
2249 1 15.810176709697636 23.82804670285722 9.978993441819618 1 0 0
839 1 19.456512427362934 24.266654193814645 7.756881801835721 0 0 1
2558 1 22.242972723214102 24.42173185449275 7.804915327781002 -1 0 0
401 1 27.465953709998658 24.46221555148764 7.283964008223586 1 0 0
224 1 29.502745989486446 24.77713112808204 9.32892718049579 1 0 0
3447 1 33.623243494702066 22.014860750816148 9.526974831122363 0 0 1
3060 1 38.63495440512219 23.729467687475054 8.867750368174748 1 0 0
649 1 43.14807573378455 22.910077432266608 8.118881236525981 -1 0 1
1299 1 46.96053944490157 21.58912756288716 8.508804504060798 -1 0 0
136 1 49.797601402751525 22.29437177030778 8.514883399502299 -1 -1 0
2322 1 31.499969770052324 9.772250459088939 15.946272971557772 0 1 0
169 1 34.67023186525124 -0.04548881076819067 7.730969996846019 0 0 -1
2597 1 42.448933196732824 18.254589189947186 15.753450529068981 -1 0 -1
3010 1 8.189790468900743 0.6743170118126836 12.103039320897016 1 0 0
3877 1 16.53825801060165 0.18953301533825168 11.43170447789571 0 1 0
3700 1 15.395259576590849 0.6730283630473568 13.781206768159581 0 0 0
1017 1 18.849386993326718 1.9409411599705284 11.588337536150297 0 0 0
2915 1 21.856501948796332 2.6806956602220393 10.217251600634672 1 0 0
1754 1 25.66470053183844 2.386751939969226 11.651911338151274 0 1 1
4024 1 36.57516460739285 10.780919310166748 15.859465735612737 0 1 1
2065 1 28.608057231828674 0.027995990309489127 9.59196791068021 0 0 1
1506 1 33.76751440041731 0.4355950741511331 10.2812519238131 0 0 1
3918 1 3.8720803743386085 10.023123038355667 15.083333696932366 0 1 1
3648 1 37.072550857785814 2.6508206393415663 10.957293438426964 -1 1 2
1074 1 2.1073230333203528 0.8259423515968052 7.237713343698892 1 0 1
585 1 44.012210907081595 2.267307083442079 12.714945676923618 1 0 0
3731 1 41.81000192892607 0.43228330523445324 12.119829407099402 1 0 1
3644 1 46.56795242420212 1.4516757683832149 13.728452988108279 0 0 1
3063 1 1.0989156378827794 2.976773258182971 12.809180439514304 1 1 0