LAMMPS data file via write_data, version 29 Oct 2020, timestep = 800000

4175 atoms
1 atom types

-0.5866200471292338 50.58662004712592 xlo xhi
-0.5866200471292338 50.58662004712592 ylo yhi
-0.5866200471292338 50.58662004712592 zlo zhi

Masses

1 18.015

Atoms # atomic

3573 1 2.254567571440964 1.2792176571812846 0.5230323116319953 0 1 1
1316 1 29.549325494039955 1.5583284042744614 16.464196419725212 0 0 0
437 1 6.102149041835695 0.13663710041462307 0.4003343477873761 0 0 0
324 1 9.988980650069637 1.5306548730336114 0.5359567095620852 0 0 0
1579 1 10.548586421588473 0.6559303946141601 3.0876720850567563 0 0 1
386 1 11.405553173267911 9.772986206620356 16.23860204973268 0 0 0
2731 1 14.082554503448847 0.6966673996448469 1.9342831699008802 0 1 0
2437 1 16.091981802584268 2.4617009702712562 -0.1367923271413457 0 1 0
853 1 17.922754356859457 24.55507626133052 15.385929753333418 0 0 0
670 1 20.797908999115723 2.2301443972497528 0.836991071915637 0 0 0
889 1 25.736331214205283 0.6770363969826583 1.7881127156647816 0 0 0
1854 1 27.244233978218055 2.140511384898737 -0.07459679101600036 0 0 1
410 1 31.700306083831425 1.6709646944068153 0.7321382452928358 0 0 0
2394 1 43.93039243113893 0.7923984231381269 -0.4940222742306851 0 1 0
2005 1 36.24736016122351 1.5249382034328032 1.7294049536654823 -1 0 1
191 1 0.8841817443432363 18.03813513140932 -0.2355912395503249 0 0 0
2814 1 39.94519364304884 1.421132496637398 1.8632286342602749 0 1 0
75 1 32.97168970210029 18.347511731107197 -0.24790899286653217 0 0 0
403 1 48.40643200450792 -0.007177258465129954 -0.12614318539609687 0 0 0
2309 1 0.6406566231541126 4.386209927811585 1.4980398359905909 0 1 0
2095 1 3.256368724963921 3.69195641314428 0.48509164249930015 0 0 1
2480 1 5.523358471605732 2.745137695370351 1.625345149401995 0 1 0
4 1 7.598617452371222 4.514912799996017 2.636500001704926 0 0 0
179 1 9.323268083354076 4.156132421041152 0.7771586596759932 0 0 0
466 1 17.84418938498592 6.0073517261082285 1.2128570791646598 0 0 0
407 1 43.329725954227214 24.461745825834573 8.634789513041966 -1 0 0
680 1 23.15143606447547 3.6683554526620785 1.4163173476994726 0 0 0
197 1 25.121007425450404 4.06235246554957 -0.21732631722943557 0 0 0
2306 1 29.04658837378861 3.919360539712418 0.9501326432294923 0 1 0
829 1 19.70698163083063 24.863670984795434 10.108776495857565 0 0 0
3515 1 36.2613548400964 4.525719569415042 1.4131353201340249 0 1 1
1871 1 37.38482912484359 6.155676136342772 -0.40399015656791726 0 0 1
1943 1 40.956066451219556 3.7063066056879475 0.552642798874234 0 0 1
1592 1 43.832438644248455 3.204762958940822 1.0426303518400393 0 0 1
1898 1 45.290967734125815 5.081660155014363 -0.2963492942347868 0 0 1
1939 1 47.3549837453465 5.068678300129222 1.917015114419606 0 0 1
45 1 49.523220949067436 4.991510082499922 0.13084442560844844 -1 0 0
20 1 1.4428537693896493 7.144615815872724 1.8478332845830736 1 0 0
373 1 6.468521878536158 7.068579113749724 2.2104566276048003 0 0 0
1472 1 11.405380601441438 5.694004072014549 1.5957776659565739 0 0 1
553 1 13.505751266372874 6.333759627912456 0.02980386154903447 1 0 0
44 1 16.129552988803574 7.6313120734987745 0.15438190210489666 0 0 0
2073 1 20.48261732621552 7.031620227863751 0.9939126872195849 0 0 1
1417 1 22.143268775253194 5.968672282361216 2.7123379195919277 0 0 1
135 1 24.287370412794065 7.820748715886667 2.8364035973808965 0 0 0
4097 1 25.94847579440532 6.308004862305103 1.3686216037806467 0 1 1
423 1 30.204905288588822 8.825171982917315 2.260453791473996 0 0 0
604 1 32.12125573893444 7.33201819584882 0.8825371585314084 0 0 0
1983 1 34.34539181015778 6.356869941359117 2.5246334247638718 0 0 1
393 1 36.490156540958154 8.647995152452308 -0.07476189726319571 0 0 0
43 1 39.98667279301583 6.3553104176646595 0.8839008569050493 0 0 0
350 1 20.7855683085832 -0.1828840265276031 9.442874070987994 0 0 0
1982 1 5.088909218482608 10.716229982913807 1.5611859963390717 0 0 1
2404 1 7.476319496214812 9.625265754352185 2.1762443065635213 0 0 0
215 1 10.08867355854299 10.011245414518017 1.3430238000373227 0 0 0
1655 1 11.589222482568196 12.06091459649854 1.7984070280286026 0 0 1
1609 1 13.927005584986 11.337409351431853 0.961174346699543 0 0 1
2000 1 15.54289261203363 9.586749523088034 2.0810269450125882 0 0 1
2053 1 19.41164481825103 11.031082666465084 -0.16779990913277698 0 0 1
2420 1 21.009764266342795 9.565466556052185 1.4396908572203553 0 0 0
2312 1 24.09197664253566 10.045155283777275 1.1468834236065837 0 1 0
430 1 26.377630281013836 11.75349482920536 1.3626330033527119 0 0 0
1152 1 28.500882032843915 10.038478426102598 0.5352928680299671 0 0 0
2752 1 32.952109839523985 12.112550166059682 1.8288436309366873 0 1 0
1559 1 39.881782453445936 18.002142144156686 -0.5369329859980273 0 0 1
552 1 36.71516328448263 10.047808010930453 2.4181573073161204 0 0 0
63 1 35.65417043229368 12.4789215474928 2.3496421338066398 0 0 0
1407 1 40.827410770276856 11.202304428437634 1.5062230515511237 0 0 1
1813 1 48.21066291804958 9.306230216819369 2.538908517805238 0 0 1
601 1 0.868670633027911 12.407333414162721 1.85461480083389 0 0 0
615 1 2.9775661377800406 14.40445541710971 1.5902012981726479 0 0 0
496 1 5.225576287843651 13.407822429573597 0.5364653188100461 0 0 0
1851 1 7.4740948948174175 14.823209699926979 1.538827301992158 1 0 1
2045 1 10.10059937596088 14.09665228536806 0.7263255470524657 0 0 1
3754 1 15.417425497082402 13.802789194996047 1.3420711104436556 0 0 1
188 1 18.04096910007435 12.786786743807854 1.9676694537077757 0 0 0
469 1 23.661264638637075 12.670649381034393 2.8119080091851743 0 0 0
459 1 22.705638173551822 14.246536432980832 0.7621856516249721 0 0 0
2411 1 25.145699294795424 15.43607891252018 -0.16407273566635222 0 0 0
707 1 32.793127556536476 14.875421267214033 2.0572334165719206 0 0 0
231 1 30.198824743712358 15.202355140744757 0.918841267410099 0 0 0
2056 1 37.089384597329484 13.829292189796428 0.31182522204822294 0 0 1
534 1 39.93959451435771 13.852786740738752 1.166343921991139 0 0 0
2300 1 12.492827632692585 1.5329464651908724 -0.10558805842348212 0 1 0
646 1 45.3766820888262 13.545369888566645 -0.10401218478701024 0 0 0
1820 1 44.913303572477375 12.469726749239143 2.2431859270235393 0 0 1
2028 1 49.65364019985414 13.64282491863236 2.1368713634412737 0 0 1
2088 1 47.987869661886435 14.204419077566946 0.03353220542650859 -1 0 1
1793 1 18.62267898580825 3.6419047461833074 -0.23172772924578333 0 0 1
2740 1 3.1006912482201816 16.961724144876367 0.3546964724341716 0 0 0
524 1 7.282417702695248 17.552145660090105 1.1894259284532676 0 0 0
172 1 14.043551507622706 15.841688746744772 2.347325900736704 0 0 0
60 1 11.582279355765678 16.273597907745913 1.0274887780094621 0 0 0
408 1 17.10544682902484 18.25307612881655 0.48829733516651386 0 0 0
2158 1 15.971062022779684 17.84863257279673 2.7641829923845562 0 0 0
125 1 26.45784828458559 24.923515145243456 5.141967651075363 0 0 0
467 1 21.04568015870816 16.304341470308767 1.6582195327610014 0 0 0
1416 1 26.2874469526342 17.423099872357493 1.4430369788532809 0 0 1
433 1 27.39646055299486 -0.333948290757152 3.7673611192724445 0 0 0
254 1 5.77237994174255 7.448572508336021 -0.5620395876115759 0 0 0
331 1 7.996148350031271 24.444647594389085 2.712455035054471 0 0 0
4033 1 36.31882474288443 16.32159680464789 0.3786189725189575 0 0 1
1760 1 44.20585408184391 7.3905615852852184 -0.17980113983192308 0 0 1
507 1 44.085338275388054 16.89232680370818 2.833767433574556 -1 0 0
218 1 43.76781122114332 15.854655579428115 0.32830467609944125 0 0 0
1521 1 -0.5499731994244001 18.017130913267877 2.1686358609092338 1 0 1
3655 1 5.188193875636825 21.794997094193928 1.9653604542097982 0 0 1
1683 1 4.819926935764324 18.65280077793302 1.357043390166583 0 0 1
240 1 9.771113598438475 18.562119667309304 2.3566238886082744 0 0 0
2197 1 11.766286645867675 19.397043735788944 0.23416752641871774 0 0 0
2256 1 13.844228897807206 19.63459170313776 2.6365869638712 0 0 0
3729 1 18.331160193552943 20.901743675860427 0.7627969243672721 0 0 1
129 1 19.873139406269505 21.641131464352288 3.1086576473347853 0 0 0
653 1 24.468169535689274 19.511652937581488 2.1839409263263656 0 0 0
708 1 24.008463008762146 21.196690178304213 0.05490031098262349 0 0 0
1408 1 6.237149515138245 23.09498768798056 -0.33899433693753556 0 0 1
577 1 31.887278690451534 21.485825166335143 2.8253791128928194 0 0 0
239 1 33.73281413601313 19.783514542971567 1.7168297404873551 0 0 0
562 1 36.05124961937685 21.287006071175714 1.000421590299351 0 0 0
2154 1 38.60524514839592 22.05529231565845 2.1554592216555797 0 1 0
1317 1 39.71243042309953 19.40342465661312 1.9123005870781378 0 0 0
42 1 42.99948417725655 21.39965423152702 1.013259715172381 0 0 0
1625 1 48.28057519647216 19.26506919799086 1.670679903179229 0 0 1
3676 1 1.0439990940642732 22.638915897911982 0.22622180621831012 1 0 1
2135 1 2.431119864114204 22.36393710690133 2.6823341608529674 0 0 0
2430 1 30.57518724489067 5.821814700814523 -0.44968081801394394 0 1 0
2405 1 44.91923453116344 24.629894934284422 12.332109266737861 0 0 0
366 1 9.48455072596985 23.655242768062266 0.6129620262951605 1 0 0
1724 1 11.979415637535567 24.889449606907178 1.1013793576101745 0 0 1
2358 1 15.683576347684738 21.86155987851058 2.329718695694491 0 0 0
34 1 14.559169583596109 23.926428028511214 0.6672503029742836 0 -1 0
138 1 22.100608038680523 22.579721016049277 1.4229489773655768 0 0 0
3635 1 26.651184297534677 24.45213773480588 1.368651119966499 0 0 1
294 1 29.41277768050565 22.425240251680993 1.9819106295819053 0 0 0
622 1 49.32355980863636 24.393923537082976 13.205027357103148 -1 0 0
2065 1 35.09595357982654 23.610069794365998 1.8052113284991833 0 0 1
4043 1 40.76933274079701 22.963900685287943 0.5569256422397806 0 0 1
3640 1 45.64286851639466 22.595896791838054 0.7519485201600111 0 0 1
634 1 47.721360008255104 21.818613425565285 2.425360680232851 -1 0 0
3755 1 49.41268911229335 23.218854195958304 0.8094521950973304 0 0 1
2119 1 -0.3423997513918585 1.0405995649129012 3.9350386611980293 0 1 0
691 1 33.77843811954753 15.933716298016403 -0.3530969565495457 0 0 0
2657 1 1.0469189572123103 10.233212712312064 15.707265501614344 0 0 0
328 1 14.917142541476641 2.871296109724782 3.540284859337488 0 0 0
676 1 15.011213164614938 2.0723346737095856 6.290154402477994 0 0 0
3809 1 20.52235718423328 1.3968286010602575 3.560283377236276 0 1 1
157 1 48.73484183238739 24.16538447142595 15.824916969655693 0 0 0
400 1 22.930544327802405 1.4659839200905624 5.495658260631838 0 0 0
585 1 24.425674356625073 2.3757296831860377 3.470390928324533 0 0 0
9 1 27.306831902285875 1.5933308134428774 6.268740208402707 0 0 0
1668 1 30.81408351375463 2.701723263827545 3.0903631357031127 0 0 1
126 1 30.151974470582815 0.4601250198761082 4.424940385454771 0 0 0
1703 1 33.35512102020172 -0.01815131467518427 4.881500055757817 0 0 1
1147 1 11.370101324313524 24.658694652179477 9.788461631876094 0 0 0
2744 1 38.42288024110201 1.3142898286114832 4.161190396626386 0 1 0
4175 1 44.44266500455079 2.5138140847018557 3.8638337739412076 0 1 1
3932 1 44.244932327575825 0.2576006427322266 5.079335240962227 0 1 1
190 1 48.42564276052883 0.7367003961073275 2.520700613205617 0 0 0
1413 1 -0.04331764710509478 3.6982413764769824 4.099323432786533 0 0 1
401 1 2.708757567006215 3.2160034231299632 5.360628942069531 1 0 0
1731 1 4.989790322352641 1.864437308629403 4.013977859706883 0 0 1
2103 1 6.6681925350070905 2.404313033671726 6.094439816407943 0 0 1
526 1 8.768429514332444 3.8405727490584978 5.108342594499378 0 0 0
12 1 11.118596890121722 2.486277129016468 5.08384120406386 0 0 0
1471 1 12.630443484602 4.416226268721552 3.725133213974191 0 0 1
1732 1 17.167248209038707 4.2835013032619225 3.396886317028418 0 0 1
2585 1 19.31992506077547 3.4523417112015258 4.844805337821994 0 0 0
396 1 16.557431356585713 4.469389496878751 7.003443482044108 0 0 0
4053 1 21.15350829534745 5.625071444260122 5.128708960749492 0 1 1
2616 1 26.22582508496173 3.839011995985034 4.908152467531742 0 1 0
163 1 27.927094804448558 5.317300210532084 3.1645796076569987 0 0 0
2533 1 32.181498662171435 4.855719593318986 3.506299818420622 0 1 0
3935 1 36.58950317264383 3.462358884370752 4.415836323000839 0 1 1
224 1 38.41723415772722 5.4919182899835794 5.064815782233471 0 0 0
730 1 43.10633690876634 3.9797035039690236 5.827858369353315 0 0 0
187 1 46.99364734802839 2.9208729089856327 3.5580375947893828 0 0 0
701 1 50.353909355589266 5.114084677015273 6.375564764660825 -1 0 0
112 1 3.5856526276517426 5.794156574189356 5.542660242927859 0 0 0
174 1 3.8363911701190974 7.043700379423094 3.2096588439280804 1 0 0
211 1 9.755122701963403 8.729663847756688 5.709882062008074 0 0 0
1541 1 11.045136994215916 8.092147760466185 3.133965784485849 0 0 1
1979 1 13.457764429977367 8.895070309582774 3.8950065060459655 0 0 1
569 1 13.677138565598524 6.669475423650107 5.233394603199359 0 0 0
2767 1 17.65512320942753 8.615254674729483 5.755969879838344 0 1 0
442 1 24.071424321899187 7.758794018309313 5.612252102288284 0 0 0
1501 1 30.26287480694546 6.768952137634565 4.142704875088483 0 0 1
1222 1 35.30859789839444 8.388775752681209 4.042125550498373 0 0 0
382 1 40.16769111677736 6.904898631745367 3.403920537870074 0 0 0
411 1 44.21828451919421 7.728060014775227 2.5831665634346757 0 0 0
619 1 42.57845560642818 6.514423007181128 4.570641898868159 -1 0 0
226 1 46.70776906836481 7.3959153840115786 3.571150604551807 0 0 0
395 1 47.622100483983004 6.883085085620209 5.962851505016065 0 0 0
1948 1 1.058270183020762 10.863582137744144 4.051659439924928 1 0 1
19 1 3.5300088494801534 9.766519056366988 3.6242708469712195 0 0 0
1631 1 5.200495583537201 10.27702128661919 5.823129476697401 0 0 1
790 1 7.779675324710915 10.367390136819774 4.769929850618174 0 0 0
493 1 17.19981412016838 11.056646639137034 3.8641282852948775 0 0 0
2687 1 19.909901418749286 9.953110013218609 4.146948612309934 0 1 0
2493 1 21.8189434925935 11.796453594872734 4.810571600821963 0 1 0
2743 1 29.142926433991065 11.744366775737788 4.892419112438793 0 0 0
705 1 31.403493765601286 10.910211083319492 3.5732643052852175 0 0 0
247 1 33.3903585899762 9.975854769214795 5.255039092737811 0 0 0
1689 1 39.17845486626753 9.713208759973584 3.283353017475622 0 0 1
268 1 39.87692898575625 10.979863205295208 5.484090973260801 0 0 0
1450 1 43.100620013499025 10.267443094937791 2.8407947699144116 0 0 1
181 1 42.452875210529086 10.6827253592116 5.760641502839987 0 0 0
1970 1 47.50532470918286 12.31720978472895 3.605422786669486 -1 0 1
1911 1 50.2548418992734 8.173738012575456 6.45087570573717 -1 0 1
579 1 -0.47063515537538814 8.502693443057689 3.7149520975437538 1 0 0
1543 1 0.9804786288772145 12.552061041704071 6.022085400826554 0 0 1
323 1 5.141052174903246 14.861840132553208 5.90300087358938 0 0 0
2548 1 7.626963642477259 14.738033710624432 4.45808895150128 1 0 0
1976 1 9.179641728124379 12.681890399005127 5.424330852922838 0 0 1
198 1 11.60301858039379 12.986417238650711 4.548245476806962 0 0 0
343 1 12.62807173525148 15.511461590116635 4.752449624822442 0 0 0
540 1 15.651925920950394 12.425008370825681 5.460410656677252 0 0 0
516 1 19.534888121743183 14.867988976131791 3.4753405883165467 0 0 0
153 1 20.252035111002613 13.806181589240143 5.813881339374075 0 0 0
1695 1 24.917484705967055 13.789383976969226 4.8574754400474776 0 0 1
3881 1 27.21156639779337 13.232072142161224 3.5047541343652098 0 0 1
49 1 28.48390000524606 15.519854190855039 2.7941984589784807 0 0 0
2451 1 36.153012062563306 14.423853474834644 4.20588576471635 0 0 0
2063 1 40.536701525765054 14.847946569776495 3.5628251986723027 0 0 1
452 1 39.042172188301365 13.62770529504895 5.757377477192598 0 0 0
83 1 43.405658386149724 14.345070329792318 3.7319633324968198 0 0 0
1887 1 1.030719599634746 15.076436263518737 5.0590841740514545 1 0 1
46 1 3.3411962479631576 15.86792057659321 4.114449303874275 1 0 0
142 1 8.652374329100695 17.21075107881687 4.754379585418216 0 0 0
28 1 11.148834211103633 17.7572472559785 5.740922058098708 0 0 0
132 1 15.352428487637955 15.11160707340078 6.004205538335258 0 0 0
689 1 17.508036101060718 16.224311684230088 4.621859124500224 0 0 0
2729 1 22.476545948629255 17.837355594590914 3.5795139039544894 0 0 0
3495 1 23.643636064799978 16.02343389973512 5.406298811897358 0 0 1
538 1 27.543867004661134 17.35705922121023 4.738059573735185 0 0 0
192 1 31.132331705294046 15.583268408622978 4.596878741618159 0 0 0
531 1 33.81793272894711 16.162323331836316 4.687823248142837 0 0 0
279 1 35.160168259739564 18.393335447667422 3.5608915742976244 0 0 0
391 1 37.04808476885397 16.467628741347102 2.986581612230778 0 0 0
688 1 39.41418122303854 17.40379699590665 4.1273762722578695 0 0 0
361 1 46.62943304703185 17.657343751086945 3.1811469987006795 0 0 0
1880 1 48.20796667704751 17.134780797348604 5.531327233375606 0 0 1
398 1 50.19704802697778 15.97208532551237 3.679554824551297 -1 0 0
3701 1 0.851253887226006 20.122999896349608 3.738180585757223 0 0 1
357 1 3.584492655752638 18.67802211010004 4.108067977594275 1 0 0
335 1 4.443304168979828 18.85474859476552 6.851077228510298 0 0 0
4136 1 6.464954480277465 19.222603223061146 3.9317725279745357 0 0 1
2655 1 13.06031866223464 19.66741192725158 4.969693521438037 0 0 0
1029 1 18.620472938990456 18.44714911465591 5.785311917666519 0 0 0
2099 1 20.83610842850394 19.67386445695674 4.71718789081328 0 0 1
807 1 26.222571544846208 20.017963871582182 4.431333419990536 0 0 0
2071 1 29.114344281555635 20.236299873365382 4.667334272835971 0 0 1
609 1 42.255588103578376 19.408897891073213 2.8562910522126215 0 0 0
102 1 43.29349630435729 19.298401738095823 5.37096132970237 0 0 0
2115 1 46.017183621196025 19.651569071068245 5.364826992546853 -1 0 0
1359 1 -0.5424647107394254 20.90472082463464 5.925006837197715 0 0 0
2995 1 1.9572965940931941 24.626840839890846 4.083409104061283 0 0 0
3547 1 7.337726388124853 21.9831255081121 3.7440101587366863 0 0 1
3808 1 9.833240224401939 21.376178222136346 2.6580071045615656 0 0 1
448 1 10.99827379882107 21.492285968499036 5.268827791283294 0 0 0
2403 1 11.510271045738477 24.10533533913905 3.956713635268329 0 0 0
1996 1 13.426097597544477 24.333981680424664 6.085539358851961 0 0 1
607 1 17.556672153647717 22.375045238970664 4.660147190319666 0 0 0
4167 1 20.238494924962026 24.480406462374194 4.148747857332593 1 0 1
284 1 44.35147980276702 24.372733868602023 15.143046953982923 -1 0 0
1807 1 27.0380088466639 22.72003055707537 3.67202919626461 0 0 1
3026 1 28.16346089110077 -0.3919836514213023 15.027140951199447 0 1 0
2244 1 33.72321123661466 23.046920285439278 3.989843323232809 0 0 0
2590 1 35.015756420037675 20.927545178910062 5.579212914183681 -1 0 0
4075 1 38.21681920762566 22.556506519083385 5.025898202693344 0 0 1
2694 1 18.394311772928468 -0.5477046880785537 4.076309480552974 0 1 0
2487 1 40.82422983870454 23.282672735997366 5.5908912503582044 -1 0 0
1925 1 43.352569724992506 22.226595023316204 3.835710711414574 -1 0 1
1795 1 45.94712013005655 22.367697490154782 4.605435973287719 0 0 1
309 1 49.26496435097512 23.042901143353703 4.980776169234265 -1 0 0
2441 1 2.095968673392775 -0.2399429322112525 8.159982847604061 0 1 0
3590 1 -0.33171838672934706 0.1892757520911874 6.575509467783435 0 1 1
598 1 7.7790171259643035 0.15738890763953683 6.471787118267407 0 0 0
2816 1 9.547894637835075 0.7311566013499393 8.459706635656811 0 1 0
3197 1 12.22472965892124 1.295976819031197 7.302978568609025 0 1 0
2211 1 11.799143403289865 2.406417752259875 10.228987638091876 0 1 0
1667 1 14.476023772986064 2.1253145785780343 9.250624625049783 0 0 1
1429 1 16.931386804420686 -0.2760477210720506 6.495912977111815 0 0 1
2847 1 18.24951425072397 0.6771578709095758 8.640823880471714 0 1 0
93 1 32.26712723218152 24.223685928768603 10.100282153648056 0 0 0
2504 1 12.602471702921337 24.049511058173078 13.280964100073778 0 0 0
95 1 26.469349492435516 0.7832914163873252 9.076482649619287 0 0 0
751 1 29.884809735875706 1.3654864601128955 7.021485388642542 0 0 0
293 1 37.905334664556904 -0.21035335316374554 8.276774476430749 0 0 0
535 1 36.09105585820403 1.8327118117002827 8.491495953642413 0 0 0
1465 1 39.92183739955394 0.6194411880530977 6.653196338470138 0 0 1
2398 1 45.25672818888093 1.3140553218730107 8.359146652765677 0 1 0
1044 1 13.51561401427686 23.69851944068393 16.117899968717776 0 0 0
1067 1 39.96167833503483 23.796492757627277 14.804020470067767 0 0 0
2447 1 48.11137664843933 1.3868583903552714 7.658032629005346 -1 1 0
683 1 2.7845338029551905 2.719275930458748 8.11482881180851 0 0 0
2286 1 5.851975018249634 3.8738056108422736 8.32461051502195 0 1 0
2363 1 9.308496091362779 5.743810367291092 9.252411412392647 0 1 0
1565 1 16.363856029662642 6.406833084190548 4.995227416703454 0 0 1
810 1 18.924462574379703 3.1080482347296385 7.592330791904608 0 0 0
2406 1 22.70778573470893 3.8420180624320563 6.82793486604756 0 1 0
460 1 24.87950172343777 5.363534893066462 6.612315307756 0 0 0
916 1 25.752468835454295 3.326869350333232 10.054147575739346 0 0 0
625 1 26.752524083312235 5.453479209337845 8.71557633616082 0 0 0
2722 1 29.57837103511536 5.763731495567875 8.363540379872582 0 1 0
3087 1 31.03695704560509 3.719701963191243 7.5277623451253035 0 1 0
2149 1 34.817973663764334 2.3285841882154887 6.042286440249337 0 1 0
674 1 33.07769577894791 4.600603109215054 6.0448362869021715 0 0 0
164 1 41.02222208480845 3.0618428967130917 6.9835438358351185 0 0 0
621 1 39.620792325517954 5.250348376341889 7.545236400245985 0 0 0
73 1 45.3735527467001 4.035957625435581 7.454171684828058 0 0 0
723 1 47.77036106797169 3.908972389220528 5.830389122845542 0 0 0
626 1 0.5679558360893775 3.9514025799832257 8.524054618991565 0 0 0
222 1 1.5456375851903603 6.920847481809502 7.656868865447073 1 0 0
686 1 5.692188117084961 6.407227371900067 7.303455745815259 0 0 0
541 1 8.501135598700508 6.266717145992581 6.756709318463383 0 0 0
100 1 12.8020775014519 7.272125389106847 7.848250615478165 0 0 0
3231 1 20.75225847064894 7.212927345612854 9.233615993887238 0 1 0
1077 1 20.82257305598716 7.711432913393683 6.415332373360662 0 0 0
495 1 25.510860100705063 7.847570255163738 9.477606573627913 0 0 0
574 1 30.010456923003783 7.8378402423575775 6.654050141485996 0 0 0
201 1 32.472562966826246 8.598130297075873 7.249641305163412 0 0 0
838 1 34.30966542628808 6.638294093463088 7.15068948181186 0 0 0
464 1 36.88626847866746 7.454297836564939 6.132330431023776 0 0 0
353 1 40.76811286848677 7.918705428214102 8.19858363151381 0 0 0
320 1 38.64039604032118 9.384570858392925 7.30425007885247 0 0 0
458 1 43.05613692073375 8.240431735487007 6.635180428325377 -1 0 0
664 1 45.4930758250331 8.189967682135206 7.745472700113364 -1 0 0
1061 1 -0.3440166194947307 9.847772130234103 8.858538523932781 1 0 0
134 1 5.425471268452066 8.860845431377442 8.158446283079849 0 0 0
195 1 11.53009503463756 9.490649820207647 7.494321209376755 0 0 0
321 1 10.080305218900127 10.454403833105863 9.53790777962462 0 0 0
2167 1 13.205102110729047 10.87501571711402 5.528393088475134 0 0 0
497 1 17.085121610283334 9.27327184095565 8.441774909506611 0 0 0
2313 1 16.283572726638113 11.86396100835886 8.156901379930076 0 1 0
606 1 22.386348677647646 10.066716983671023 6.9830171166826265 0 0 0
483 1 25.404799457654068 9.625957909661764 7.252914187693596 0 0 0
2427 1 24.702822268512456 12.399085136902176 7.531080141903097 0 0 0
1298 1 28.068428465060165 9.807402058563016 6.534937971249847 0 0 0
605 1 28.40429539608457 10.740351827719229 8.855755459658512 0 0 0
1240 1 39.21656599710309 12.774922082871573 10.069818279424878 0 0 0
327 1 46.51062306005353 10.462762683316978 8.792242125951809 0 0 0
498 1 47.12331372768149 12.349582578845961 6.472464953673822 0 0 0
186 1 50.542927046054515 14.5693401927421 8.654130911090661 -1 0 0
657 1 3.726430877781487 12.602909285724918 6.721006285066644 0 0 0
376 1 3.569114840585142 12.420814277230493 9.573124877894827 0 0 0
1918 1 9.59365700935537 12.823423111762475 8.213485024207525 0 0 1
687 1 11.696431285373706 14.051170313529658 8.564685816992483 0 0 0
352 1 18.7730055301335 13.04741602497458 8.193935305655678 0 0 0
117 1 22.92201462720995 13.486626537481289 9.381479387126133 0 0 0
283 1 26.851851300261295 13.023813767547999 9.061129451553969 0 0 0
241 1 30.203514089342267 13.738120912795852 6.277847386535668 0 0 0
306 1 31.949153059894687 13.150944422793115 8.175243026238062 0 0 0
413 1 34.172963654744265 12.443067656969024 6.774997148275353 0 0 0
162 1 36.36810747220791 14.153683271474591 7.268790960249632 0 0 0
121 1 36.43395999600857 13.589312643551718 10.04177841079609 0 0 0
419 1 40.449967032093724 14.010279394281053 7.870859373395062 0 0 0
1850 1 43.889972092085884 14.559409115695981 6.285798736953816 -1 0 1
2664 1 42.846745748166526 12.511261593281018 7.485835804048062 0 1 0
2569 1 46.72642018289589 15.05424849791272 6.955420879496745 -1 0 0
616 1 49.85147624278714 12.067257386558495 7.607029257185603 -1 0 0
32 1 0.625170864322157 16.620891154662335 7.445194620815478 0 0 0
1960 1 2.515745853817946 17.90213396910445 8.741195759004793 0 0 1
355 1 5.8632468135000195 15.70123071195204 8.426183789989292 0 0 0
170 1 6.992839166375645 17.894531467646043 7.009405354091866 0 0 0
1070 1 11.915480500588517 16.872220351199456 8.301072093269237 0 0 0
1761 1 14.401706964696682 18.145698536187098 8.992942433772951 0 0 1
3114 1 15.309229267617441 15.5438828605437 8.707671339817546 0 0 0
1262 1 17.962884711404463 15.436130784378875 9.59914562188452 0 0 0
79 1 19.523926928952378 17.11870326497807 8.211539952136397 0 0 0
367 1 21.91098015458367 15.35038309540761 7.640286749078271 0 0 0
2 1 25.751203054282346 16.870055215304692 6.677010614992097 0 0 0
1783 1 27.94507330489695 15.141138732357025 7.707445200221832 0 0 1
2457 1 30.376927061088907 17.944060134574713 5.938905740900141 0 0 0
490 1 32.54230472295521 15.7653240975716 9.269792288878682 0 0 0
461 1 29.8616219821292 16.930384281161842 8.383381443698761 0 0 0
22 1 33.355127438551094 17.559046208237344 7.204030542080604 0 0 0
2636 1 36.0387589559445 16.921700807401983 7.578736312088877 0 0 0
2246 1 38.73792382657874 17.570487098097612 6.828242949292371 0 0 0
346 1 40.79896831514799 16.67537661011143 8.30454290832927 0 0 0
1523 1 43.20458268245716 17.05979219638884 7.217011866220436 0 0 1
360 1 46.453286294100636 15.334040247544017 9.68988425659257 0 0 0
871 1 1.503048379013999 20.077713567996998 9.989070762625902 1 0 0
301 1 4.204099928887847 21.09862692300889 9.669036513961009 0 0 0
2362 1 8.458687454388762 19.37070095584503 8.75803990505606 0 0 0
2194 1 14.6095496580093 20.221550709100494 7.131515044255047 0 0 0
570 1 17.379513526266926 20.573963499716832 7.080178114471344 0 0 0
697 1 18.594006169316717 20.153366580417593 9.625011498853873 0 0 0
1 1 22.591983518636358 20.78073383326021 6.684716997734172 0 0 0
379 1 21.33333152527273 20.39491675935518 9.217281586299125 0 0 0
424 1 25.220729513053907 19.713490922130024 7.29270049617343 0 0 0
229 1 27.90514076650585 20.906431912917256 7.2154289969508 0 0 0
2809 1 28.578443294254804 19.14951391590431 9.233580629561487 0 0 0
152 1 30.807546693169556 22.050215161883404 5.759183587346996 0 0 0
175 1 32.846482988268676 20.592181093533878 7.23577605310523 0 0 0
417 1 38.04402574314636 20.83343782459849 9.871904674143872 0 0 0
462 1 38.67300505821778 20.29788493969175 7.004909871424135 0 0 0
189 1 41.606818424879094 20.939845651886237 6.957786246774431 -1 0 0
2699 1 47.194747269342855 20.267399062637033 7.857101939489391 0 0 0
2258 1 49.69250183893894 18.891141055741578 7.399497263320849 0 0 0
544 1 48.75952777561044 18.224190775933767 9.992020605120949 -1 0 0
2761 1 2.6582860587210395 23.65273539050525 6.644114029405201 1 0 0
2230 1 0.9089893553766573 21.973693506255408 8.039784244645652 0 0 0
2269 1 4.753890147215274 21.855811677899247 6.994323890080265 0 0 0
3863 1 7.0251531057011105 23.08149266972584 6.313062403274712 0 0 1
860 1 9.206374830017186 21.868890093170076 7.150179383798528 0 0 0
463 1 37.40625878780433 21.981105731623394 14.614525140106629 0 0 0
950 1 10.536240472360246 21.943412739879093 9.707526403905767 0 0 0
2338 1 13.125785399506208 22.364876857175567 7.974867042393338 0 0 0
1013 1 16.08084952722668 18.81505859903351 16.145462969697785 0 0 0
110 1 17.70404320128977 23.450315476969905 7.41722725577139 0 0 0
2160 1 22.690874263533114 23.653830439370164 7.521480046065914 0 0 0
1174 1 35.03839919474866 22.962241353689567 13.051456524000677 -1 0 0
2602 1 28.284193611244 23.89827588189904 7.206270312787325 0 0 0
2654 1 32.0213574091226 24.69878376125377 5.3776644973082215 0 0 0
2608 1 36.396446890469875 22.967695435612228 9.63246287946437 0 0 0
1412 1 42.02494811824961 24.633251771074193 2.8439068529365623 0 0 1
425 1 42.92098627633216 21.688114261090043 9.085222304627603 0 0 0
681 1 47.81650972819446 23.124804523421137 7.252923747633413 0 0 0
429 1 50.244822024062756 23.42605041386254 9.251491931413522 -1 0 0
18 1 0.7049791089829469 2.319070131725137 12.796731190849972 0 0 0
509 1 2.372870770110027 0.2551711653074157 12.987729983085817 0 0 0
193 1 4.578738915244426 2.0158425655765435 12.699222985363892 0 0 0
2288 1 6.6429097461899005 0.38499532493535504 12.019850653186312 0 1 0
316 1 8.40091953829705 3.193085827895016 9.77469906983978 0 0 0
2791 1 11.687740185194007 0.9940189463937068 12.559856892734137 0 1 0
387 1 16.27113442299645 0.41783261075399647 10.506767924521727 0 0 0
15 1 16.3954734729714 1.9068449431542427 12.799063030491526 0 0 0
580 1 21.972667836914475 1.4563485549344088 11.095485420262381 0 0 0
2669 1 35.84224236823425 23.661025464565927 6.922402481232251 0 0 0
2909 1 28.53843901230043 0.3924186382193544 11.050461559086779 0 1 0
1716 1 33.96887945702403 1.1162105742644128 10.191480153578171 0 0 1
624 1 35.062351665811875 0.689034324944058 12.59816575705135 0 0 0
451 1 40.45880686083292 1.6824609535960469 11.212503372101756 0 0 0
1492 1 44.58111656528462 1.7543889278723839 11.283839742417566 0 0 1
1086 1 49.40830157920789 2.9861907301151684 9.775800015054859 0 0 0
2785 1 49.37973914402838 1.6178939219373811 12.146000713512459 0 1 0
257 1 1.5878626783346896 4.333588871845021 11.254664767534715 0 0 0