
# Create simulation box of size 50 x 50 x 50 Angstrom
#
lattice	            sc 1
Lattice spacing in x,y,z = 1.0000000 1.0000000 1.0000000
region 	            all block 0 50 0 50 0 50 units box
create_box          1 all
Created orthogonal box = (0.0000000 0.0000000 0.0000000) to (50.000000 50.000000 50.000000)
  1 by 2 by 3 MPI processor grid

# fill box with 4175 randomly distributed atoms
#
create_atoms        1 random 4175 63782 all
Created 4175 atoms
  create_atoms CPU = 0.001 seconds
mass                1 18.015

# Define potential
#
pair_style          sw
pair_coeff          * * ML_mW.sw mW
Reading sw potential file ML_mW.sw with DATE: 2019-02-27

# Run minimization
#
minimize            1.0e-8 1.0e-8 10000 1000
WARNING: Using 'neigh_modify every 1 delay 0 check yes' setting during minimization (../min.cpp:187)
Neighbor list info ...
  update every 1 steps, delay 0 steps, check yes
  max neighbors/atom: 2000, page size: 100000
  master list distance cutoff = 6.0032907
  ghost atom cutoff = 6.0032907
  binsize = 3.0016454, bins = 17 17 17
  1 neighbor lists, perpetual/occasional/extra = 1 0 0
  (1) pair sw, perpetual
      attributes: full, newton on
      pair build: full/bin/atomonly
      stencil: full/bin/3d
      bin: standard
Per MPI rank memory allocation (min/avg/max) = 4.255 | 4.258 | 4.261 Mbytes
Step Temp E_pair E_mol TotEng Press 
       0            0    7792709.3            0    7792709.3    5898794.3 
     630            0   -45180.336            0   -45180.336   -154.07449 
Loop time of 1.13358 on 6 procs for 630 steps with 4175 atoms

98.9% CPU use with 6 MPI tasks x no OpenMP threads

Minimization stats:
  Stopping criterion = max force evaluations
  Energy initial, next-to-last, final = 
      7792709.32924461  -45180.0188663597   -45180.336116598
  Force two-norm initial, final = 2.0191930e+08 4.9721331
  Force max component initial, final = 1.0948746e+08 0.73126211
  Final line search alpha, max atom move = 0.053306038 0.038980685
  Iterations, force evaluations = 630 1000

MPI task timing breakdown:
Section |  min time  |  avg time  |  max time  |%varavg| %total
---------------------------------------------------------------
Pair    | 0.87402    | 0.97914    | 1.0478     |   6.0 | 86.38
Neigh   | 0.023777   | 0.024363   | 0.024833   |   0.2 |  2.15
Comm    | 0.042031   | 0.11071    | 0.21664    |  17.9 |  9.77
Output  | 0          | 0          | 0          |   0.0 |  0.00
Modify  | 0          | 0          | 0          |   0.0 |  0.00
Other   |            | 0.01937    |            |       |  1.71

Nlocal:        695.833 ave         704 max         685 min
Histogram: 1 1 0 0 1 0 0 1 0 2
Nghost:        1494.17 ave        1515 max        1468 min
Histogram: 1 1 0 0 0 0 1 1 1 1
Neighs:        0.00000 ave           0 max           0 min
Histogram: 6 0 0 0 0 0 0 0 0 0
FullNghs:      19997.0 ave       20462 max       19320 min
Histogram: 1 1 0 0 0 0 0 2 0 2

Total # of neighbors = 119982
Ave neighs/atom = 28.738204
Neighbor list builds = 26
Dangerous builds = 0

# Add velocity/set timestep
#
velocity            all create ${TEMP} 120598 rot yes dist gaussian
velocity            all create 210 120598 rot yes dist gaussian
timestep            5.0

# Define output
#
compute	            1 all msd
thermo	            100
thermo_style        custom step temp press vol etotal ke pe c_1[4] density

# Neighbor lists
#
neigh_modify        delay 0 every 1 check yes

# Set fixes
#
fix                 1 all momentum 10 linear 1 1 1 rescale
fix                 2 all nve
fix                 3 all temp/csvr ${TEMP} ${TEMP} 500.0 928347
fix                 3 all temp/csvr 210 ${TEMP} 500.0 928347
fix                 3 all temp/csvr 210 210 500.0 928347
fix                 4 all press/berendsen iso ${PRES} ${PRES} 1000.0 modulus 20000
fix                 4 all press/berendsen iso 150 ${PRES} 1000.0 modulus 20000
fix                 4 all press/berendsen iso 150 150 1000.0 modulus 20000

# Run 0.5 ns equilibration
#
dump                1 all custom 1000 eq.${NAME}.dump id type x y z vx vy vz
dump                1 all custom 1000 eq.liquid_density_MLmW.dump id type x y z vx vy vz
run                 100000
Per MPI rank memory allocation (min/avg/max) = 3.506 | 3.508 | 3.511 Mbytes
Step Temp Press Volume TotEng KinEng PotEng c_1[4] Density 
     630          210    801.42152       125000   -42567.537    2612.7992   -45180.336 2.7295415e-33   0.99914793 
     700    134.23631    103.24761    125328.36    -41766.46    1670.1549   -43436.615    0.2426043   0.99653013 
     800    165.79412    38.624829     125340.3   -41044.476     2062.794    -43107.27   0.56721102   0.99643524 
     900    184.25203    309.98824    125127.44   -40644.144    2292.4456    -42936.59   0.96924299   0.99813028 
    1000    192.83859    312.34727     125017.1    -40395.62    2399.2787   -42794.899    1.3521647   0.99901123 
    1100    201.84702    514.35852    125146.21   -40225.158    2511.3607   -42736.519    1.7214148   0.99798061 
    1200     203.8018    222.94825    125206.51   -40269.892    2535.6818   -42805.574    2.0619473       0.9975 
    1300    206.07277    66.413565    125240.51   -40256.817     2563.937   -42820.754    2.3882823   0.99722921 
    1400    204.22533    298.54066    125190.74   -40266.994    2540.9514   -42807.945    2.6948149   0.99762564 
    1500    209.98795    201.97415    125178.07   -40220.086    2612.6493   -42832.735    3.0075535    0.9977266 
    1600      210.895    278.45222    125342.41   -40142.703    2623.9348   -42766.638    3.3499414   0.99641846 
    1700    207.80973     167.8964    125356.11    -40162.28    2585.5481   -42747.828    3.7700865    0.9963096 
    1800    207.19082    236.81038    125519.96   -40250.652    2577.8476     -42828.5    4.0712214   0.99500904 
    1900    211.03179    299.65424    125484.57   -40255.238    2625.6367   -42880.874    4.4495103   0.99528966 
    2000    210.17698     77.05655    125827.87   -40224.872    2615.0012   -42839.873     4.762272   0.99257413 
    2100    214.61802    48.539748    125739.23   -40191.826    2670.2562   -42862.082    4.9700099   0.99327388 
    2200    208.99433    295.51292    125805.43   -40232.706    2600.2868   -42832.993    5.1696126   0.99275119 
    2300    210.18875    268.08161    125911.59   -40231.592    2615.1477   -42846.739    5.4838333   0.99191418 
    2400    216.25984    178.83263       126036   -40276.665    2690.6836   -42967.349    5.7890548   0.99093508 
    2500    213.32524    117.73565    126073.58   -40248.315    2654.1715   -42902.487    6.1053563   0.99063966 
    2600    219.97528    273.68751    126061.12   -40213.935    2736.9107   -42950.845    6.4355715   0.99073763 
    2700    216.87022    132.05341    126170.23    -40255.27    2698.2778   -42953.548    6.6210714   0.98988085 
    2800    216.49116     54.29645    126062.66   -40240.943    2693.5616   -42934.504    6.7848299    0.9907255 
    2900     208.7655    92.740877    126051.22    -40324.44    2597.4397   -42921.879    7.0010936   0.99081541 
    3000     212.5334    167.80218    126297.26   -40363.352    2644.3196   -43007.671    7.2592984   0.98888519 
    3100     214.7075    216.79704    126469.39   -40363.117    2671.3695   -43034.487    7.5572017   0.98753925 
    3200     211.6455    237.42399    126422.02   -40412.841    2633.2724   -43046.113    7.7817035   0.98790935 
    3300    214.22308    317.10978    126674.14   -40429.327    2665.3424   -43094.669    8.0475297   0.98594308 
    3400    210.82844     26.53092    126733.82   -40476.516    2623.1066   -43099.623    8.1839799   0.98547881 
    3500    209.74988    175.16681     126666.4   -40521.071    2609.6873   -43130.759    8.3775537   0.98600333 
    3600    204.98475    183.35986    126641.46    -40557.75       2550.4    -43108.15    8.5875087   0.98619747 
    3700        206.7    104.49382     126785.7   -40611.219     2571.741    -43182.96    8.6784269    0.9850755 
    3800     208.7958    24.206365    126799.51   -40570.504    2597.8167   -43168.321    8.8147678   0.98496825 
    3900    209.21142    59.674384    126707.74   -40600.224    2602.9878   -43203.212    8.9893279   0.98568166 
    4000    206.64201    68.961201     126822.3   -40595.705    2571.0194   -43166.724     9.151501   0.98479126 
    4100    205.81674    394.89705    126884.34   -40588.849    2560.7515     -43149.6     9.470603   0.98430972 
    4200    207.97568    112.13417    126969.39   -40601.472    2587.6129   -43189.085    9.6832508   0.98365044 
    4300    212.95707      111.816    127024.41   -40606.846    2649.5908   -43256.437    10.056984   0.98322433 
    4400    209.55329    192.53337    127135.37   -40592.767    2607.2413   -43200.009    10.286991   0.98236618 
    4500    213.36553    356.95251    127274.29    -40596.85    2654.6729   -43251.523    10.467905   0.98129399 
    4600    209.88692   -68.857726    127141.77   -40663.115    2611.3924   -43274.507    10.631503   0.98231673 
    4700    216.55891    181.68516    127265.84   -40596.794    2694.4046   -43291.199    10.718744   0.98135913 
    4800    211.24098    274.59599    127475.46   -40670.229    2628.2394   -43298.469     10.91323   0.97974538 
    4900    211.06999    222.80392    127343.27   -40570.785    2626.1119   -43196.897    11.060319   0.98076243 
    5000    217.32476    136.35056    127554.36   -40527.275    2703.9332   -43231.208    11.316084   0.97913936 
    5100     211.9179    36.239826    127651.47   -40603.861    2636.6615   -43240.522    11.413821   0.97839444 
    5200    206.28334     109.6096    127580.89   -40648.931    2566.5569   -43215.488    11.608855   0.97893576 
    5300    210.91812    81.883043    127426.18   -40624.943    2624.2224   -43249.166    11.736911   0.98012424 
    5400    209.62744    165.43642     127585.1   -40660.111    2608.1638   -43268.275    11.994034   0.97890339 
    5500    208.82628    24.908765    127551.68   -40674.077     2598.196   -43272.273    12.148127   0.97915993 
    5600    212.29691    55.785473    127515.45   -40695.476    2641.3771   -43336.853    12.265195   0.97943813 
    5700    209.81365    170.70369    127480.49   -40714.156    2610.4807   -43324.636    12.426926   0.97970672 
    5800    207.04883    184.69806    127748.61   -40765.954    2576.0811   -43342.036    12.557154    0.9776505 
    5900    206.74378    121.32594    127793.97   -40806.451    2572.2856   -43378.737    12.803467   0.97730348 
    6000    209.00839    300.27544     127615.8   -40812.792    2600.4618   -43413.254    12.918519   0.97866794 
    6100     211.5503    252.89489    127765.41   -40764.725     2632.088   -43396.813    12.997435    0.9775219 
    6200    206.85992    174.45658    127924.93   -40827.343    2573.7306   -43401.074    13.181723   0.97630302 
    6300    210.71563     166.5904    127782.72   -40805.612     2621.703   -43427.315    13.281757   0.97738949 
    6400    210.60019    244.25696    128047.02   -40789.002    2620.2668   -43409.269    13.422319   0.97537212 
    6500     210.7628    19.385492    128245.39   -40746.936      2622.29   -43369.226    13.557602   0.97386338 
    6600    211.18346    321.42587    128377.42   -40835.046    2627.5238    -43462.57     13.56184    0.9728618 
    6700    205.38479    120.10193    128377.78   -40899.144    2555.3773   -43454.522    13.602351   0.97285908 
    6800    210.80511     159.0645     128338.5   -40824.365    2622.8163   -43447.181    13.732724   0.97315682 
    6900    211.39919     111.2479    128522.17   -40759.719    2630.2078   -43389.927    14.098201   0.97176611 
    7000    212.53783    33.918921    128551.77   -40763.633    2644.3746   -43408.007    14.154884   0.97154237 
    7100    212.55936    272.51657    128937.21   -40796.482    2644.6425   -43441.125    14.318375   0.96863811 
    7200    212.98735    69.836141    128631.28    -40857.21    2649.9675   -43507.177    14.214611   0.97094187 
    7300    207.57391    79.479981    128409.31   -40916.798    2582.6141   -43499.413     14.18487    0.9726202 
    7400    206.28441   -50.829345    128475.46   -40953.852    2566.5702   -43520.422    14.441337   0.97211943 
    7500    204.61484    370.07836    128423.58   -40911.255    2545.7977   -43457.052    14.503023   0.97251213 
    7600    202.58911    8.7735057    128443.64   -40989.509    2520.5936   -43510.103     14.47071   0.97236024 
    7700    209.25631    194.61624    128427.64   -40895.918    2603.5463   -43499.464    14.543863   0.97248141 
    7800    207.20464    102.82422    128530.57   -40868.767    2578.0197   -43446.787    14.602734   0.97170262 
    7900    207.25986    21.029465     128566.2   -40915.989    2578.7067   -43494.696    14.722609   0.97143335 
    8000    209.93118      43.2133    128442.46   -40893.845    2611.9429   -43505.788    14.919123   0.97236921 
    8100    206.63171    217.78313    128331.12   -40962.812    2570.8913   -43533.703    14.933077   0.97321283 
    8200    208.44437    76.596218    128406.99   -40971.327    2593.4442   -43564.772    15.045757   0.97263782 
    8300    207.30845    184.73796    128203.63   -40957.473    2579.3112   -43536.785    15.146095   0.97418059 
    8400    212.97763    74.500267    128242.17   -40902.285    2649.8466   -43552.132    15.338638   0.97388786 
    8500    213.45996    236.69521    128410.26   -40837.988    2655.8477   -43493.836    15.428762   0.97261305 
    8600     210.4158    187.10761    128401.77   -40849.851    2617.9726   -43467.824    15.595518   0.97267732 
    8700    211.20171     23.99863    128371.52    -40836.24    2627.7508    -43463.99     15.72546   0.97290654 
    8800    206.97844    70.657235       128356    -40868.32    2575.2053   -43443.525    15.664481   0.97302421 
    8900    203.69779    342.67927    128414.03   -40945.575    2534.3878   -43479.962    15.751215   0.97258446 
    9000    208.83708    208.34249    128527.89   -40900.078    2598.3303   -43498.408    15.871952   0.97172285 
    9100    206.35563    262.40604    128500.92    -40966.82    2567.4564   -43534.276    16.023597   0.97192686 
    9200      208.178    251.33241    128621.15   -40870.601    2590.1301   -43460.731     16.25225   0.97101831 
    9300    209.49745   -30.901132    128461.88   -40924.311    2606.5466   -43530.857    16.360652    0.9722222 
    9400    210.67634    102.71889    128465.62   -40885.867    2621.2141   -43507.081    16.486607   0.97219388 
    9500    208.58086     247.9696    128585.25   -40899.795    2595.1425   -43494.938    16.582773    0.9712894 
    9600    207.35724    215.38804    128541.04   -40868.016    2579.9183   -43447.934    16.814477    0.9716235 
    9700    217.75721    121.92683    128397.54   -40808.205    2709.3137   -43517.519    16.858351   0.97270938 
    9800    209.07158     220.4961    128492.88   -40902.069    2601.2479   -43503.317     16.98075   0.97198767 
    9900    208.36282    159.00945    128414.76   -40962.998    2592.4297   -43555.428    17.172787   0.97257893 
   10000    209.08331    137.26591    128547.33   -40957.375    2601.3939   -43558.769    17.255134   0.97157592 
   10100    210.52436    224.28372    128664.45   -40931.496    2619.3232   -43550.819    17.380532   0.97069155 
   10200    205.87562     127.2324    128860.31   -40996.377    2561.4841   -43557.861    17.740255   0.96921616 
   10300    207.93229    227.01177    128838.43    -40995.83    2587.0731   -43582.903     17.85326   0.96938074 
   10400    208.13627    182.31914    129001.91   -40951.999    2589.6109    -43541.61    18.034317   0.96815223 
   10500    211.07316    224.96743    128924.67   -40934.849    2626.1513       -43561    18.143402   0.96873227 
   10600    209.66093    29.405962    128989.64   -40879.592    2608.5806   -43488.173    18.123117   0.96824436 
   10700    213.66428    19.722952    129026.41    -40867.02    2658.3899    -43525.41     18.16863   0.96796845 
   10800    216.01906    155.91248    129210.88   -40860.314    2687.6878   -43548.001     18.31193   0.96658648 
   10900    213.53774     175.5212    129247.81   -40893.317    2656.8155   -43550.133    18.451067   0.96631033 
   11000     215.0522    197.30988    129258.56   -40891.852    2675.6582   -43567.511    18.568463   0.96622992 
   11100    210.73015   -5.1716538    129012.35   -40928.727    2621.8837   -43550.611    18.770193   0.96807392 
   11200    210.71392     207.6514     129124.4   -40915.442    2621.6818   -43537.123     18.77534   0.96723384 
   11300    212.21407    135.68616    129002.65   -40912.725    2640.3465   -43553.071    18.730328   0.96814674 
   11400    208.26657    240.75465    128933.88   -40929.036    2591.2321   -43520.268     18.74483   0.96866306 
   11500    209.42763    249.18753    128985.49   -40955.774    2605.6779   -43561.452    18.863651    0.9682755 
   11600    207.65086    50.199318     129084.6    -40967.21    2583.5714   -43550.781    19.064197   0.96753207 
   11700    214.11257    206.45886    129244.43   -40881.466    2663.9675   -43545.433    19.297615    0.9663356 
   11800     207.8015    396.21365    129138.21    -40944.87    2585.4458   -43530.315    19.386344    0.9671304 
   11900    207.89262    245.53626    129228.33   -40961.063    2586.5794   -43547.643    19.504145   0.96645598 
   12000    210.74472    51.198965    129413.24   -40970.859    2622.0649   -43592.924    19.725791    0.9650751 
   12100    207.81277    326.10868    129346.23   -40949.513     2585.586   -43535.099    19.849933   0.96557502 
   12200    212.52759    112.75874    129430.55   -40958.985    2644.2472   -43603.232    19.848083   0.96494602 
   12300    208.00959     240.8304    129270.36   -40969.379    2588.0348   -43557.414    19.844215   0.96614177 
   12400    212.88442     233.9807    129340.46   -40961.262     2648.687   -43609.949    20.002401   0.96561811 
   12500    209.43406    296.34718     129353.8   -41057.432    2605.7579    -43663.19    20.213142   0.96551853 
   12600    210.48945    255.20207    129632.07   -40983.411    2618.8889     -43602.3    20.306589   0.96344593 
   12700    213.66525    321.85338    129754.99   -40965.539    2658.4019    -43623.94    20.433665   0.96253327 
   12800    211.33747    254.23725    129799.76   -40965.234    2629.4399   -43594.673    20.510867   0.96220123 
   12900     210.1908    123.13725    129579.87   -41034.825    2615.1732   -43649.998    20.516549   0.96383407 
   13000    213.73068    167.62106    129605.79   -40997.517     2659.216   -43656.733    20.567767   0.96364126 
   13100    214.96294    232.75732    129687.25   -41000.236    2674.5477   -43674.783    20.669289     0.963036 
   13200    217.11691    58.870978    129736.64   -40941.622    2701.3471    -43642.97    20.799376   0.96266938 
   13300    215.86138    296.96472    129830.91   -40996.447     2685.726   -43682.173    21.000136   0.96197042 
   13400    205.33223     143.1292    129803.61   -41068.542    2554.7234   -43623.265    21.047494   0.96217269 
   13500    207.36296    203.70174    129796.03   -41097.471    2579.9895   -43677.461    21.096607    0.9622289 
   13600    210.01871    290.74124    129740.42   -41120.274     2613.032   -43733.306    21.153841   0.96264136 
   13700    211.08587    102.54133    129878.48   -41117.308    2626.3095   -43743.618     21.20184   0.96161805 
   13800    211.61545    177.81865     129926.1   -41033.521    2632.8985   -43666.419    21.295821   0.96126559 
   13900    209.64682    133.47397    130041.09    -41066.48     2608.405   -43674.885    21.520894   0.96041558 
   14000    211.53559    59.051664    130408.39   -41049.458    2631.9049   -43681.363    21.519625   0.95771059 
   14100    208.32314    388.50765    130251.68   -41054.721    2591.9359   -43646.657    21.662645   0.95886277 
   14200    206.60449    130.25228    130191.86    -41097.81    2570.5526   -43668.362    21.870271    0.9593034 
   14300    205.01389   -2.4554752    130334.43   -41134.136    2550.7625   -43684.899      21.8506     0.958254 
   14400    210.19298    154.11252    130167.57   -41115.796    2615.2003   -43730.997     21.81097   0.95948242 
   14500     209.8203    71.689177    130233.01   -41056.801    2610.5634   -43667.364    21.904723    0.9590003 
   14600    210.99659   -42.366259     130341.3   -41071.027    2625.1987   -43696.226    22.008505   0.95820351 
   14700    210.27001    260.37755    130446.47   -41113.787    2616.1587   -43729.946    22.176665     0.957431 
   14800    210.37451    110.56232    130476.47   -41167.658    2617.4588   -43785.117    22.209721   0.95721082 
   14900    208.78642    88.418479    130407.74    -41251.24       2597.7    -43848.94    22.158529   0.95771529 
   15000    207.89999    165.16557    130527.83   -41259.813    2586.6711   -43846.484    22.137016   0.95683421 
   15100    203.14367    240.61486     130457.8   -41286.265    2527.4935   -43813.759    22.309815   0.95734783 
   15200    208.80387    239.22013    130484.47   -41216.258    2597.9171   -43814.175    22.383821   0.95715215 
   15300    208.13303    213.48235    130461.82   -41228.527    2589.5705   -43818.097     22.42717   0.95731836 
   15400    206.04333    149.03955    130592.69   -41217.112    2563.5707   -43780.683    22.435207   0.95635899 
   15500    206.17923    155.35693    130638.33   -41192.328    2565.2615    -43757.59     22.55416   0.95602486 
   15600    208.97316    248.47058    130552.05   -41138.413    2600.0234   -43738.437    22.578981   0.95665665 
   15700    207.42816    104.25041     130483.5   -41219.042    2580.8007   -43799.843    22.616222   0.95715928 
   15800    207.56183    152.61288    130436.35   -41213.899    2582.4637   -43796.363    22.677375   0.95750527 
   15900    207.22335    241.83801    130540.13   -41255.602    2578.2525   -43833.854    22.910037   0.95674401 
   16000    207.92279    60.313281    130504.68   -41199.268    2586.9548   -43786.223    23.002093   0.95700393 
   16100    211.35007    136.73471    130467.67   -41149.502    2629.5967   -43779.099    23.031481   0.95727542 
   16200    209.94833    270.75305     130400.6   -41216.563    2612.1563   -43828.719    23.079356   0.95776775 
   16300    208.43639    199.31382    130434.46   -41230.162    2593.3449   -43823.507    23.123426   0.95751916 
   16400    211.67449    228.83513    130437.09   -41143.126    2633.6331   -43776.759    23.049561   0.95749986 
   16500    212.65331    152.27398    130356.35   -41129.054    2645.8115   -43774.866     23.14667   0.95809287 
   16600    208.91942    43.962805    130432.98   -41121.736    2599.3547    -43721.09     23.35102   0.95753003 
   16700    207.47528    146.74686    130434.97   -41143.698    2581.3869   -43725.085    23.377312   0.95751542 
   16800    213.00536    125.29868     130573.5   -41144.889    2650.1916   -43795.081    23.491043    0.9564995 
   16900    211.06378    235.71753     130536.1   -41113.413    2626.0347   -43739.447    23.492902   0.95677356 
   17000    213.24092    253.06918    130552.46   -41124.012    2653.1224   -43777.134    23.492574   0.95665365 
   17100    213.72721    204.72171    130587.37   -41041.241    2659.1728   -43700.414    23.519712   0.95639795 
   17200    209.89737    281.94674    130860.22   -41052.317    2611.5223   -43663.839    23.778846   0.95440381 
   17300    211.87167    217.52841    130809.42   -41106.504    2636.0864   -43742.591    23.864417   0.95477441 
   17400    207.27218    129.69901    130710.13   -41132.384    2578.8599   -43711.244    24.021532    0.9554997 
   17500    212.19595    158.52927    130909.26   -41127.999     2640.121    -43768.12    24.027815   0.95404624 
   17600    212.08324     87.41549    130840.06   -41112.598    2638.7187   -43751.316    23.966207   0.95455087 
   17700    211.76552    216.31972    130801.66   -41129.189    2634.7656   -43763.955    24.076217   0.95483107 
   17800    210.06062    95.368954    130800.41   -41144.121    2613.5535   -43757.675      24.2901   0.95484019 
   17900    213.78392    70.922473    130843.22    -41112.23    2659.8784   -43772.109    24.266509    0.9545278 
   18000    211.67228    74.295295    130610.47   -41062.236    2633.6055   -43695.842    24.395435   0.95622882 
   18100    214.01209    126.19035       130667   -41152.169    2662.7172   -43814.886    24.523365   0.95581512 
   18200    209.12339    171.72872    130757.47   -41158.262    2601.8926   -43760.155    24.597069   0.95515378 
   18300    215.83695    29.039717    130830.97   -41076.836     2685.422   -43762.258    24.651106    0.9546172 
   18400    215.17971   -6.8985777    130743.24   -41139.643    2677.2447   -43816.887    24.752966   0.95525773 
   18500    212.83277    298.02638    130701.89    -41105.04    2648.0443   -43753.085    24.715865   0.95555997 
   18600     209.6261    239.99847    130572.39   -41160.234    2608.1472   -43768.381    24.877631   0.95650765 
   18700    211.94795     99.95964     130579.2   -41132.613    2637.0354   -43769.648    25.068886   0.95645777 
   18800    209.99951    267.48657    130584.91   -41105.416    2612.7931    -43718.21    25.297342   0.95641594 
   18900    209.44648    157.84309    130786.35   -41133.592    2605.9124   -43739.504    25.341662   0.95494282 
   19000    208.77991    257.79061    130711.23    -41122.82     2597.619   -43720.439    25.424103   0.95549165 
   19100    207.11741    199.91643    130723.04   -41182.013    2576.9344   -43758.948    25.389667   0.95540535 
   19200    211.01507     126.5742     130697.1   -41155.437    2625.4287   -43780.865    25.462804   0.95559496 
   19300    217.05169    89.220899    130828.74   -41116.048    2700.5357   -43816.583    25.531867   0.95463343 
   19400    210.62656    168.99781    130872.44   -41132.119    2620.5948   -43752.714    25.730268   0.95431469 
   19500    213.07124     79.13314    130938.68   -41134.488    2651.0113     -43785.5      25.7672   0.95383189 
   19600    217.09866    198.32671    130987.58    -41179.98    2701.1201     -43881.1    25.828249   0.95347583 
   19700    215.50663    79.234044    130829.84   -41168.692    2681.3122   -43850.004    25.810832   0.95462542 
   19800    213.23593    107.28637    130763.96   -41204.644    2653.0604   -43857.704     25.82558   0.95510635 
   19900    212.17622    13.892263    130648.45   -41216.349    2639.8756   -43856.225    25.947141   0.95595078 
   20000    210.71627    140.86761    130759.27   -41263.017     2621.711   -43884.728    26.027756   0.95514059 
   20100    209.61483    271.00421    130698.56   -41228.416     2608.007   -43836.423    26.171921   0.95558429 
   20200    207.38554    56.155554    130805.85   -41272.695    2580.2704   -43852.965    26.254677   0.95480053 
   20300    209.91332    183.00471    130983.52     -41304.6    2611.7208   -43916.321    26.272825   0.95350541 
   20400     209.4565    176.02149    130938.83   -41313.023    2606.0371   -43919.061    26.342086   0.95383082 
   20500     211.6087    359.95869     131018.1   -41291.844    2632.8145   -43924.659    26.351769    0.9532537 
   20600    207.12749    126.72623    131080.42   -41330.367    2577.0597   -43907.427    26.498897   0.95280048 
   20700    214.12154    244.17445    130960.14    -41284.29    2664.0791   -43948.369    26.509595   0.95367564 
   20800    211.80531    96.309143    131055.37   -41289.942    2635.2607   -43925.202    26.552828   0.95298264 
   20900     207.4439    27.515984    131111.33   -41331.739    2580.9965   -43912.736    26.588497   0.95257592 
   21000    206.29159    129.43214    130972.87   -41416.186    2566.6596   -43982.845    26.693294   0.95358292 
   21100    203.96496     217.3609    131069.36   -41429.406    2537.7118   -43967.118    26.794114    0.9528809 
   21200    209.31733    148.65791    131103.83   -41395.938    2604.3056   -44000.244    26.857732   0.95263035 
   21300    212.67965    207.56115    131083.58   -41397.727    2646.1392   -44043.866    27.086097   0.95277752 
   21400    207.62488    86.429176    130946.31   -41366.511    2583.2483   -43949.759    27.064868   0.95377635 
   21500    207.68797    95.034063     130962.8   -41347.114    2584.0332   -43931.147    26.887289   0.95365625 
   21600    208.32299    124.75113    130864.77   -41293.606    2591.9341    -43885.54    26.988833    0.9543706 
   21700     212.5685    40.567114    130952.84   -41255.341    2644.7563   -43900.098    27.196336   0.95372875 
   21800    209.29781     327.3443     130873.5   -41242.151    2604.0626   -43846.214    27.213359   0.95430698 
   21900    213.38578    182.25395    130932.79   -41270.337    2654.9247   -43925.262    27.414687   0.95387481 
   22000    209.91098    217.39131     131062.2   -41312.483    2611.6916   -43924.175    27.556422   0.95293299 
   22100    211.44526    65.860814    130999.54   -41262.016     2630.781   -43892.798     27.44256    0.9533888 
   22200    212.43984     328.9727    130981.31   -41301.141    2643.1555   -43944.297    27.413256   0.95352148 
   22300    213.64111    165.07233    131063.68   -41279.726    2658.1015   -43937.828    27.610226   0.95292222 
   22400    213.38644    51.460901    130871.12   -41248.658     2654.933   -43903.591     27.56139   0.95432433 
   22500    212.29761    142.92455    130971.59   -41260.734    2641.3859    -43902.12    27.894316   0.95359224 
   22600    208.24624    195.82452    130981.94   -41228.843    2590.9791   -43819.822    28.094899   0.95351691 
   22700    211.20284    123.04287    130989.26   -41226.237    2627.7649   -43854.002    28.058472    0.9534636 
   22800    213.33637    94.679902    130943.88   -41205.342      2654.31   -43859.652     27.77428     0.953794 
   22900    212.11015    317.62758    130977.69   -41249.864    2639.0536   -43888.917    27.740884   0.95354781 
   23000    211.18766    112.77852    131007.06   -41229.756     2627.576   -43857.332    27.938044   0.95333408 
   23100     205.4891    95.417525    130805.95   -41319.209    2556.6751   -43875.884    28.088125    0.9547998 
   23200    209.25584    238.47832    130877.21   -41257.019    2603.5405   -43860.559    28.187978   0.95427993 
   23300    208.63683    97.849718    130901.94   -41293.303    2595.8388   -43889.141     28.45845    0.9540996 
   23400    213.20495    37.137913    130901.41   -41218.088    2652.6749   -43870.763    28.510093   0.95410351 
   23500    211.57862    99.013901    130878.36   -41264.213    2632.4403   -43896.653    28.372478   0.95427151 
   23600    209.95979    339.60836    130855.69   -41244.983     2612.299   -43857.282    28.299119   0.95443684 
   23700    206.42082    90.016044    130875.36   -41278.128    2568.2674   -43846.395    28.094412   0.95429341 
   23800    202.99703    88.271895    130834.49   -41328.081     2525.669   -43853.751    28.120712   0.95459149 
   23900    210.92322    218.79563    130797.99   -41338.996    2624.2858   -43963.282    28.371968   0.95485789 
   24000      213.809    199.09409     131020.3   -41274.174    2660.1905   -43934.364     28.46859   0.95323769 
   24100    207.97559    216.62843     130941.6   -41282.891    2587.6117   -43870.503    28.583836   0.95381065 
   24200    207.52644      51.1409    130946.28   -41341.804    2582.0234   -43923.827    28.623212   0.95377654 
   24300    208.75077    198.88371    131054.96   -41317.911    2597.2565   -43915.167    28.830723   0.95298564 
   24400    207.79713    271.96141    131025.78   -41356.627    2585.3914   -43942.019    28.973724   0.95319782 
   24500    206.90989    38.393269    131022.42   -41312.397    2574.3524   -43886.749    29.104588   0.95322231 
   24600    208.68703    135.50693    131078.68   -41299.507    2596.4633   -43895.971    29.189394   0.95281314 
   24700    209.50127   -15.873113     131092.5   -41311.191    2606.5941   -43917.785    29.078943   0.95271274 
   24800    206.78369    150.18064    131045.19   -41323.254    2572.7822   -43896.037    29.191724   0.95305664 
   24900    210.05572    96.972685    131132.19   -41277.238    2613.4924   -43890.731    29.203432   0.95242438 
   25000    211.96723    148.17787    131076.06   -41278.645    2637.2753   -43915.921    29.204284   0.95283224 
   25100    210.84041    214.68519     131179.8   -41286.597    2623.2555   -43909.853    29.370171    0.9520787 
   25200    207.54908     153.4969    131123.16   -41327.027    2582.3052   -43909.332     29.32357   0.95248997 
   25300    208.00233    169.17243       131128   -41340.043    2587.9445   -43927.987     29.42802   0.95245479 
   25400    211.35281    217.02066    131090.64   -41342.471    2629.6308   -43972.102    29.567981   0.95272625 
   25500    208.19757    46.830716    131152.14   -41312.142    2590.3735   -43902.515    29.625176   0.95227948 
   25600    210.13908    224.91997    130987.72   -41392.802    2614.5297   -44007.331    29.556991    0.9534748 
   25700    211.29386    356.44652    131015.79   -41398.741    2628.8973   -44027.638    29.538637    0.9532705 
   25800     207.6285    142.28563     130965.9   -41374.612    2583.2932   -43957.905    29.504758   0.95363368 
   25900    208.18778    81.891836    130861.91   -41323.911    2590.2518   -43914.163    29.542283   0.95439145 
   26000    214.01196   -20.733124    130948.86   -41247.091    2662.7156   -43909.807    29.706164   0.95375777 
   26100    207.81684    174.15289    130931.74   -41316.378    2585.6366   -43902.015    29.804226   0.95388248 
   26200    208.49992     166.6956    130867.99   -41312.744    2594.1354   -43906.879       29.926   0.95434717 
   26300    210.32611    213.18293    130945.66   -41283.407    2616.8567   -43900.264    30.208111   0.95378105 
   26400    210.48101    149.99557    131126.92   -41275.209    2618.7839   -43893.993    30.243823   0.95246261 
   26500    208.63074    154.16409    131120.38   -41320.212    2595.7631   -43915.975    30.417293   0.95251012 
   26600    208.98173    69.794123    131057.54   -41359.594      2600.13   -43959.724    30.296023   0.95296687 
   26700    208.80597    55.543349    131038.14   -41372.653    2597.9433   -43970.597    30.347829   0.95310793 
   26800    209.20739    113.92789     131078.8   -41306.202    2602.9377   -43909.139     30.38647   0.95281227 
   26900    209.41452    149.57797     131055.8   -41298.486    2605.5148   -43904.001    30.419103   0.95297949 
   27000    209.73282    77.767238    131033.15   -41325.422     2609.475   -43934.897    30.372615   0.95314426 
   27100    207.80577    300.24673    130858.16    -41318.95    2585.4988   -43904.448    30.345859   0.95441883 
   27200    205.49769    31.058934     130878.4   -41323.974     2556.782   -43880.756    30.824374   0.95427125 
   27300    206.76551    153.01589    130861.17   -41349.821     2572.556   -43922.377     30.83499   0.95439685 
   27400    213.45627    260.44149    130640.42   -41283.401    2655.8019   -43939.203    30.704916   0.95600958 
   27500    209.46737     -2.51745    130749.18   -41222.144    2606.1723   -43828.317    30.845615   0.95521434 
   27600    208.36653     212.7007     130850.3   -41256.619    2592.4758   -43849.095    30.913724   0.95447619 
   27700    211.09204    84.425693    130993.61   -41272.134    2626.3863   -43898.521    30.823764   0.95343193 
   27800    212.71753    193.67472    131109.64     -41220.4    2646.6105    -43867.01    30.991803   0.95258815 
   27900    210.27618    305.25186    131110.08   -41247.108    2616.2354   -43863.344    31.217936     0.952585 
   28000    208.12433    150.71901    131184.07   -41287.998    2589.4623   -43877.461    31.200214   0.95204769 
   28100     205.5808    133.93874    131042.51   -41255.594     2557.816    -43813.41    31.277966   0.95307613 
   28200    209.80823     182.9779    131200.01   -41284.964    2610.4132   -43895.377    31.432029   0.95193199 
   28300    206.42352    158.27595    131171.35   -41267.618    2568.3011   -43835.919    31.538648   0.95214003 
   28400    205.95401    123.50079    131362.33   -41296.578    2562.4595   -43859.038    31.574275   0.95075573 
   28500    206.62266   -75.482081    131181.65   -41320.227    2570.7787   -43891.006    31.299536   0.95206527 
   28600    209.41144    135.47954    131023.61   -41285.538    2605.4764   -43891.014    31.554856    0.9532136 
   28700    209.94361    225.68847    130941.11   -41292.699    2612.0977   -43904.797    31.648576   0.95381424 
   28800    207.39891    223.90806    130888.87   -41259.799    2580.4368   -43840.236    31.589947   0.95419486 
   28900    209.11277    197.62795    130942.92   -41240.819    2601.7605    -43842.58    31.725469   0.95380104 
   29000    205.67692    96.773542    130896.55   -41310.485    2559.0119   -43869.497     31.86076   0.95413893 
   29100    210.39655     143.3458    131050.82   -41254.529    2617.7331   -43872.262    31.823975   0.95301569 
   29200     212.6629    116.98525    131033.23   -41212.568    2645.9308   -43858.499    31.838893   0.95314365 
   29300    212.77949    171.25294    131068.95   -41279.266    2647.3813   -43926.648    31.809367   0.95288392 
   29400    207.81397    115.00774    131113.25   -41334.277    2585.6009   -43919.878    32.038878   0.95256196 
   29500    205.84302    109.53544    131099.91   -41368.155    2561.0785   -43929.234    32.002616   0.95265884 
   29600    208.44933    221.15981    131134.44   -41286.669    2593.5059   -43880.175    32.095111   0.95240801 
   29700    211.42381    64.605533    131035.66    -41336.84    2630.5141   -43967.354    32.118256   0.95312597 
   29800    210.63801    47.553338     131113.3   -41320.893    2620.7373    -43941.63    32.299298   0.95256156 
   29900     206.6052    8.2843308    131040.84   -41344.465    2570.5615   -43915.026    32.328538   0.95308827 
   30000    206.70686    160.32281     130956.5   -41312.969    2571.8263   -43884.795    32.427897    0.9537021 
   30100    207.43732    148.72552    131198.49   -41313.134    2580.9146   -43894.049     32.64062   0.95194306 
   30200    208.74966    182.12714    131252.52   -41336.286    2597.2426   -43933.529    32.698663   0.95155121 
   30300    211.65837    184.53146    131142.23   -41308.272    2633.4325   -43941.705    32.722724   0.95235141 
   30400     208.6929    153.39022    131040.85   -41282.206    2596.5365   -43878.743     32.65352    0.9530882 
   30500    210.14926    65.305543    131059.19   -41290.236    2614.6563   -43904.893    32.611641   0.95295487 
   30600    211.39123    126.32873    131114.51   -41274.811    2630.1087    -43904.92    32.756931    0.9525528 
   30700    210.05329    74.323453    131063.61   -41291.459    2613.4622   -43904.921    32.778199   0.95292268 
   30800     213.3222    110.08481    130978.62   -41223.123    2654.1337   -43877.257    32.864777   0.95354109 
   30900    208.82929    88.565344    131147.53    -41326.43    2598.2334   -43924.663    32.935444   0.95231297 
   31000    206.74566   -2.7237423    131252.82   -41364.809     2572.309   -43937.118    32.920855   0.95154902 
   31100    204.67524     297.5548    131102.91   -41357.759    2546.5491   -43904.308    32.992361   0.95263703 
   31200    206.67167    215.48511     131051.6   -41368.855    2571.3884   -43940.243    32.929892   0.95301003 
   31300    207.98363    283.25076    131186.47   -41329.197    2587.7117   -43916.909    33.071483   0.95203028 
   31400    209.23476    176.44758    131175.94   -41295.718    2603.2782   -43898.997    33.148696   0.95210669 
   31500     205.7617    99.765529    131195.23   -41341.579    2560.0667   -43901.646    33.442591   0.95196672 
   31600    213.99547    263.26282    131274.75   -41269.019    2662.5105    -43931.53    33.428059   0.95139002 
   31700    210.99236    234.93125    131336.61    -41305.68    2625.1461   -43930.827    33.518326   0.95094194 
   31800    210.23417    111.14518    131300.83   -41240.645    2615.7128   -43856.358    33.431733   0.95120106 
   31900    211.29147    222.23353    131328.42   -41227.591    2628.8675   -43856.458    33.433924   0.95100127 
   32000    212.19767    116.36771    131244.56   -41222.411    2640.1424   -43862.553    33.702662    0.9516089 
   32100    212.50434    132.53689    131212.29   -41227.656     2643.958   -43871.614    33.766216   0.95184291 
   32200    211.41913     161.5946    131125.39   -41224.626    2630.4559   -43855.082     33.71982   0.95247376 
   32300    211.59399     66.89881    130903.51    -41211.48    2632.6315   -43844.111    33.826875   0.95408821 
   32400    212.07299     60.84395    130865.25   -41282.475    2638.5912   -43921.067     33.67948   0.95436712 
   32500    210.15965    268.59144     130771.9   -41295.573    2614.7857   -43910.359     33.52065   0.95504839 
   32600    212.19325    125.32883    130841.06   -41240.889    2640.0875   -43880.976    33.730266   0.95454357 
   32700    208.08237    84.330767    130919.94   -41297.705    2588.9402   -43886.645    33.841881   0.95396847 
   32800        208.4    21.748899    130863.98   -41328.821    2592.8922   -43921.713    34.092199   0.95437635 
   32900    208.07632    85.155393    130879.76   -41323.082    2588.8651   -43911.947     33.94354   0.95426134 
   33000    207.75481   -19.098087    130898.44   -41375.516    2584.8648   -43960.381    34.040296   0.95412513 
   33100    207.69261    322.41468    130850.31   -41304.212    2584.0909   -43888.303    34.011237   0.95447605 
   33200     206.7216     281.0607    130930.15   -41330.342    2572.0097   -43902.352    34.096032   0.95389405 
   33300    207.84516    272.73863     131051.6   -41250.114     2585.989   -43836.103    34.154773   0.95301004 
   33400    208.64363   -23.269655    131083.63   -41336.961    2595.9234   -43932.884    34.351536   0.95277716 
   33500    207.67926    234.53363    131079.13   -41312.702    2583.9249   -43896.626    34.608239   0.95280986 
   33600    210.73026    230.28922    131029.05   -41282.562    2621.8851   -43904.447    34.730064   0.95317403 
   33700    209.48868    149.32148       131050   -41268.083    2606.4375    -43874.52    34.762077   0.95302166 
   33800    213.04772    11.263593    130996.12   -41278.542    2650.7186   -43929.261    34.808231   0.95341367 
   33900    213.37976      180.042    131020.33   -41309.836    2654.8499   -43964.686    34.833173    0.9532375 
   34000    209.53472    82.706084    130979.48   -41281.194    2607.0103   -43888.204    34.999408   0.95353476 
   34100    207.64784    89.218074    131002.44   -41321.877    2583.5339   -43905.411    34.744206   0.95336764 
   34200    207.45562    73.767879    131030.24     -41326.3    2581.1423   -43907.442    34.844511    0.9531654 
   34300    210.02705    73.946154     131033.4   -41372.087    2613.1358   -43985.223    35.009382   0.95314243 
   34400    211.05984    123.70815    131053.99   -41295.601    2625.9857   -43921.587     35.13146   0.95299267 
   34500    208.81603     152.1396    131113.94   -41316.673    2598.0685   -43914.741     35.18488   0.95255694 
   34600    209.75561    114.63801     131059.7   -41303.373    2609.7586   -43913.132    35.134335   0.95295115 
   34700    205.18342    228.67127    131056.48   -41371.703    2552.8718   -43924.575     35.30403   0.95297457 
   34800    211.71116    84.380695    131204.35   -41356.952    2634.0893   -43991.041     35.08554   0.95190055 
   34900    206.13216    120.36612    131083.87   -41363.183    2564.6759   -43927.859    35.243513   0.95277543 
   35000    205.27068    154.28779    130998.03    -41447.37    2553.9575   -44001.327    35.302946   0.95339975 
   35100    207.25893    141.64213    130950.52   -41395.897    2578.6951   -43974.592    35.190325   0.95374567 
   35200    208.70351    106.10988    130920.49   -41391.894    2596.6685   -43988.563     35.31677    0.9539644 
   35300    205.87012    281.58676    130936.99   -41367.774    2561.4157    -43929.19    35.489005   0.95384422 
   35400    207.94615    157.69335     130981.7   -41381.215    2587.2454    -43968.46    35.492566   0.95351863 
   35500    210.95495    166.62112    130972.19   -41278.238    2624.6806   -43902.919    35.459628   0.95358788 
   35600    210.46372    180.17185    130858.91   -41320.119    2618.5688   -43938.688    35.369539   0.95441333 
   35700    208.19128    252.85222    130908.59   -41279.434    2590.2953   -43869.729    35.374873   0.95405114 
   35800    206.98128    144.09194     130917.2   -41323.376    2575.2407   -43898.616    35.366814   0.95398838 
   35900    210.71497    46.574906    131071.67   -41279.756    2621.6948    -43901.45    35.467252   0.95286412 
   36000    214.26532     -65.9401    130990.04   -41258.646    2665.8679   -43924.514    35.719361    0.9534579 
   36100     212.2367    216.99127    130913.85    -41291.39    2640.6281   -43932.018    35.729863   0.95401282 
   36200    211.29381    306.04856    130931.28   -41324.714    2628.8967   -43953.611    35.745054   0.95388581 
   36300    208.03456    128.85077    130988.55   -41378.185    2588.3454   -43966.531     35.89706   0.95346876 
   36400    210.98997    147.92664    130974.16   -41325.777    2625.1164   -43950.894    35.832704   0.95357355 
   36500    209.77352     30.06532    130893.65   -41297.987    2609.9814   -43907.969    35.896085   0.95416007 
   36600    206.04897    43.563209    131024.07    -41427.42    2563.6409   -43991.061    35.988978   0.95321032 
   36700    208.54408    41.562579    130975.89   -41361.586    2594.6848   -43956.271    35.949804   0.95356089 
   36800    211.44941    60.740404    130953.96   -41357.562    2630.8326   -43988.395    35.942868   0.95372058 
   36900    208.43742    140.32727    131133.28   -41383.863    2593.3578   -43977.221    36.041228   0.95241644 
   37000    214.80323    326.66284    131299.03   -41337.877    2672.5606   -44010.438     36.15424    0.9512141 
   37100    211.11635    184.79654    131459.91   -41325.586    2626.6887   -43952.275    36.161329   0.95005001 
   37200    208.83657    224.67157    131426.97   -41383.242    2598.3239   -43981.566    36.345203   0.95028815 
   37300    213.85896    186.65522     131323.4   -41397.536    2660.8121   -44058.348    36.386298    0.9510376 
   37400     205.8431    173.69157    131434.94   -41429.289    2561.0795   -43990.369    36.328861   0.95023052 
   37500    210.77296    293.53473     131306.4   -41440.377    2622.4164   -44062.793    36.324395    0.9511607 
   37600    208.97605    111.46158    131211.51   -41394.634    2600.0593   -43994.694    36.317016   0.95184858 
   37700    212.76504    155.92575    131297.46   -41405.383    2647.2016   -44052.584    36.211423   0.95122552 
   37800    205.44329    158.75014     131426.3   -41495.149    2556.1051   -44051.254    36.485367   0.95029301 
   37900    206.36519    192.28592    131353.67   -41450.406    2567.5753   -44017.981    36.549782   0.95081845 
   38000    210.26367    116.03936    131354.65   -41421.154    2616.0798   -44037.234    36.656362   0.95081132 
   38100     212.8988    280.87226    131329.38   -41393.443    2648.8658   -44042.309    36.546962   0.95099427 
   38200    208.81258    54.476264    131245.36   -41411.731    2598.0255   -44009.757    36.550946   0.95160312 
   38300      212.579    106.27745    131355.71   -41360.723    2644.8869    -44005.61    36.521354   0.95080365 
   38400    207.77091    193.46275    131397.25   -41423.172    2585.0651   -44008.238    36.678226   0.95050309 
   38500    208.80003    217.93489    131386.53   -41438.347    2597.8693   -44036.216    36.769997   0.95058062 
   38600    210.80494    64.921593    131358.98   -41409.313    2622.8142   -44032.127    36.666818      0.95078 
   38700    205.66086    171.76984    131116.24   -41421.376     2558.812   -43980.188    36.751832   0.95254023 
   38800    208.95001    138.42531    131172.92   -41448.459    2599.7353   -44048.195    36.496492   0.95212863 
   38900    206.72186   -86.682133    131206.81   -41404.459    2572.0129   -43976.472    36.648033   0.95188268 
   39000    209.81469    114.43408    130968.34   -41449.015    2610.4936   -44059.508    36.557963   0.95361591 
   39100    210.93781    108.36601    131023.61   -41411.013    2624.4674    -44035.48     36.71732   0.95321366 
   39200    211.82065    174.12004    131075.13   -41433.087    2635.4515   -44068.539    36.724306   0.95283895 
   39300    210.22124    83.352718    131248.15   -41430.631    2615.5519   -44046.183    36.828311   0.95158289 
   39400    210.14297    245.83934    131273.34   -41408.667     2614.578   -44023.245    36.891107   0.95140028 
   39500    213.70951    31.114359    131146.98   -41388.958    2658.9526    -44047.91    37.119652   0.95231692 
   39600    208.17851    165.73673    131271.43   -41431.934    2590.1364   -44022.071    37.063928   0.95141413 
   39700    209.88823     180.0477    131347.96   -41384.369    2611.4087   -43995.778    37.043356   0.95085974 
   39800      210.244      135.672    131374.25   -41444.483    2615.8351   -44060.318    37.030434   0.95066947 
   39900    208.07644    19.521449    131391.64   -41487.799    2588.8665   -44076.666    36.961378   0.95054364 
   40000    206.61985    120.45518    131482.18   -41515.105    2570.7437   -44085.849    37.171686    0.9498891 
   40100    211.66049      193.207    131384.85   -41423.953    2633.4588   -44057.412    37.323765   0.95059281 
   40200    210.39878    148.65496    131540.53   -41441.788    2617.7608   -44059.549    37.484143   0.94946776 
   40300    212.23952     212.7072    131406.51   -41415.868    2640.6632   -44056.531    37.148537   0.95043613 
   40400    211.08276    95.531349       131281   -41322.986    2626.2708   -43949.257    36.997103   0.95134478 
   40500    212.96071    193.84948    131281.95   -41342.859    2649.6361   -43992.495    37.149031   0.95133787 
   40600    213.80001    133.77278    131331.73   -41386.887    2660.0786   -44046.966    37.308439   0.95097725 
   40700    208.65443    153.16159     131275.3   -41422.377    2596.0579   -44018.435    37.445729   0.95138603 
   40800     205.0788    300.33691     131315.2    -41471.53    2551.5702     -44023.1    37.362243   0.95109696 
   40900    210.83188     222.1114    131329.13   -41488.932    2623.1494   -44112.082    37.400508   0.95099614 
   41000    209.46267    258.17207     131343.3   -41415.384    2606.1139   -44021.497    37.281466   0.95089348 
   41100     213.6261   -8.7151221    131263.29   -41405.092    2657.9148   -44063.006    37.415353   0.95147308 
   41200    213.91327    157.66731    131255.69   -41427.681    2661.4878   -44089.169    37.448509   0.95152819 
   41300    207.74007    202.31188    131356.78   -41579.745    2584.6814   -44164.426    37.440088    0.9507959 
   41400    201.92932    102.08811    131393.57   -41533.321    2512.3847   -44045.705    37.559639   0.95052973 
   41500    204.40117    61.343817     131176.3    -41531.43    2543.1392   -44074.569    37.380804   0.95210409 
   41600    206.09969    171.44494    131265.22   -41493.352    2564.2719   -44057.624    37.395379   0.95145915 
   41700      208.494    145.84935    131300.98   -41471.469    2594.0617   -44065.531    37.557302   0.95119999 
   41800    206.30409    140.30924    131348.92   -41482.714     2566.815   -44049.529    37.656196    0.9508528 
   41900    211.92403    71.270034     131319.4   -41455.737    2636.7378   -44092.475    37.769779   0.95106655 
   42000    208.74968    156.32692    131306.89   -41442.162    2597.2429   -44039.405    37.931095   0.95115717 
   42100    213.77293     112.0939    131206.96   -41437.581    2659.7417   -44097.323    37.934116   0.95188161 
   42200    212.06834    149.93679    131234.66   -41395.846    2638.5333    -44034.38    38.016118    0.9516807 
   42300    212.67667    165.40506    131401.64   -41376.231    2646.1021   -44022.333    38.104669   0.95047136 
   42400    211.54163    25.920608    131138.66    -41414.98    2631.9801    -44046.96    38.061431   0.95237737 
   42500    210.77063    210.35579    131083.08   -41414.898    2622.3873   -44037.286    38.109152   0.95278121 
   42600     212.8421    55.474324    131156.86   -41419.129    2648.1604   -44067.289    38.215396    0.9522452 
   42700    208.39079    45.116166    131072.05   -41436.549    2592.7775   -44029.327     38.07058   0.95286137 
   42800    213.63506    98.103515    131045.11   -41385.987    2658.0262   -44044.014     38.20417   0.95305727 
   42900    210.19462     280.5694    131042.64    -41443.88    2615.2207   -44059.101    38.048665   0.95307522 
   43000    210.73029    111.23373    131209.93   -41472.052    2621.8854   -44093.937    38.055109   0.95186005 
   43100    209.73896    182.22729    131160.51   -41456.724    2609.5514   -44066.276    38.306772   0.95221868 
   43200    208.15707    16.258193    131184.12   -41412.574    2589.8696   -44002.444    38.624057   0.95204731 
   43300    209.03597   -13.815051    131086.94   -41417.264    2600.8049   -44018.069    38.561969   0.95275315 
   43400    210.48681    156.50933    131081.81   -41361.475     2618.856   -43980.331    38.588352   0.95279044 
   43500    207.44784    78.250299    131196.15   -41362.748    2581.0456   -43943.794    38.492996   0.95196002 
   43600    216.83097     221.5462    131177.67   -41270.529    2697.7894   -43968.319    38.550908   0.95209415 
   43700    211.89354    157.57229    131345.02   -41306.305    2636.3584   -43942.663    38.544817   0.95088104 
   43800    212.20582    164.74691    131381.23   -41309.928    2640.2439   -43950.172    38.833726   0.95061899 
   43900    208.84347    53.975584    131440.94   -41340.131    2598.4098    -43938.54     39.01649   0.95018714 
   44000    210.10916   -80.476425    131282.89   -41368.139    2614.1574   -43982.296    38.945672   0.95133107 
   44100    209.59562     167.0663    131158.54   -41384.324     2607.768   -43992.092    38.936004   0.95223298 
   44200     208.0567    79.379609    131276.76   -41419.493    2588.6209   -44008.114    38.909066   0.95137547 
   44300     208.2247    218.83239    131325.59   -41430.465    2590.7111   -44021.176    38.916188   0.95102175 
   44400    209.48382    215.57854    131371.83   -41397.152     2606.377   -44003.529     38.98313   0.95068703 
   44500    206.71522    185.71355    131489.46   -41442.229    2571.9303   -44014.159    39.193896   0.94983655 
   44600    208.28725    255.79079     131386.4   -41503.932    2591.4894   -44095.421    39.386507    0.9505816 
   44700    203.80467    81.916956    131298.62   -41468.429    2535.7175   -44004.146    39.310377   0.95121708 
   44800    213.25309    201.40498    131524.14   -41448.809    2653.2738   -44102.083    39.410413   0.94958603 
   44900    210.73345    115.31467    131570.93   -41422.656    2621.9247    -44044.58    39.524847   0.94924834 
   45000    209.38058     210.3205    131514.14   -41426.639    2605.0925   -44031.732     39.39609   0.94965825 
   45100     211.0138    76.731412    131610.91   -41376.145    2625.4129   -44001.558    39.359884   0.94896001 
   45200    209.38398    29.399945     131607.5   -41440.868    2605.1348   -44046.002    39.459953    0.9489846 
   45300    207.60112   -40.406597    131580.23   -41447.372    2582.9526   -44030.324    39.696193   0.94918129 
   45400    212.70904    113.86279    131695.43   -41430.787    2646.5048   -44077.292    39.635628   0.94835098 
   45500    215.79006    32.758937    131664.01    -41441.43    2684.8386   -44126.268     39.64145   0.94857729 
   45600    210.37975    102.66016    131586.93   -41440.808    2617.5241   -44058.332    39.800636   0.94913293 
   45700    208.38382    76.295428    131565.14   -41449.185    2592.6909   -44041.875    39.880987   0.94929012 
   45800    212.22345    70.574301    131574.68   -41395.542    2640.4632   -44036.006    39.730785   0.94922128 
   45900    212.60754    62.349772    131546.81   -41343.855     2645.242   -43989.097    39.974236   0.94942242 
   46000    211.11209    145.43456    131444.39   -41331.355    2626.6358   -43957.991    39.969104   0.95016217 
   46100    216.62689    273.50516    131499.95   -41279.302    2695.2504   -43974.553    39.948115   0.94976075 
   46200     213.8013    253.64557    131488.61   -41277.111    2660.0946   -43937.206    40.035526   0.94984264 
   46300    211.14205    103.53503    131513.52   -41296.335    2627.0085   -43923.344    39.906093   0.94966273 
   46400    213.79236     250.8638    131545.31   -41321.125    2659.9834   -43981.108    40.151951   0.94943326 
   46500    217.21253    225.68445     131629.5   -41348.535    2702.5369   -44051.072    40.270318     0.948826 
   46600    212.72106    182.83247    131611.63   -41349.412    2646.6545   -43996.066    40.367278   0.94895483 
   46700    211.15584    228.07656    131482.22   -41437.094    2627.1801   -44064.274    40.371584   0.94988884 
   46800    210.35149    112.34274    131561.42   -41497.233    2617.1725   -44114.405    40.419131     0.949317 
   46900    212.28898    26.511426    131589.63    -41421.38    2641.2785   -44062.658    40.283866   0.94911346 
   47000    211.63279    50.049997    131598.26   -41400.709    2633.1143   -44033.824    40.493985   0.94905125 
   47100    210.01846    37.910402    131521.87    -41378.77     2613.029   -43991.799    40.522415   0.94960244 
   47200    212.86408    302.58045    131599.09   -41442.112    2648.4339   -44090.545    40.637335   0.94904524 
   47300    209.97282    150.42707    131764.68   -41479.381    2612.4611   -44091.842    40.560921   0.94785255 
   47400    213.79543    287.89442    131700.54   -41443.709    2660.0216    -44103.73    40.704769   0.94831417 
   47500    214.85797    195.31434    131581.35   -41380.796    2673.2416   -44054.038    40.812202   0.94917317 
   47600    215.33981    138.65062    131402.93    -41345.53    2679.2366   -44024.766    40.736852   0.95046197 
   47700    208.69132    129.07921    131245.44   -41383.464    2596.5168   -43979.981    40.784197   0.95160254 
   47800    214.34546    202.90079     131277.7   -41388.986    2666.8651   -44055.851     40.84421   0.95136867 
   47900    207.97182    99.753505    131282.99   -41464.636    2587.5648   -44052.201    40.789957   0.95133034 
   48000    209.91804    277.05512    131443.34   -41469.561    2611.7795    -44081.34    40.909756   0.95016976 
   48100    211.46187    145.89638    131540.31   -41437.837    2630.9876   -44068.825    41.007049    0.9494693 
   48200    208.37469     193.4501    131499.93   -41464.584    2592.5773   -44057.161    40.870945   0.94976091 
   48300    212.92386     56.19016    131459.04    -41455.57    2649.1776   -44104.747    41.107419   0.95005635 
   48400    216.82237    92.053723    131593.26   -41385.507    2697.6825   -44083.189    41.275766   0.94908729 
   48500    212.49388    212.26851    131592.05   -41455.215    2643.8279   -44099.043     41.23139   0.94909604 
   48600    210.22151    420.97815    131784.29   -41458.233    2615.5552   -44073.788    41.078096   0.94771152 
   48700    213.77702    219.49637    131851.79   -41434.661    2659.7925   -44094.453    41.247381   0.94722635 
   48800    210.89934    49.082018    131554.13   -41476.105    2623.9887   -44100.094    41.182029   0.94936961 
   48900     212.9237    130.65874    131522.08   -41469.258    2649.1757   -44118.433    41.402196   0.94960095 
   49000    210.72457    117.05089     131517.7   -41516.521    2621.8143   -44138.335    41.478102   0.94963256 
   49100    211.55906    229.01374     131402.7   -41517.342    2632.1969   -44149.539     41.53724   0.95046367 
   49200    210.30974    148.74631    131564.35   -41543.343     2616.653   -44159.996    41.571102   0.94929584 
   49300    207.82563    125.67899     131601.3   -41497.226    2585.7459   -44082.972    41.539563   0.94902932 
   49400     212.8409    222.48503    131673.69   -41485.351    2648.1454   -44133.497    41.648432   0.94850756 
   49500    211.90423    292.61088    131396.06   -41496.714    2636.4915   -44133.206    41.607384   0.95051166 
   49600    211.01988     179.8759    131637.74   -41494.602    2625.4885   -44120.091    41.821358   0.94876658 
   49700    210.63374    148.56042    131628.67   -41510.452    2620.6842   -44131.136    41.938398   0.94883201 
   49800    207.67661    258.35924     131582.5   -41546.447    2583.8919   -44130.339    42.098285   0.94916489 
   49900    210.47428    279.23665    131491.78   -41430.421    2618.7002   -44049.121    42.206208   0.94981977 
   50000     210.6888    50.675044    131453.74   -41461.089    2621.3692   -44082.458    42.029627   0.95009465 
   50100     212.0318    119.62802    131462.11   -41471.033    2638.0787   -44109.112    42.084688   0.95003415 
   50200    209.85436    145.68625    131543.53       -41501    2610.9872   -44111.988    42.190218   0.94944607 
   50300    211.51426    178.13132    131342.62   -41471.928    2631.6395   -44103.568    42.410614   0.95089842 
   50400    209.20328    201.39489    131628.38   -41494.822    2602.8865   -44097.708    42.492044   0.94883405 
   50500    207.20956    247.71532       131685   -41531.048    2578.0809   -44109.128    42.435708    0.9484261 
   50600    204.98447    243.28305    131675.98   -41543.463    2550.3965    -44093.86    42.557886   0.94849109 
   50700    210.01109    202.67663    131659.51   -41559.593    2612.9372   -44172.531    42.786754   0.94860971 
   50800    205.58938    177.17368    131660.51   -41564.809    2557.9228   -44122.732    42.591598    0.9486025 
   50900    213.96682    55.709801    131542.45   -41479.555     2662.154   -44141.709    42.587507   0.94945386 
   51000    212.45348    149.82141    131632.19   -41526.998    2643.3253   -44170.323    42.433317   0.94880659 
   51100    209.00144    141.57848    131620.48    -41563.53    2600.3752   -44163.905    42.425327   0.94889099 
   51200    209.70111    166.55453    131725.81     -41547.7    2609.0805    -44156.78    42.676007   0.94813228 
   51300    208.05051    156.36838    131692.25   -41612.783    2588.5439   -44201.327    43.108193   0.94837391 
   51400    205.48728    18.091199    131795.43   -41609.951    2556.6524   -44166.604    42.902339    0.9476314 
   51500    207.17868    54.018889    131758.39   -41615.791    2577.6966   -44193.488    42.855945   0.94789785 
   51600    208.17279    213.19583    131721.81   -41558.379    2590.0653   -44148.445    42.911407   0.94816105 
   51700    210.49455    238.28794    131638.44   -41547.443    2618.9523   -44166.396    42.995507   0.94876158 
   51800    207.93829     103.6172    131651.54   -41578.239    2587.1476   -44165.387    43.114475   0.94866718 
   51900     212.6185    147.48331    131624.39   -41611.595    2645.3784   -44256.974    43.035393   0.94886286 
   52000    205.41519    119.39866    131705.76   -41621.199    2555.7555   -44176.954    43.160863    0.9482766 
   52100    209.80693    98.322192    131760.46    -41563.67    2610.3971   -44174.067    43.341531    0.9478829 
   52200    208.61687     130.9688    131712.13   -41593.471    2595.5905   -44189.062    43.271127   0.94823072 
   52300    208.12733    119.98075    131677.04   -41569.593    2589.4996   -44159.092     43.16992   0.94848341 
   52400    210.71468    198.17238    131649.16   -41524.209    2621.6912     -44145.9    43.316829   0.94868427 
   52500     213.3106     227.3232    131799.21   -41517.149    2653.9894   -44171.138    43.263157   0.94760425 
   52600    208.50747    67.996081    131800.04   -41536.532    2594.2293   -44130.761    43.212725   0.94759827 
   52700    207.70518    51.811132    131694.65   -41555.719    2584.2473   -44139.967    43.260568   0.94835663 
   52800    208.14717   -4.3916363    131382.12   -41506.242    2589.7465   -44095.988    43.354315   0.95061251 
   52900    210.02581    150.11064    131474.59   -41497.838    2613.1204   -44110.958    43.265754   0.94994393 
   53000    213.71188    220.63144    131570.19   -41475.103    2658.9821   -44134.085     43.36328   0.94925372 
   53100    210.68136    31.136887    131485.41   -41523.135    2621.2766   -44144.412    43.529555   0.94986578 
   53200    210.10139    236.59267    131508.33   -41518.762    2614.0607   -44132.823    43.526892   0.94970021 
   53300    209.88566    141.74518    131584.84   -41516.853    2611.3766   -44128.229     43.65172   0.94914803 
   53400    207.87179    229.63472    131476.33   -41589.424    2586.3202   -44175.744     43.77083   0.94993136 
   53500     207.4426     178.0178    131597.33   -41590.537    2580.9803   -44171.517     43.88161   0.94905797 
   53600    208.96066    101.59781    131582.73   -41594.947    2599.8679   -44194.815     43.81326   0.94916323 
   53700    205.00074    356.31501    131597.09   -41615.584    2550.5989   -44166.182    43.758385   0.94905968 
   53800    209.06383     188.2737    131632.79   -41506.189    2601.1515    -44107.34    43.755215   0.94880227 
   53900    208.52633    161.00825    131730.86   -41545.906     2594.464    -44140.37    43.954398   0.94809593 
   54000    208.70771    128.64344    131682.67   -41511.983    2596.7207   -44108.703    43.989252   0.94844286 
   54100    207.25426    112.76899    131674.69   -41517.794     2578.637   -44096.431    44.028488   0.94850033 
   54200    209.12613    24.569087    131718.77   -41506.804    2601.9266   -44108.731    43.955429   0.94818294 
   54300    214.82378    168.46727    131832.53   -41486.929    2672.8162   -44159.745     44.21411   0.94736475 
   54400    208.09335    128.08406    131844.39   -41532.879    2589.0769   -44121.955    44.335776   0.94727956 
   54500    211.46331     175.2742    131857.81   -41527.807    2631.0057   -44158.813    44.256343   0.94718312 
   54600    211.70938    198.51233    131806.31   -41442.251    2634.0672   -44076.319    44.132337   0.94755318 
   54700    210.29429    26.855632    131760.49   -41458.322    2616.4607   -44074.783    43.928191   0.94788273 
   54800     211.0991    124.65122    131824.45   -41529.468    2626.4741   -44155.942    44.298856   0.94742282 
   54900    209.10476    117.07535    131803.91   -41571.678    2601.6608   -44173.339    44.476941   0.94757048 
   55000    209.85777     64.96891    131961.53   -41639.099    2611.0297   -44250.128    44.563706   0.94643863 
   55100    209.16559    69.849249    132094.34   -41613.506    2602.4175   -44215.923    44.556818   0.94548708 
   55200    207.24169    215.20854    131900.68    -41628.13    2578.4806   -44206.611    44.326764    0.9468753 
   55300    206.38142    38.422956       131910   -41573.606    2567.7772   -44141.384    44.568492    0.9468084 
   55400     211.4735     271.6747    131896.53   -41548.915    2631.1323   -44180.047    44.695593   0.94690505 
   55500    215.25605     135.3065    132078.25    -41489.75    2678.1945   -44167.944    44.646795   0.94560225 
   55600    212.28299    279.12882    131885.85   -41520.431     2641.204   -44161.635    44.462852   0.94698176 
   55700    210.30417     105.9928    131965.45   -41517.345    2616.5837   -44133.929    44.422055   0.94641054 
   55800    207.52357    167.18536    131983.44   -41534.894    2581.9877   -44116.882    44.497489   0.94628153 
   55900    213.41287    275.64081    131993.56   -41500.362    2655.2618   -44155.624    44.645222   0.94620896 
   56000    213.91379    309.03365    132185.35   -41501.019    2661.4942   -44162.513    44.843728    0.9448361 
   56100    214.27675   -31.265004    132074.81    -41480.16    2666.0102    -44146.17    45.063576   0.94562686 
   56200    206.72478    117.81509    132065.34   -41487.284    2572.0492   -44059.333     44.84686   0.94569467 
   56300    208.93256    23.723565    131983.33   -41528.569    2599.5183   -44128.087    45.041725   0.94628229 
   56400    207.30145     160.6571    132019.26   -41514.225    2579.2241   -44093.449    45.024475    0.9460248 
   56500    208.92412   -110.20456    132049.81   -41597.038    2599.4132   -44196.451    45.147074   0.94580588 
   56600    208.65788    191.38471    132125.27   -41608.779    2596.1007    -44204.88    44.929089   0.94526577 
   56700    208.76927    180.71836    132099.22   -41639.881    2597.4866   -44237.367    44.947732   0.94545212 
   56800    210.24558    112.24205    132121.38   -41567.173    2615.8548   -44183.027    44.970255   0.94529359 
   56900    210.45857    169.19242    132206.87   -41556.011    2618.5047   -44174.516    45.316807   0.94468229 
   57000     211.1875    138.96875    132171.65   -41501.709     2627.574   -44129.283    45.356845   0.94493404 
   57100    208.61956    238.75692    132360.93   -41556.193     2595.624   -44151.817    45.342663   0.94358276 
   57200    209.14823     73.82051    132259.59     -41605.2    2602.2016   -44207.401    44.927628   0.94430574 
   57300    205.43681    51.462911    132279.81   -41658.312    2556.0245   -44214.337    44.971949   0.94416142 
   57400    205.38788    229.76633    132315.56   -41659.741    2555.4157   -44215.157    45.206228   0.94390633 
   57500    206.13926    115.02644    132201.01   -41699.885    2564.7643   -44264.649    45.333984   0.94472421 
   57600    208.17644    185.18231    132318.02   -41653.759    2590.1107    -44243.87    45.408403   0.94388879 
   57700    206.44294    196.50093    132334.01   -41690.588    2568.5426    -44259.13    45.513573   0.94377469 
   57800    201.68455    187.04134    132319.79   -41700.456    2509.3393   -44209.795     45.58345   0.94387616 
   57900    204.55559    254.02209    132303.13   -41654.368    2545.0604   -44199.429    45.410344   0.94399499 
   58000    207.02096    163.98439    132391.57   -41665.772    2575.7343   -44241.506    45.602545   0.94336435 
   58100    209.67767    68.702206    132396.39   -41603.342    2608.7889   -44212.131    45.439946   0.94333006 
   58200    210.36753    108.77327    132377.14   -41561.607    2617.3721   -44178.979    45.438185    0.9434672 
   58300    215.37336    153.23129    132358.38   -41501.189    2679.6541   -44180.843    45.572242   0.94360093 
   58400    211.64854    209.74996    132387.12   -41502.266    2633.3102   -44135.577     45.65965   0.94339609 
   58500    208.86896     132.4847    132297.67   -41509.264    2598.7269   -44107.991    45.741814   0.94403392 
   58600     209.1577    135.81412    132180.12   -41472.231    2602.3195    -44074.55     45.69473   0.94487348 
   58700    210.16501     113.2512    132079.04   -41478.516    2614.8522   -44093.369    45.673194   0.94559656 
   58800       209.44    104.10404    132171.79   -41526.657    2605.8317   -44132.489    45.662386   0.94493303 
   58900     210.5696    91.329207    132109.17    -41575.73    2619.8861   -44195.616    45.847672   0.94538093 
   59000    207.92443    182.28117    132058.18    -41559.82    2586.9752   -44146.795     45.77217   0.94574597 
   59100    211.81616    13.418837    132072.65   -41558.825    2635.3957   -44194.221    45.681647   0.94564233 
   59200    209.87359    75.078866    132036.09   -41572.247    2611.2265   -44183.473    45.752996   0.94590418 
   59300     207.6081    149.20822    132194.91   -41556.694    2583.0394   -44139.733    45.907561   0.94476779 
   59400    208.94176    165.73412     132231.9   -41601.073    2599.6327   -44200.706     45.92819   0.94450352 
   59500    210.55608    149.67161    132204.07   -41561.219    2619.7179   -44180.937    46.002911   0.94470229 
   59600    209.66612    171.56453    132120.77   -41556.459    2608.6452   -44165.104    46.192887   0.94529794 
   59700    210.99206    131.39647       132095   -41595.265    2625.1423   -44220.407    46.189354   0.94548235 
   59800    209.41819    305.25222     131980.2   -41592.263    2605.5604   -44197.823    46.052748   0.94630475 
   59900    206.49372    49.013773    131869.86    -41570.54    2569.1744   -44139.714    46.094607   0.94709654 
   60000    209.29839    204.54917    131812.41    -41615.71    2604.0698    -44219.78    46.308494   0.94750939 
   60100    208.44168    238.43326    131960.24   -41587.585    2593.4108   -44180.996    46.386086   0.94644789 
   60200    208.12219    227.94028    132039.33   -41570.379    2589.4357   -44159.815    46.437175   0.94588099 
   60300    211.83611    31.975846    131994.51   -41532.133     2635.644   -44167.777    46.296924   0.94620214 
   60400    209.03659    199.24471    131902.28   -41486.384    2600.8126   -44087.197    46.348911   0.94686381 
   60500    210.40227    56.715259    131878.35   -41517.996    2617.8043     -44135.8    46.498658   0.94703557 
   60600    210.43188    62.323481    131914.14   -41570.285    2618.1726   -44188.458     46.61278   0.94677868 
   60700    211.47769    171.40733    131807.34   -41587.857    2631.1845   -44219.041    46.394238   0.94754579 
   60800    211.23958    165.56037    131901.51   -41543.126    2628.2219   -44171.348     46.49016    0.9468693 
   60900    210.09448    15.734823    132058.96   -41534.643    2613.9747   -44148.618    46.593692   0.94574036 
   61000    216.69523    88.279474     131931.4   -41565.724    2696.1006   -44261.824    46.647146   0.94665477 
   61100    209.98782    89.212398    132035.36   -41600.403    2612.6478   -44213.051    46.819164   0.94590946 
   61200    207.92812    6.3774334    131924.24   -41591.779    2587.0211     -44178.8    46.917977   0.94670613 
   61300    208.56549    154.58515    131927.73   -41590.301    2594.9512   -44185.252    47.014276   0.94668114 
   61400    210.34592    71.127429    131941.15   -41626.214    2617.1032   -44243.317    47.172017   0.94658483 
   61500    210.31354    135.59299    131872.65    -41619.11    2616.7003    -44235.81    47.298743   0.94707656 
   61600    207.54902    197.44212    131929.89   -41577.093    2582.3044   -44159.398    46.980794   0.94666562 
   61700    208.01311    172.97936     132004.4   -41658.127    2588.0785   -44246.206    47.067081   0.94613129 
   61800    207.58904    123.80324    131981.66   -41718.828    2582.8024    -44301.63    47.094288   0.94629431 
   61900    203.53525    206.40594    132046.66   -41654.195    2532.3654   -44186.561    47.547262    0.9458285 
   62000    211.65607    155.71149    131975.39   -41608.461     2633.404   -44241.865    47.502634   0.94633924 
   62100    209.30579    312.47154    132081.07   -41625.822     2604.162   -44229.984    47.547584    0.9455821 
   62200     208.2366   -84.222609    132221.07   -41587.556    2590.8592   -44178.415    47.485089   0.94458086 
   62300    207.72143    116.14154    132164.19   -41615.223    2584.4495   -44199.672    47.486804    0.9449874 
   62400    210.50978    152.78373    132063.48   -41545.092    2619.1419   -44164.233    47.682438   0.94570798 
   62500    212.28474    187.71153    132182.16   -41557.599    2641.2257   -44198.825    47.780444   0.94485891 
   62600      214.475    210.09528    132127.51   -41566.315    2668.4768   -44234.792    47.809507   0.94524968 
   62700    208.24538     134.3467    131994.58   -41611.134    2590.9684   -44202.103    47.936405   0.94620164 
   62800    211.20271    275.72773     132029.3   -41606.921    2627.7632   -44234.684    48.079332   0.94595281 
   62900    210.66784    171.45863    132075.17   -41566.479    2621.1084   -44187.588    47.984898   0.94562428 
   63000    213.85161    44.576228    132087.89   -41531.567    2660.7206   -44192.287    47.928064   0.94553321 
   63100    209.02295     49.66823    131978.22   -41524.044    2600.6429   -44124.687    47.935869   0.94631895 
   63200    209.94216    116.66126    132001.21   -41555.229    2612.0796   -44167.308    48.046416   0.94615417 
   63300    209.45492    213.94282    132107.73   -41575.626    2606.0175   -44181.643    48.143778   0.94539126 
   63400    215.49076    287.43497    132314.05   -41500.267    2681.1148   -44181.382    48.173456   0.94391709 
   63500    207.16204    159.36524    132250.84   -41582.007    2577.4896   -44159.496     48.35483   0.94436826 
   63600    214.22253     207.2178    132321.85   -41583.847    2665.3356   -44249.183    48.293069   0.94386143 
   63700    212.10011    187.58607    132345.21   -41590.192    2638.9286   -44229.121    48.459039   0.94369486 
   63800    204.29129    195.21391    132219.53   -41678.925     2541.772   -44220.697    48.400676   0.94459186 
   63900    205.33883    228.48418    132321.19   -41663.633    2554.8054   -44218.438    48.228904   0.94386611 
   64000    211.23766    347.15005    132295.73   -41648.163    2628.1981   -44276.361    48.338834   0.94404781 
   64100    209.91396    55.505227    132445.26   -41563.628    2611.7288   -44175.356    48.360822   0.94298196 
   64200    210.42552    173.05897     132455.1   -41557.815    2618.0935   -44175.908    48.695583   0.94291193 
   64300     213.2501     316.4976     132415.3   -41482.802    2653.2367   -44136.038    48.585438   0.94319532 
   64400    214.66417    132.67597    132474.19   -41504.662    2670.8304   -44175.492    48.503209   0.94277605 
   64500    214.08933    176.90825    132527.71   -41498.285    2663.6782   -44161.963    48.743216   0.94239531 
   64600    205.93079    207.50826    132335.94   -41551.495    2562.1706   -44113.666    48.419422   0.94376097 
   64700    211.73538    95.272939    132233.96   -41577.377    2634.3907   -44211.767    48.301846   0.94448875 
   64800    210.93803    156.87072    132300.11    -41601.32    2624.4701    -44225.79    48.371472   0.94401654 
   64900    207.81792    232.18504    132401.25   -41584.784      2585.65   -44170.434     48.48134   0.94329538 
   65000    208.73938    36.652897    132355.13   -41547.739    2597.1148   -44144.854    48.508372   0.94362408 
   65100    210.34561    54.982709    132382.66   -41574.928    2617.0993   -44192.027    48.613409   0.94342788 
   65200    211.33079    11.244527    132334.51   -41572.829    2629.3567   -44202.186    48.737264   0.94377114 
   65300    212.55191    176.22548    132385.78    -41565.42    2644.5499   -44209.969    48.822772   0.94340561 
   65400    209.61658    175.55056    132414.01   -41513.251    2608.0288    -44121.28    48.651734   0.94320448 
   65500    209.03793    166.04135    132253.44   -41577.704    2600.8293   -44178.533    48.665537   0.94434967 
   65600     211.0798    114.25269    132297.36   -41613.051     2626.234   -44239.285    48.682682   0.94403615 
   65700    211.75132    130.84716    132240.81   -41661.979     2634.589   -44296.568    48.720417   0.94443985 
   65800    208.74697    62.895263    132291.67   -41671.208    2597.2092   -44268.418    48.453126   0.94407678 
   65900    206.68656    204.16609    132262.64   -41636.638    2571.5738   -44208.212    48.548431   0.94428395 
   66000    215.83387    271.83348    132387.32    -41554.34    2685.3837   -44239.723       48.849   0.94339465 
   66100    211.99682    192.60539    132541.65   -41502.435    2637.6434   -44140.079     48.89831    0.9422962 
   66200    213.71901     54.42255    132416.44   -41485.944    2659.0707   -44145.015    48.768148   0.94318719 
   66300    214.12889    138.20762    132350.37   -41526.713    2664.1704   -44190.883    48.591565   0.94365802 
   66400    213.72133    100.12686    132447.65   -41572.392    2659.0997   -44231.492    48.761807   0.94296493 
   66500    212.11032    59.567792    132423.12    -41594.45    2639.0557   -44233.506    48.930607   0.94313962 
   66600    213.93495     216.4015    132270.03   -41623.266    2661.7575   -44285.024    48.871594    0.9442312 
   66700    210.44306    233.40633    132470.79   -41656.187    2618.3118   -44274.499    49.064299   0.94280024 
   66800    207.65876    39.369181    132376.14   -41600.468    2583.6698   -44184.138    48.968966   0.94347432 
[...]
   84600    206.10796    176.65715    132093.91   -41666.691    2564.3749   -44231.065    53.457065   0.94549016 
   84700    204.56561    21.473845    132117.33   -41681.319    2545.1851   -44226.504    53.333886   0.94532257 
   84800    207.15199    253.82392    132167.53   -41634.076    2577.3646    -44211.44    53.394199   0.94496351 
   84900    207.75261    281.43517    132169.46   -41602.106    2584.8374   -44186.944    53.613687   0.94494966 
   85000    208.65669    227.82074    132404.45    -41548.91    2596.0859   -44144.996    53.665685   0.94327258 
   85100    208.98995    69.420953    132163.73   -41548.418    2600.2323    -44148.65    53.703937   0.94499063 
   85200    211.32984    87.781268    132076.63   -41559.769    2629.3449   -44189.114    53.780474   0.94561388 
   85300    208.96138    115.93706    132300.49   -41596.416    2599.8769   -44196.293    53.777071   0.94401384 
   85400    207.72146     236.7933    132260.28   -41590.318    2584.4499   -44174.768    53.761178    0.9443008 
   85500    208.74085   -14.131667    132084.65    -41560.86     2597.133   -44157.993    53.616204   0.94555646 
   85600    212.34798    230.25919     132159.6   -41544.076    2642.0126   -44186.089    53.618426   0.94502023 
   85700    211.24843    62.106436    132108.63   -41583.961    2628.3321   -44212.293    53.583909   0.94538482 
   85800     209.4444    287.08574    132191.86   -41596.416    2605.8865   -44202.302    53.729717    0.9447896 
   85900    211.89526    157.99603    132267.02   -41504.212    2636.3799   -44140.591    53.686989   0.94425269 
   86000    211.29154    143.07806    132222.58   -41543.491    2628.8685   -44172.359    53.868351   0.94457008 
   86100    211.86503      192.205    132243.25   -41535.871    2636.0038   -44171.875     53.90314   0.94442243 
   86200    211.60864    177.17799    132255.88   -41503.074    2632.8138   -44135.888    53.749639   0.94433224 
   86300    209.89907     221.0159    132247.87   -41541.389    2611.5435   -44152.933    53.751682   0.94438946 
   86400    212.41717    143.78405    132127.63   -41570.283    2642.8734   -44213.156    53.727588   0.94524884 
   86500    208.55217    64.195674    132181.14   -41554.775    2594.7855   -44149.561     53.70333   0.94486623 
   86600    212.90774    150.67353    132191.54   -41501.673    2648.9771   -44150.651    53.923766   0.94479186 
   86700    209.56506    170.15079    132253.82   -41502.088    2607.3877   -44109.476     53.95156   0.94434695 
   86800    211.04935    220.50234    132239.01   -41575.519    2625.8551   -44201.374    53.960591   0.94445272 
   86900     216.2431    192.43392    132426.14   -41551.235    2690.4752    -44241.71    54.145252    0.9431181 
   87000    209.11468    58.762667    132485.32   -41559.774    2601.7842   -44161.558    53.948905   0.94269685 
   87100    208.97193    78.838915    132519.68   -41602.026    2600.0081   -44202.034    54.083011   0.94245243 
   87200    212.31921    231.64421    132529.39   -41596.855    2641.6547    -44238.51    54.209538   0.94238333 
   87300    211.05031    256.54789    132478.68   -41596.523     2625.867    -44222.39     54.19007   0.94274407 
   87400    212.10348    189.02651    132530.97   -41612.156    2638.9705   -44251.126    54.146046   0.94237212 
   87500    211.96429    175.28673    132578.49   -41622.574    2637.2387   -44259.813    54.196048   0.94203438 
   87600    208.70776     121.0008    132450.16    -41627.73    2596.7213   -44224.451     54.29583    0.9429471 
   87700    211.73147    168.68372    132411.01   -41635.015     2634.342   -44269.357    54.279348   0.94322586 
   87800    211.40014    173.16912       132509   -41617.479    2630.2196   -44247.699    54.514789   0.94252837 
   87900    208.91772    104.12076    132328.65   -41647.207    2599.3336   -44246.541    54.209569   0.94381296 
   88000    208.16726    155.97245    132303.93   -41672.999    2589.9965   -44262.995    54.150694   0.94398926 
   88100    212.00267    119.48351    132376.49   -41618.312    2637.7163   -44256.028    54.344377   0.94347183 
   88200    211.11658    89.990495    132284.81   -41585.412    2626.6916   -44212.104    54.318829   0.94412572 
   88300    210.58452    95.246752    132353.18    -41620.23    2620.0718   -44240.302    54.522341   0.94363799 
   88400    206.88194     160.5479    132470.75   -41710.309    2574.0047   -44284.314     54.51131   0.94280049 
   88500    209.91986    155.44559    132515.41   -41612.153    2611.8021   -44223.955    54.352555    0.9424828 
   88600    211.94447    338.45328    132456.93   -41561.136    2636.9922   -44198.128    54.275498   0.94289889 
   88700    212.95616    105.06979    132461.79   -41549.217    2649.5794   -44198.796    54.397971   0.94286427 
   88800    212.44203    316.94195    132491.92   -41497.642    2643.1827   -44140.824    54.490589    0.9426499 
   88900    213.34374    91.783805    132564.88   -41550.327    2654.4018   -44204.729    54.508601   0.94213107 
   89000    211.58182    193.39237    132508.18   -41536.712    2632.4801   -44169.192    54.526383   0.94253418 
   89100    210.41636    72.932523    132583.34   -41642.385    2617.9795   -44260.364    54.831543   0.94199985 
   89200    209.70358    310.63005    132533.81    -41677.11    2609.1112   -44286.222    54.661327    0.9423519 
   89300    210.61139     220.3538    132597.17   -41691.475    2620.4061   -44311.881    54.619044   0.94190161 
   89400    206.53404    87.633026    132523.02   -41708.447    2569.6761   -44278.123    54.581492   0.94242868 
   89500    201.34018    102.05531    132605.44   -41736.661    2505.0547   -44241.716    54.677969   0.94184289 
   89600    202.82735     260.7071    132602.82   -41771.824    2523.5578   -44295.382    54.962415   0.94186153 
   89700    205.49355    246.15744    132731.92   -41722.127    2556.7304   -44278.857    54.996885   0.94094538 
   89800    210.46481    227.83856     132831.5   -41684.473    2618.5824   -44303.056    54.926179   0.94024002 
   89900    206.63229    115.34314    132889.37   -41732.677    2570.8985   -44303.575    55.019957   0.93983053 
   90000     210.8513    70.469693    132695.44   -41646.603     2623.391   -44269.994    54.806362   0.94120407 
   90100    208.93015    99.751679       132627   -41657.973    2599.4882   -44257.461    54.846808   0.94168982 
   90200    208.03239    207.32218    132561.87   -41690.868    2588.3185   -44279.186    54.974828   0.94215243 
   90300    206.48359    90.853942    132477.09   -41690.911    2569.0484    -44259.96     54.95719   0.94275537 
   90400    205.87037    46.288715    132501.33   -41681.688    2561.4189   -44243.107    55.054858   0.94258292 
   90500     210.1852    216.29627    132462.68   -41644.467    2615.1035    -44259.57    55.240535   0.94285797 
   90600    210.62101    154.12558    132487.98   -41556.719    2620.5257   -44177.245    55.206808   0.94267788 
   90700    209.87399    104.13256    132356.91   -41566.938    2611.2314    -44178.17    55.142366   0.94361138 
   90800    210.18326    135.46841    132360.27   -41598.115    2615.0794   -44213.195     55.29333   0.94358745 
   90900    207.45861    127.76585    132277.49    -41693.95    2581.1796    -44275.13    55.097449   0.94417793 
   91000    206.63164    248.50877    132466.06   -41712.505    2570.8904   -44283.396    55.178016   0.94283388 
   91100    206.48112    172.06554    132428.17   -41694.181    2569.0177   -44263.199    55.425658   0.94310368 
   91200    207.15405    108.79992    132336.42   -41642.348    2577.3902   -44219.738    55.458171   0.94375751 
   91300    209.61716    143.82013    132294.78   -41546.011    2608.0359   -44154.047    55.436182   0.94405457 
   91400    214.14838    238.02125    132291.06   -41532.431     2664.413   -44196.844    55.322424    0.9440811 
   91500    213.94279    189.09275    132299.07   -41558.199     2661.855   -44220.054    55.449349   0.94402394 
   91600    211.05414    230.95774    132355.45   -41601.511    2625.9148   -44227.426     55.40141   0.94362181 
   91700    210.02084    179.83175    132584.18   -41664.189    2613.0585   -44277.247    55.313953   0.94199395 
   91800    211.71217    165.62833    132564.48   -41635.689    2634.1019   -44269.791    55.261524   0.94213394 
   91900    208.59167    195.32644    132396.66   -41647.016     2595.277   -44242.293    55.308521   0.94332813 
   92000    213.15119     189.8618    132452.35   -41663.919    2652.0061   -44315.925    55.203653   0.94293152 
   92100    204.62059    210.59642    132576.08   -41700.503    2545.8692   -44246.372    55.584793   0.94205149 
   92200    207.57537    205.28661    132545.53   -41639.211    2582.6322   -44221.843    55.524823   0.94226857 
   92300    209.77848    87.221785    132692.11   -41552.632    2610.0432   -44162.675     55.40392   0.94122773 
   92400    215.38479    107.74839    132712.27   -41552.758    2679.7963   -44232.554    55.570592   0.94108471 
   92500    213.65798    185.37092    132660.71   -41611.681    2658.3115   -44269.993    55.574883   0.94145052 
   92600    212.74542     56.44318    132790.68   -41584.513    2646.9575   -44231.471    55.693413   0.94052903 
   92700    214.71663    82.164577    132789.66   -41585.427    2671.4831   -44256.911    55.872965    0.9405363 
   92800    209.72908    189.97031    132740.56   -41634.226    2609.4285   -44243.655    55.761268   0.94088418 
   92900    209.63156    136.78938    132658.41   -41602.998    2608.2152   -44211.213    55.683217   0.94146684 
   93000    213.76518    174.38148    132644.83   -41636.901    2659.6453   -44296.546    55.832227    0.9415632 
   93100    212.20448     88.10626    132604.55   -41572.425    2640.2271   -44212.653     55.82982   0.94184921 
   93200    213.14776    190.44222    132595.15   -41593.685    2651.9634   -44245.649    55.945017   0.94191597 
   93300    210.00669    22.646169    132587.14   -41614.182    2612.8825   -44227.064    55.883034   0.94197291 
   93400    207.85549    44.121075    132533.81   -41636.103    2586.1174    -44222.22    55.695903   0.94235194 
   93500    209.68983    78.166373    132747.05   -41675.456    2608.9402   -44284.396    55.667545   0.94083818 
   93600    208.28206    176.95049     132615.7   -41739.413    2591.4248   -44330.838    55.696962   0.94176999 
   93700     205.2613    174.13407    132514.43   -41693.979    2553.8408    -44247.82     55.72188   0.94248972 
   93800    208.52082    2.3472315     132519.2   -41667.787    2594.3954   -44262.182    55.920687   0.94245582 
   93900    207.60047    102.81782    132320.97   -41653.627    2582.9445   -44236.571    55.850091   0.94386768 
   94000    209.30626    206.74334    132496.44   -41667.058    2604.1678   -44271.226    55.886061   0.94261772 
   94100    208.46054    222.69197    132571.15   -41653.098    2593.6454   -44246.744    55.875041   0.94208654 
   94200    204.44328     201.0465     132631.5   -41647.225    2543.6631   -44190.888     55.66247   0.94165785 
   94300    209.88166    203.78832    132632.89   -41602.043    2611.3268    -44213.37    55.812435   0.94164796 
   94400    211.97657     180.5419    132658.46   -41596.368    2637.3915   -44233.759    55.759743   0.94146647 
   94500    210.40321    61.608227    132685.21   -41538.003    2617.8159   -44155.819     56.07663   0.94127664 
   94600    208.07432    71.458035    132491.35   -41572.911    2588.8401   -44161.751    56.106736   0.94265391 
   94700    207.67104    188.36821    132534.58   -41618.783    2583.8225   -44202.606    56.124143   0.94234647 
   94800    208.21894    65.901784    132512.95   -41618.811    2590.6394    -44209.45     56.13062   0.94250027 
   94900    209.68601    210.18199    132542.33   -41588.065    2608.8926   -44196.957    55.949229   0.94229138 
   95000    211.11758    131.71825    132567.64   -41574.062    2626.7041   -44200.766    55.970952   0.94211145 
   95100    210.84431   -68.136529    132704.57   -41573.149    2623.3041   -44196.453    56.026521   0.94113932 
   95200     207.5576    159.72949    132706.74   -41586.503    2582.4111   -44168.914    56.221409   0.94112395 
   95300    210.14077    169.20449    132682.54   -41495.207    2614.5507   -44109.758    56.148261   0.94129562 
   95400    211.11424    183.04105    132475.96   -41546.481    2626.6625   -44173.144    56.263231   0.94276343 
   95500    211.61483    150.22863    132402.92   -41553.765    2632.8908   -44186.656    56.265144    0.9432835 
   95600     211.3515    166.21943    132417.58   -41538.757    2629.6144   -44168.372    56.278535   0.94317908 
   95700    210.77106    197.05907    132379.34   -41597.971    2622.3927   -44220.364    56.244715   0.94345151 
   95800    209.96292    211.44457    132531.19   -41643.473    2612.3379   -44255.811    56.441907   0.94237053 
   95900    209.97305    222.11497    132465.24   -41597.711    2612.4639   -44210.175    56.459515   0.94283972 
   96000    201.59517    137.89073    132530.25   -41679.191    2508.2272   -44187.419     56.32951   0.94237727 
   96100    208.84725    310.12165    132522.16   -41628.411    2598.4568   -44226.868    56.440172   0.94243476 
   96200     207.4757    116.36762    132560.51   -41665.358    2581.3921    -44246.75    56.468184   0.94216211 
   96300    210.45974    163.57723     132619.8   -41619.933    2618.5193   -44238.452    56.495792    0.9417409 
   96400     211.6008    172.63973    132632.62   -41603.939    2632.7162   -44236.656    56.309352   0.94164987 
   96500    209.21982    150.59648    132544.82   -41655.452    2603.0923   -44258.545     56.49951   0.94227363 
   96600    210.07447    82.000255    132437.42   -41649.682    2613.7258   -44263.408    56.367112   0.94303779 
   96700    204.84228    174.85002    132403.46   -41723.495    2548.6274   -44272.122    56.679087   0.94327969 
   96800    205.55753    148.57784    132423.01   -41766.378    2557.5265   -44323.905    56.823053   0.94314042 
   96900    206.64658    151.01817    132339.89   -41700.582    2571.0763   -44271.658    56.713132   0.94373274 
   97000     208.2142    91.952499    132589.33   -41701.145    2590.5805   -44291.726    56.690357   0.94195736 
   97100    208.15818    58.334396    132365.15   -41688.926    2589.8835   -44278.809    56.516164    0.9435527 
   97200    209.54725    131.00948    132393.57   -41694.461    2607.1662   -44301.627    56.747804   0.94335013 
   97300    209.22753    159.81997     132552.2    -41698.27    2603.1883   -44301.458    56.834484   0.94222118 
   97400    206.86443    180.95088    132473.75   -41707.727    2573.7868   -44281.514    56.838663   0.94277918 
   97500    212.26468    158.02048    132377.52   -41612.652    2640.9761   -44253.628    56.683969   0.94346453 
   97600    207.94032    139.91578    132453.43   -41681.673    2587.1729   -44268.845     56.69204   0.94292377 
   97700    211.91259    215.90586    132378.34   -41626.247    2636.5955   -44262.842    56.602882   0.94345869 
   97800     212.7938    129.20423    132508.54   -41618.281    2647.5594   -44265.841    56.794456   0.94253164 
   97900    213.04471    30.906765     132484.6   -41575.641    2650.6812   -44226.322    57.011406   0.94270198 
   98000    214.83371    181.87866    132575.09   -41595.753    2672.9398   -44268.693    57.039352   0.94205851 
   98100    207.87471     201.2066    132410.76    -41661.35    2586.3566   -44247.706    56.856797   0.94322768 
   98200    210.87668    65.817253    132404.41   -41633.207    2623.7068   -44256.914    56.840026    0.9432729 
   98300    208.51235     109.7527    132419.16   -41648.892    2594.2901   -44243.182    57.050449   0.94316782 
   98400     208.3281    229.49296    132345.03   -41654.731    2591.9977   -44246.729    57.049443   0.94369614 
   98500    207.90831    132.13644    132446.24   -41652.175    2586.7747   -44238.949     57.05169   0.94297497 
   98600     210.1355    237.19847    132423.24   -41683.454    2614.4851   -44297.939    57.249835   0.94313877 
   98700    205.31795    187.59449    132463.97   -41737.106    2554.5456   -44291.652    57.200909   0.94284879 
   98800    205.36876    116.41441    132515.18   -41709.364    2555.1778   -44264.542    57.381541    0.9424844 
   98900    205.37802    164.85982    132673.51   -41715.315     2555.293   -44270.608    57.384888    0.9413597 
   99000    205.70604    56.154399    132353.11   -41749.733    2559.3742   -44309.107     57.31849   0.94363854 
   99100    210.36623    208.56684    132140.87   -41671.857    2617.3558   -44289.213    57.209468   0.94515413 
   99200    208.55634    286.04242    132204.14   -41664.719    2594.8373   -44259.556    57.178913    0.9447018 
   99300     212.0588    224.17501    132230.79   -41622.116    2638.4146   -44260.531    57.104634   0.94451143 
   99400    213.26471    291.60432    132354.42   -41605.777    2653.4185   -44259.195    57.322935    0.9436292 
   99500    209.67585    150.22624    132444.92   -41497.657    2608.7662   -44106.423    57.510042   0.94298436 
   99600    212.20439    185.35531     132417.9   -41524.249     2640.226   -44164.475    57.464593   0.94317679 
   99700    215.65042    199.62634    132471.13   -41537.323    2683.1012   -44220.424    57.335848   0.94279781 
   99800    212.45669    239.07709    132456.43   -41558.875    2643.3651    -44202.24    57.298908   0.94290244 
   99900    209.34679    142.45352    132181.55   -41620.447     2604.672   -44225.119    57.212158   0.94486327 
  100000    207.99138     118.7864    132256.32   -41623.221    2587.8081    -44211.03    57.362744   0.94432911 
  100100     214.7247    251.02669    132353.47   -41550.966    2671.5835    -44222.55    57.696652   0.94363593 
  100200    211.51379    85.508105    132248.84   -41550.018    2631.6336   -44181.651    57.587594   0.94438252 
  100300    217.98066    167.43634    132361.61   -41534.942    2712.0938   -44247.036    57.888803   0.94357793 
  100400    212.40242    175.88444    132455.97   -41577.444      2642.69   -44220.134    57.880255   0.94290574 
  100500    214.24416     72.82716     132272.1   -41504.953    2665.6047   -44170.558    57.800455   0.94421642 
  100600      208.272    180.88155    132131.93   -41592.064    2591.2996   -44183.363    57.528104   0.94521806 
  100630    213.34003    220.61076    132227.42   -41578.505    2654.3556   -44232.861    57.602908   0.94453547 
Loop time of 77.3584 on 6 procs for 100000 steps with 4175 atoms

Performance: 558.440 ns/day, 0.043 hours/ns, 1292.685 timesteps/s
98.5% CPU use with 6 MPI tasks x no OpenMP threads

MPI task timing breakdown:
Section |  min time  |  avg time  |  max time  |%varavg| %total
---------------------------------------------------------------
Pair    | 60.987     | 62.97      | 63.92      |  12.3 | 81.40
Neigh   | 4.8397     | 4.8724     | 4.9302     |   1.4 |  6.30
Comm    | 6.0014     | 6.9675     | 8.9711     |  37.4 |  9.01
Output  | 0.15954    | 0.16034    | 0.16361    |   0.4 |  0.21
Modify  | 1.7438     | 1.7659     | 1.7897     |   1.3 |  2.28
Other   |            | 0.6224     |            |       |  0.80

Nlocal:        695.833 ave         715 max         687 min
Histogram: 1 1 2 1 0 0 0 0 0 1
Nghost:        1456.17 ave        1471 max        1444 min
Histogram: 2 0 1 0 0 1 0 0 1 1
Neighs:        0.00000 ave           0 max           0 min
Histogram: 6 0 0 0 0 0 0 0 0 0
FullNghs:      19221.0 ave       19970 max       18946 min
Histogram: 2 2 1 0 0 0 0 0 0 1

Total # of neighbors = 115326
Ave neighs/atom = 27.622994
Neighbor list builds = 5218
Dangerous builds = 0

undump              1
unfix               2
unfix               3
unfix               4


################################################
#######         Run Simulation         #########
################################################

reset_timestep      0
log                 log.run_${NAME}
log                 log.run_liquid_density_MLmW
