LAMMPS data file via write_data, version 29 Oct 2020, timestep = 800000

4175 atoms
1 atom types

-0.6723524196062307 50.672352419603556 xlo xhi
-0.6723524196062307 50.672352419603556 ylo yhi
-0.6723524196062307 50.672352419603556 zlo zhi

Masses

1 18.015

Atoms # atomic

268 1 -0.4699559357169097 1.2151997713885383 1.2698095335820005 1 0 0
12 1 1.595717120358092 2.4269690031760596 -0.08461490811869687 0 0 0
211 1 4.547816580440085 1.4270805879927884 2.920529490032355 0 0 0
3830 1 9.019012557413765 1.1901819840170065 1.663795522936797 0 1 1
704 1 11.510565255718692 1.745447076267264 2.297425812169989 0 0 0
20 1 46.65366918871949 22.952316031587106 13.380570695867256 0 0 0
4097 1 20.922879804889508 0.38113243165822563 -0.09864553763444128 0 1 1
1840 1 6.276429630652986 11.898228200890856 -0.4675445101925253 1 0 1
479 1 28.262081642648404 1.2183269320537136 0.9640595896157687 0 0 0
1826 1 30.735828073673336 1.7074812438459337 0.12358977449344699 0 0 1
185 1 36.04431466256325 1.134963507796408 0.913200122232759 0 0 0
394 1 44.3871102208287 1.9760549402992962 0.8151972910768193 0 0 0
322 1 42.37198373873481 0.2800190248758474 1.3392118125394372 0 0 0
2398 1 46.69786208652624 0.9703545990523685 1.8845515789266472 0 1 0
2343 1 3.881308571162842 3.541864429316276 1.2327701899318855 0 1 0
610 1 8.291032579317783 3.899319510390944 0.3656635104073116 0 0 0
592 1 7.124911904324621 5.551155219249794 2.842999993776357 0 0 0
690 1 13.2399278691063 3.5135842808441984 0.9425804635479085 0 0 0
1503 1 15.809692840392948 2.6536805011690197 1.069069778757254 0 0 1
423 1 17.588122425411672 5.074526032404931 0.7632707557582543 0 0 0
670 1 20.36475735665473 4.426244557952714 0.2828300624330462 0 0 0
2021 1 24.313664903562508 2.42164929151279 0.033849431237762184 0 0 1
143 1 23.39460725470623 2.1829726305093407 2.746441865916632 0 0 0
95 1 27.02343262914691 3.1598849768831414 0.02859729916299425 0 0 0
342 1 27.6938205414399 5.4922714834082935 1.0856446240879065 0 0 0
58 1 32.05563125990972 3.078243421930891 1.9909430553221368 0 0 0
115 1 30.336516008086186 5.42275942719931 1.905326908834331 0 0 0
67 1 34.73988960066612 3.4651355680108527 1.2068494625036594 0 0 0
43 1 38.006162178848825 5.4911755583348345 2.193621798145125 0 0 0
3784 1 38.45431517553901 2.9032177224731637 1.0863135300371776 0 1 1
619 1 48.64797869098433 2.8306445923474954 1.6322019298760657 -1 0 0
340 1 1.2952109312628042 18.32591349421831 -0.43432008059783267 0 0 0
174 1 1.1363638285858981 7.1349937530958885 0.10290580773393077 1 0 0
332 1 50.14333974529028 8.521512202816087 1.3082795772711142 0 0 0
2662 1 3.0550442374059386 5.99726829877515 1.8846499275740203 0 1 0
1597 1 11.514683651854522 7.655312673935104 1.0261613236634872 0 0 1
61 1 13.339626365991501 6.004508522698258 2.433886830834934 0 0 0
422 1 23.49650140073904 7.338283046972563 -0.15477705190911173 0 0 0
2068 1 24.194786842469167 7.7138362821855715 2.4556394270784727 0 0 1
705 1 31.850211759227424 6.433633693653474 -0.1035504854825261 0 0 0
1786 1 33.7691528254484 8.255567087763007 0.5395705431379567 0 0 1
9 1 38.238991399241 7.358676412525492 -0.0200580707157626 0 0 0
1434 1 39.340340723324175 9.291056798202419 1.777256786106483 0 0 1
579 1 43.92826064896643 6.602931598442688 1.4416498396786994 0 0 0
1696 1 17.059772356477588 22.85437201718477 -0.5194991242676912 0 0 1
312 1 46.13228019872784 8.326638960933451 1.8253908950234772 0 0 0
222 1 48.02889247023086 7.525024872098433 -0.1506165822891592 0 0 0
1851 1 1.9188177873853536 11.554214529263387 0.011073818305675998 1 0 1
388 1 50.6580902016012 11.238058820293313 0.6397075503347898 0 0 0
466 1 3.6373069891275236 11.460630491707873 2.6018113140917354 0 0 0
595 1 5.4410068179550075 9.846739756098035 1.668781752711162 0 0 0
2140 1 45.22665840222932 24.78839139881481 10.416106440436556 0 0 0
1984 1 15.14763985572186 9.89668610065006 1.1820338316065868 0 0 1
709 1 14.934995805396445 12.25751777807074 2.3764955495557607 0 0 0
459 1 19.69852709370495 9.867729656449637 1.0642101426524742 0 0 0
11 1 25.76000939877184 11.165857682326717 0.01133965780727042 0 0 0
567 1 35.542611839271885 -0.5007446108021725 11.88373025453819 0 0 0
86 1 31.851783579006725 10.589297847729918 0.4967748144215971 0 0 0
42 1 36.11084121814072 11.996703947775616 2.9419930119192474 0 0 0
1801 1 36.50867438328227 10.119130498383678 0.7411693138085558 0 0 1
663 1 40.34182148835431 11.757763331468679 0.4900696048416471 0 0 0
1567 1 44.099143746428624 10.119614452937332 0.8522240265418732 0 0 1
615 1 7.294592237287239 14.379218965996138 3.0312059406443543 0 0 0
78 1 8.55915317146122 12.488616266352286 1.4516868008996098 0 0 0
154 1 10.28665318052893 14.642488949409442 1.6180038633893004 0 0 0
1577 1 14.550327737900112 14.038660039116428 0.27199056706376235 0 0 1
570 1 23.04911996068529 4.6727660150955455 -0.6273295109621972 0 0 0
516 1 23.374840642103205 12.558055268576762 -0.274335842783632 0 0 0
4146 1 22.12076918351025 13.431160143483547 1.9226234634808503 0 0 1
1863 1 29.179599273702294 13.480473908527975 1.3406882764453418 0 0 1
273 1 33.775826071701516 12.649823423054753 1.456355807358713 0 0 0
2042 1 26.523293983452202 19.809479001651315 0.13890539082547382 0 0 1
177 1 41.62508306962843 14.391362913983091 0.46309333604084 0 0 0
341 1 46.401451567501965 11.867569535918578 0.587000489024819 0 0 0
1760 1 45.93311127822463 14.568160304043017 -0.011743909219110837 0 0 1
62 1 50.34346487077596 20.06071609789816 -0.2015378336024763 -1 0 0
8 1 -0.1527637550937474 15.493030911602649 2.175111683953819 1 0 0
343 1 7.559356373090472 17.18697905073304 2.225156254494926 0 0 0
1543 1 9.407338866579074 16.99212372705134 0.16960238992016796 0 0 1
205 1 15.10990533475887 16.831443451139396 1.2439579443627669 0 0 0
501 1 17.684840005548125 17.099110748538184 1.9311326146985008 0 0 0
296 1 19.93475671174103 16.46776161821886 0.6125847861963509 0 0 0
1780 1 25.548750075656116 16.90973847882031 0.6772972804913853 0 0 1
593 1 23.725909159637524 17.58187440349664 2.6206886443601296 0 0 0
1501 1 27.85091700609142 15.987781845177832 1.9788578049735097 0 0 1
2383 1 31.87189138647121 17.39795634262544 1.8349551096471952 0 0 0
1416 1 31.7770089359102 19.739632308050066 0.3350354581455883 0 0 1
337 1 38.03354365338184 15.945226315721627 2.2080153982533126 0 0 0
1557 1 36.35566340477422 15.765110258737252 -0.2627468011911836 0 0 1
27 1 40.436248026803284 16.864960604257618 1.0899096575650502 0 0 0
675 1 43.61502485454365 17.900423918572088 2.3826236516968637 0 0 0
272 1 19.1556993437901 13.825703861917248 -0.5305746380657608 0 0 0
1820 1 44.87924213907989 15.588105562959413 2.3981331993288175 0 0 1
1957 1 43.0622797598831 18.50737250588838 -0.374305747187318 0 0 1
244 1 3.0491840250973623 18.638794494087826 1.6080751864597613 1 0 0
1779 1 5.721091239091181 19.037972351201063 1.536755436203916 0 0 1
520 1 6.662485045662918 21.730404251957196 1.8169930354219277 0 0 0
1869 1 11.269289664802365 19.02031195431461 0.8808567205535622 0 0 1
1888 1 31.38570423909304 15.109715601808423 0.41395062341790134 0 0 1
689 1 14.848083117253525 21.565190491430496 0.5075425370988014 0 0 0
234 1 19.784118131497173 20.98122701646407 1.9870595103058668 0 0 0
3926 1 21.302545005651446 20.675573728765542 -0.29042033104867865 0 0 1
233 1 23.721185767953667 19.74780125214673 0.9695175222033325 0 0 0
52 1 28.218351833576293 20.32424091951395 2.2152828158335236 0 0 0
1561 1 0.697681529196019 15.663045486768002 -0.3714784068804839 1 0 1
2795 1 36.91340173533341 21.629777743928948 1.813570229347699 0 0 0
912 1 30.83046290857334 24.675481395659073 13.817287080327263 0 0 0
243 1 46.27439834459227 20.220148093867515 1.494425498429325 0 0 0
1487 1 48.30880552893146 18.390589494086264 0.7864267785856396 0 0 1
1649 1 5.090955227684391 14.440975810429277 -0.46336656735266 1 0 1
357 1 1.2217556689027282 22.887676444435076 2.8139402367137083 1 0 0
2116 1 5.633200360952934 23.960707026283355 0.7179540708920953 0 0 0
2316 1 9.17541380449642 22.949843889502773 1.6887540475586094 0 0 0
209 1 10.844279614827084 21.65850845519612 -0.1175821948495086 0 0 0
2105 1 13.135471949923733 23.26484507767757 0.21535872643823395 0 0 1
351 1 37.583416569118796 19.888224481466622 -0.33273971004659214 0 0 0
4081 1 29.21993514566397 23.024339041529622 -0.5606253491563437 0 0 1
2404 1 18.96809624862417 23.335640674307403 1.2344157325445364 0 0 0
887 1 17.38408537643057 22.95992832983764 16.22927316652035 0 0 0
261 1 34.35126881178935 22.01311885061351 14.839737403849595 0 0 0
2756 1 7.375061523793267 -0.1592710736103824 5.736318626729148 0 1 0
3687 1 30.038231451284567 22.355069335407304 2.0762380727662615 0 0 1
128 1 34.43817973639446 23.197357049256844 1.759007738578335 0 0 0
629 1 38.28226933157512 23.819803540246248 0.8355373342171584 0 0 0
2555 1 41.15721210966785 23.517961720659383 0.8144767570603546 0 0 0
1880 1 45.84323575591742 23.774200168452868 0.6297919414778532 0 0 1
2498 1 50.39830583937979 22.530610421396542 1.0340693716745977 -1 0 0
1968 1 47.89919059537149 22.44446112795469 2.3026800648476535 0 0 1
2594 1 0.5980225155265417 0.9141194086482463 5.4189063768282715 0 1 0
484 1 3.267797140211312 1.904711171128739 5.203731976240825 0 0 0
73 1 43.714449698518365 -0.18544847572081674 9.140686748351156 0 0 0
2674 1 7.03195955983598 1.4462677022299704 3.6851346867524075 0 1 0
2351 1 33.403773049186526 24.889509025081924 14.71481889147515 0 0 0
1716 1 12.267026994590848 2.6756385314871105 4.960237858555016 0 0 1
465 1 15.970985688925389 1.2138773775978282 3.835245847026295 0 0 0
591 1 14.838330692288174 2.268177927553419 6.067998005325197 0 0 0
265 1 18.624135868594195 0.6815141051051881 4.180360379595174 0 0 0
179 1 22.898739316682185 -0.4170183420470017 3.1130528220872375 0 0 0
144 1 38.90394109772615 -0.05787609492782764 4.2384914260236926 0 0 0
258 1 27.3010139456155 2.099257693860012 5.108172056142545 0 0 0
2360 1 28.021255844469216 0.07442836635813388 3.4865347396181896 0 1 0
285 1 30.672221791468417 0.0969411185362603 14.786095760145978 0 0 0
247 1 31.232800502715776 2.0349518287198776 4.444777497982642 0 0 0
638 1 31.741153115942826 -0.6698967620232708 -0.3044225696969238 0 0 0
696 1 35.218571486168486 0.1822542497581372 5.74423890388564 0 0 0
2578 1 18.832599005942676 -0.663966686168834 6.613602321864384 0 1 0
2814 1 40.36813715895009 1.609203734747691 2.6287118380182184 0 1 0
1892 1 23.195732603190457 24.614889424847032 2.170558176924462 0 0 1
639 1 7.431350869937813 3.8051692689134287 5.012954490517094 0 0 0
530 1 11.795957444443427 5.44352612186389 4.792531069342425 0 0 0
682 1 19.620494228420647 3.205708730331791 4.927514099653389 0 0 0
1972 1 18.161869849912332 5.53662120735694 5.48348954078148 0 0 1
452 1 21.42618162124919 3.981726622520844 2.9938348077341175 0 0 0
188 1 25.284907924057872 3.558809816612891 4.267700546184212 0 0 0
69 1 35.54007396660161 4.309602848324726 5.674614778494108 0 0 0
482 1 38.44293317224745 4.585187341236141 5.423810291765749 0 0 0
589 1 44.16049192928456 4.125157576751466 2.805937432606689 0 0 0
289 1 41.53594473906722 3.8995641517831405 3.7825594329070924 -1 0 0
525 1 46.23232613141083 4.880604972325948 4.393094260683009 0 0 0
2532 1 48.86303339188552 4.480018649074625 3.9022891372854316 0 1 0
267 1 -0.4276567556065377 6.14057875674614 5.080473693933749 1 0 0
626 1 2.3536425037932203 5.768393741251909 4.4910152716277 0 0 0
18 1 3.892537508444203 7.916563638856747 5.2481412324029835 0 0 0
150 1 5.144402294835341 7.438589168603121 2.8046343813979324 0 0 0
677 1 9.284645741509879 6.724333406956364 4.861612657760798 0 0 0
2031 1 14.184488676900097 8.904122883618072 5.761915566458074 0 0 1
1918 1 15.191654726531743 8.034218984319565 3.2469689695091475 0 0 1
136 1 19.73232475653816 8.415772028960877 3.3067308118559264 0 0 0
706 1 17.588611841454096 6.7126568802468025 3.2419065524206045 0 0 0
79 1 21.941176565968934 6.700788768079802 3.90552453018403 0 0 0
495 1 26.25539676036269 6.013777840835186 3.1502009696287976 0 0 0
411 1 27.547343523573897 7.253049439900583 5.053681628518566 0 0 0
382 1 31.645959796723115 8.342875981678702 4.4584652521884784 0 0 0
306 1 30.25636702557524 5.94463980933154 4.7518392371873635 0 0 0
303 1 33.950732201464916 7.860506518629041 3.088575704614353 0 0 0
654 1 35.198989412109896 5.448742835669099 3.05279260818953 0 0 0
1701 1 40.01402318672501 6.093924025481714 3.792868958732589 0 0 1
75 1 38.490607014919064 9.170093668954967 4.497940955471995 0 0 0
434 1 42.06035369246574 7.948806170243692 2.867761824105123 0 0 0
511 1 43.241874510734476 7.830661458546514 5.381833959788772 0 0 0
659 1 45.84565797786318 7.408376111520596 5.557246595739067 0 0 0
23 1 49.97607784463992 8.648701330843465 4.039814242197644 0 0 0
616 1 0.04258055131558647 10.275876570772725 5.946426312165738 0 0 0
500 1 2.798428059699421 10.228802333598221 4.901049812819236 1 0 0
280 1 8.009215469736437 10.324037267151462 3.070493559546124 0 0 0
189 1 7.910961205664398 11.470609317646502 5.88598099430502 0 0 0
493 1 10.322141383449273 8.702699349591999 3.1873761169380397 0 0 0
1969 1 11.958284236176311 10.19903217568752 5.021336566382483 0 0 1
135 1 19.76953162601847 10.191397528550507 5.6291083012211285 0 0 0
1222 1 25.461679048251547 10.278550798956234 2.561109194990694 0 0 0
229 1 23.354503972967706 11.638108730597047 3.7469167756502655 0 0 0
649 1 27.776650197413932 9.880861111045986 3.898697482793403 0 0 0
89 1 30.474322021967566 10.36297004304976 2.9059203465589345 0 0 0
1 1 35.94168766091565 9.689677017267883 4.345692736761082 0 0 0
108 1 42.16776683597804 10.906065513318914 2.9959537680522694 0 0 0
255 1 42.48231349226387 10.533176138504281 5.780116201831376 0 0 0
224 1 47.23511762934501 9.055704680499229 4.1111933468978465 0 0 0
536 1 47.0990332329376 11.692291844084524 5.3505907724087365 0 0 0
640 1 -0.3159764373521217 13.181770817757394 5.351354299727034 0 0 0
38 1 4.548162808940012 14.112786223986832 2.569800005077821 0 0 0
263 1 4.888651488001718 14.50950782980304 5.608055365940381 0 0 0
159 1 11.936824161855519 15.251360457279768 3.76738788614992 0 0 0
421 1 12.854832626823864 12.57498102062803 4.288110546564431 0 0 0
276 1 17.461754706447508 13.029028889635898 3.750195171684804 0 0 0
1877 1 19.663050200151513 12.45669966437866 1.72527701691671 0 0 1
1196 1 25.057186607232573 13.038325743138719 5.500105088532741 0 0 0
2570 1 30.848651141224455 12.873419951798823 3.4646228914716133 0 0 0
503 1 33.54248565548235 14.169856818887121 3.9281730875292613 0 0 0
253 1 38.51358120737483 13.176989583423163 2.572471482465097 0 0 0
489 1 39.296142708061495 13.425287797816505 5.31346088968534 0 0 0
1726 1 42.79797207687392 13.924949441658997 2.901445401454214 0 0 1
10 1 41.55587531522984 15.036365395104248 5.170718132547865 0 0 0
594 1 47.55100635717531 13.008725685124377 3.037503073600262 0 0 0
494 1 50.231544341263316 13.087020260653835 2.678392403399851 -1 0 0
54 1 2.6515815510401937 15.985557895829427 3.0552049359556834 1 0 0
32 1 2.375527100104336 16.327898330019405 5.792935252322402 0 0 0
607 1 10.115741728715697 15.80889731865626 5.67265489277901 0 0 0
331 1 8.908205377741526 18.04832730209006 4.547409562309035 0 0 0
2097 1 13.960538319632324 16.91737494377364 3.8223781957036866 0 0 1
328 1 15.66306364188059 15.696290535376413 5.596056915356727 0 0 0
477 1 18.11920731620939 15.584051786166235 4.34406106906081 0 0 0
376 1 20.81439429045367 15.703581803151014 5.513449794294192 0 0 0
2403 1 18.40896281226739 18.361170860634765 5.96110664850718 0 0 0
109 1 21.756876231442053 15.951581321970487 2.6665448493095583 0 0 0
454 1 24.743470347472517 17.200480904913306 5.2235319649959955 0 0 0
557 1 29.24232528118494 17.900387623351374 2.9200502716742958 0 0 0
101 1 26.665849372104443 15.407881756438396 4.480170178574296 0 0 0
350 1 29.935725928304702 17.603419837032504 5.588106399414463 0 0 0
531 1 33.81156093755246 16.91730974964858 3.8096838894661715 0 0 0
270 1 36.65497847946824 17.33470659426942 4.344912392706506 0 0 0
2567 1 40.157445727015954 18.11479090045274 6.639672757107055 0 0 0
1865 1 41.20130248085883 17.39481494863935 3.4537468540375285 0 0 1
47 1 47.04770332755615 15.520968123575813 3.9651772168083292 0 0 0
514 1 49.237241846242156 17.21836509084105 3.0970518217048553 0 0 0
91 1 50.20746568166531 17.89489426211608 5.7641214347971585 0 0 0
456 1 1.3151067558384815 19.367770649730968 5.933791819982868 1 0 0
496 1 2.661087089682022 20.617543514320012 3.717679539958927 0 0 0
2728 1 6.92451296935306 19.81148612958539 5.9428025829901285 0 0 0
31 1 10.934655449729338 19.692327274546717 3.7828832194829145 0 0 0
2504 1 13.341821528246898 19.564866150998945 4.841167295637515 0 0 0
2277 1 15.345470039883256 20.851955852311924 3.209245601343231 0 0 0
2557 1 17.928244431759953 19.603643404267967 3.2289009550538474 0 0 0
2197 1 21.239385754485856 21.500013810184097 4.303863217982814 0 0 0
2712 1 23.708668904733898 21.960357520139937 2.8207243674179687 0 0 0
299 1 26.13635849997887 21.309030101332414 4.045369972846148 0 0 0
266 1 32.41779521488753 21.42601639538954 2.3158206267248977 0 0 0
2319 1 32.92876370778775 20.62208587080832 4.963585561084543 0 0 0
1720 1 37.55215595949633 20.000501502503795 3.967040381755198 0 0 1
1776 1 40.288481094578444 20.207976731056156 4.099747746176301 0 0 1
443 1 44.90125329466544 19.799166316136187 4.022943065296222 0 0 0
661 1 45.89674553435812 18.500088554976504 6.188733473863281 0 0 0
2117 1 0.9108275255950888 23.788039142907728 5.396151148406742 0 0 0
633 1 5.072805876667038 21.463476232841714 4.411189709429941 0 0 0
2142 1 5.322631028991683 24.127025297525538 5.090047847929517 0 0 0
239 1 10.199127001234698 22.329145794897766 4.1072182869813965 0 0 0
370 1 12.917197679851366 22.592393415720867 4.821678507269861 0 0 0
2492 1 16.006034914995343 23.343514714190302 4.563598401439675 0 0 0
2 1 18.309149932120302 24.525407501904 3.6983401695019626 0 0 0
678 1 20.38707710031726 23.85384242080307 5.4103942847380875 0 0 0
338 1 27.795605464497584 23.29262095539316 5.094789226181545 0 0 0
2893 1 39.15427293569064 -0.5014473969054567 8.85577321108671 0 1 0
104 1 29.898018233746463 24.388727112223346 4.062233215787284 0 0 0
1934 1 41.51181151242767 22.59468945296847 3.489268531677328 0 0 1
2699 1 43.84522658042843 22.146265481919226 5.057251020712632 0 0 0
1193 1 45.49225823505634 24.247597731502104 5.484197619236729 0 0 0
37 1 48.050049351841224 23.346930092339875 4.768380738355089 0 0 0
509 1 0.9219188824651345 -0.28485205552227455 11.981527584547765 0 0 0
701 1 4.895402274782485 0.08565595086204436 6.682599793294092 0 0 0
598 1 4.552626226275436 1.575219225271924 8.760319514514245 0 0 0
578 1 9.405621959667794 0.9073443615774273 7.237021066814359 0 0 0
1161 1 9.431195035709933 1.0948775546139187 10.054244612217545 0 0 0
2665 1 13.474697713071633 -0.1323739927805334 7.23151321389556 0 1 0
2221 1 12.626780997603007 24.508997826637774 2.5792083077553705 0 0 0
2363 1 21.641195329498704 0.06270110431793507 7.524055439015424 0 1 0
1747 1 25.865112479918132 1.3263017248432343 7.329272733181234 0 0 1
2750 1 15.668248862884141 -0.6440019749030946 10.575768134398636 0 1 0
2707 1 30.27714851078572 1.9877869950045555 8.686198331510786 0 1 0
433 1 33.10812844949841 1.8502248952894012 8.706111496839217 0 0 0
349 1 37.52216004434963 1.8132864470413126 5.8927093591602375 0 0 0
220 1 38.98480410580153 2.1726765995213873 8.554982206755025 0 0 0
642 1 15.817872814921145 24.352027821072667 10.475834278335373 0 0 0
187 1 48.589675474818705 24.878909565202754 13.527100593027244 0 0 0
4 1 49.741769775333026 2.5922619478098534 5.483243387560152 -1 0 0
2225 1 47.45763766142322 1.3077942033617893 6.370715471431707 0 1 0
123 1 -0.461899635118891 3.7604150657118396 7.732906778632422 1 0 0
2364 1 3.3713921620586493 4.071081623876799 6.512857025223741 0 1 0
535 1 2.394704812882174 3.341026017899469 9.02983661253668 1 0 0
2644 1 5.715556517520035 4.968566434703325 7.132092364353067 0 1 0
686 1 6.028559728890073 3.6705136430750445 9.456725535126882 0 0 0
116 1 9.745113605826846 3.5261089090478874 6.380197753338366 0 0 0
100 1 9.945010176324857 5.318434820702446 8.416922700274737 0 0 0
540 1 12.718692146125386 5.903211135723048 9.13974305275648 0 0 0
1667 1 15.844757951701528 4.66125645742908 6.899057041427514 0 0 1
321 1 16.675228576998897 4.21904447790303 9.47765224440774 0 0 0
2705 1 21.57530325527783 2.8602831895886527 7.05547919935745 0 1 0
474 1 24.286366100654433 3.720048788144368 6.9076561782205745 0 0 0
2174 1 25.50652092746424 2.92046562413135 10.036090581335339 0 1 0
444 1 29.501209524863334 3.341960218347433 6.193069977093019 0 0 0
96 1 33.21604592713801 2.1825746330335773 5.922923888037774 0 0 0
156 1 40.70011823180215 4.089392277255998 7.096507761573942 0 0 0
621 1 43.13081489030054 3.1131255167906002 6.011350390601594 0 0 0
327 1 45.68390778731285 3.564162718558329 6.674137667610778 0 0 0
83 1 46.43189088612681 4.751231159724711 8.917590293056541 0 0 0
171 1 5.966551011939022 7.9059883178408015 7.578566380828244 0 0 0
22 1 8.796694749850912 7.613411750397958 7.494731191793759 0 0 0
221 1 13.876531634418207 6.228692616008476 6.658504913594467 0 0 0
658 1 18.961946049927317 7.622805567309797 7.058895906593664 0 0 0
178 1 17.81303419055837 8.710998030260187 9.290541636583143 0 0 0
612 1 23.497166086425885 6.579363507772495 6.233701462129216 0 0 0
440 1 21.661272895575074 7.708803350273978 7.8458956983685795 0 0 0
605 1 26.27966635545342 7.491639031191873 7.50300384078276 0 0 0
160 1 28.29412408690388 7.5761326888691976 9.302204941062291 0 0 0
442 1 30.275453731841303 5.924914431436003 7.9872256228110015 0 0 0
625 1 32.57700012575094 7.661402534694975 8.267689955931587 0 0 0
410 1 34.69975841114724 6.076336312398131 7.6304446986969054 0 0 0
574 1 36.747621380851044 7.198203723463961 8.878880049608194 0 0 0
438 1 38.87844231632255 7.323952954887237 6.826657593703435 0 0 0
381 1 41.3799331063334 6.702931479968435 7.527394535838615 0 0 0
371 1 47.22944485764262 7.08155530044793 7.825873532646861 0 0 0
141 1 49.89290357234201 6.3425752088735585 7.662209265601927 0 0 0
415 1 0.30476862840866514 8.645023760028732 8.153355830100717 0 0 0
2161 1 5.674273983778181 10.724404948993387 7.360892545830483 0 1 0
429 1 10.249886232049578 10.54234692226135 7.134729628935892 0 0 0
651 1 10.452825221884652 8.642344762665527 9.658525132159294 0 0 0
554 1 15.810711052238737 9.968075067594691 7.609098557722552 0 0 0
145 1 17.36137832319398 11.773860786436268 6.353317869356904 0 0 0
944 1 21.874919292092574 11.52887605637546 6.22378557856341 0 0 0
518 1 22.81665663945568 10.078052052867802 8.082816056929195 0 0 0
533 1 25.693749970450895 9.945953314528008 7.92307292712278 0 0 0
620 1 27.086069596197664 11.185332952595282 6.119286946649418 0 0 0
543 1 30.457988388697913 11.13942638394984 7.763078918073598 0 0 0
94 1 32.63752147181431 9.856288742987584 6.564301035669444 0 0 0
231 1 35.40006698210318 11.05224591803796 6.596236613888299 0 0 0
587 1 36.25420629762144 10.045173579567345 9.159748320150305 0 0 0
645 1 39.574935651091394 10.876005528849788 6.364823742353291 0 0 0
420 1 38.825720938112866 10.982239120432993 9.004685420384298 0 0 0
538 1 44.49785719869794 11.840199915941907 6.7768049816654115 0 0 0
583 1 44.88909579476929 10.620473603342974 9.364943706815588 0 0 0
131 1 49.72860758440561 10.291869351366477 9.090363700683225 0 0 0
282 1 3.5635946970976304 12.136854181881542 6.586024038060895 0 0 0
665 1 7.211519199445984 14.876002163038196 9.244985947454508 1 0 0
476 1 10.08087494597129 13.573715335139756 8.11751410896563 0 0 0
80 1 7.705261576401268 14.433560572256447 6.008209254240935 0 0 0
146 1 12.939607526382405 12.172829718312839 8.03867331360274 0 0 0
687 1 14.614253348002572 12.880611308708742 6.115346013636655 0 0 0
363 1 18.22478867558662 12.961386690587426 8.636301097634696 0 0 0
138 1 20.91302755216438 13.575369895960552 7.601513446174874 0 0 0
2633 1 24.53643313461049 15.076035461808361 7.3854617228074595 0 0 0
876 1 29.297276530381946 12.808397103926781 5.600673338965879 0 0 0
151 1 34.03237512949566 14.37623533947322 8.685565472454682 0 0 0
660 1 35.33126780069968 13.642998894061876 6.129624732515149 0 0 0
364 1 37.699567522551106 14.52683756447449 7.228985862022194 0 0 0
463 1 43.76296003249874 14.44602056692738 7.027743523501656 0 0 0
71 1 49.0413295221272 12.234064473879831 7.094914491690725 0 0 0
666 1 49.06734256541341 13.792213596176088 9.26275836169698 0 0 0
647 1 -0.04485738220855173 15.470946936005149 6.804611637407347 0 0 0
575 1 5.269393227876948 16.8137604963702 7.546134156408032 1 0 0
251 1 11.609820286508727 16.572039491818977 7.900388445164692 0 0 0
155 1 9.531137470712352 16.49442974383533 10.20103227990456 0 0 0
170 1 15.028606477237828 16.213735836267073 8.294595587797664 0 0 0
44 1 22.34428159691249 17.597929191988978 6.800359453823371 0 0 0
585 1 26.75362554907446 15.721008350926311 9.009771319638071 0 0 0
352 1 28.667305842169107 15.177562111086793 6.8789596523493035 0 0 0
417 1 32.690217935974104 18.051170208633515 5.823330143293722 0 0 0
2452 1 33.31350509888796 16.797247593858394 8.284960109514167 0 0 0
568 1 37.578458117190536 17.12679683624122 7.068231865155128 0 0 0
2143 1 35.67588535062691 18.305373069640083 8.794540758940622 0 0 0
287 1 42.013828021109006 17.869462697338275 8.755163557623503 0 0 0
292 1 46.15462800669893 15.891003619134803 6.671472571301765 0 0 0
2455 1 47.16375968869056 15.81671565831354 9.319792433561362 0 0 0
2139 1 2.7682735421340765 18.406958996362956 8.12986857455383 1 0 0
311 1 6.253480253598231 19.388064535037998 8.557520453272002 0 0 0
302 1 10.169064574795634 19.171624605815445 10.565095143501429 0 0 0
240 1 10.090472042087786 20.96613242927219 8.443279563813565 0 0 0
622 1 12.295737729258843 19.368187178546115 7.377250140589611 0 0 0
3542 1 14.662180785654993 18.99158490158876 8.776264508053504 0 0 1
1761 1 17.10212433301256 19.920855545115813 7.8880401096058375 0 0 1
113 1 18.950961074603565 19.683923688332335 9.969096204009558 0 0 0
2310 1 20.8847713350932 19.59531575685153 6.34068424443218 0 0 0
1385 1 20.959452808331832 21.05841819577854 8.692424063123939 0 0 0
448 1 23.26100753767634 21.061897837710127 9.884056370502243 0 0 0
2265 1 25.99780053982979 19.50020507593626 6.3631946043821825 0 0 0
588 1 28.587596517314957 19.32876036242136 7.346580911316451 0 0 0
694 1 35.794323583390565 21.080700581059514 5.787729687211593 0 0 0
374 1 36.61893794203891 20.716084261838187 8.513992509462714 0 0 0
102 1 39.416662145660794 21.365226643645403 9.331815846369283 0 0 0
2217 1 40.241041049104524 21.24477338997676 6.527628080021611 0 0 0
545 1 44.37920366469376 19.357412610484353 8.403875106560017 0 0 0
2113 1 48.25715819847265 19.156086588585037 7.310705825153112 0 0 0
602 1 0.07930029708894804 18.572659376790266 9.66711654526138 0 0 0
882 1 0.17909727438860612 21.74930319447121 7.445360118565089 1 0 0
623 1 1.6568092279784037 22.122215652914928 9.708293364992967 0 0 0
758 1 41.828086770997274 22.529003202207683 13.359897583570714 0 0 0
2325 1 8.704789625476907 21.95090388360765 6.334638653086705 0 0 0
2287 1 12.679435991516502 24.09374680305357 7.174539734087127 0 0 0
2066 1 11.774061423500847 23.027874547697177 9.370294826665134 0 0 1
1819 1 12.748672401890795 9.510406661896477 -0.3668360983691071 0 0 1
408 1 17.027355909129394 22.665626379348115 7.074350883573938 0 0 0
555 1 19.52235736217438 23.333235335632253 8.146462432835502 0 0 0
385 1 22.515085076511742 -0.2650614976635743 10.232153477454231 0 0 0
2651 1 25.01757142446348 21.385334555344073 8.144168360500585 0 0 0
467 1 28.950059395042825 22.14190104003582 7.108873707079689 0 0 0
2768 1 23.80977132130831 -0.06122277236210427 6.003693929511572 0 1 0
2206 1 31.606706296322823 22.20467490549577 6.876852855100599 0 0 0
669 1 36.36812906067203 24.072050743091406 5.744014903722018 0 0 0
2647 1 39.13785442115065 23.678600954626415 6.057411955404429 0 0 0
529 1 42.902109632541794 21.717405751324296 7.434388334740721 0 0 0
609 1 48.654361386907084 21.991141733363154 7.350369231645468 0 0 0
167 1 0.3734722865926581 1.2877552180761007 9.975045309460171 0 0 0
2461 1 32.01355828770416 24.778506677012224 5.696595761282685 0 0 0
2723 1 5.180060816135682 0.6534393143691779 11.44398927442771 0 1 0
5 1 11.46874165235078 0.17306247241357575 11.438384064243463 0 0 0
129 1 13.479861942484922 1.0581769651582604 9.887055626961386 0 0 0
180 1 18.20626353977564 0.03368684843472447 9.299051257252602 0 0 0
403 1 46.61029839788172 -0.3739230983015954 4.2533589908936555 0 0 0
2368 1 23.010108934072928 2.1848171628848156 11.014152053441519 0 1 0
2268 1 47.51616029798312 4.7888296173501566 -0.3023052841281172 0 1 0
898 1 26.69918482246629 1.2442584556992664 12.309235001370881 0 0 0
2752 1 28.865333711794094 0.35588535387704634 10.505070478281493 0 1 0
2653 1 33.19328870087902 0.16511953375167288 11.271335449198757 0 1 0
2645 1 38.996522128179535 22.893926421457085 13.411763200559653 0 0 0
2430 1 42.72421632726558 0.21171980578378624 6.7175286150431095 0 1 0
358 1 39.562144394281844 0.4275912724786908 11.95435323145082 0 0 0
393 1 43.732816181728424 1.9496500487121495 11.14437251019394 0 0 0
664 1 49.00673471421548 1.0552850460419465 10.305841074867825 -1 0 0
918 1 2.4620355031805157 4.492253540182945 11.482177365360087 0 0 0
2667 1 4.853567203449148 5.574808754305617 11.00249359638996 0 1 0
584 1 8.543938749347024 3.7052519532209303 10.305976157136536 0 0 0
3 1 8.722104201773167 4.337486535125502 12.939934893294497 0 0 0
396 1 14.062548818344544 3.7572953784548435 10.045528750513443 0 0 0
558 1 18.590058339975766 2.3952255730668637 10.669285800617791 0 0 0
1115 1 20.940446194236475 3.7248628276654294 9.611112723714273 0 0 0
82 1 29.751389919262987 4.138094430986542 10.444652874682678 0 0 0
271 1 34.415183522656136 4.078273391127638 9.49309189461994 0 0 0
202 1 32.70960749223282 4.66389453516678 11.588732553252392 0 0 0
293 1 37.04674029815057 3.3459034473004836 10.318120815621862 0 0 0
121 1 37.802603785544136 5.851925465935746 11.155086269185684 0 0 0
72 1 40.46971265771124 5.255734089426257 11.810822999462253 0 0 0