LAMMPS data file via write_data, version 29 Oct 2020, timestep = 800000

4175 atoms
1 atom types

-0.790980506722093 50.79098050672126 xlo xhi
-0.790980506722093 50.79098050672126 ylo yhi
-0.790980506722093 50.79098050672126 zlo zhi

Masses

1 18.015

Atoms # atomic

701 1 2.102675320883702 2.004115279963649 2.0337603605975207 0 0 0
195 1 3.8040420005466684 0.10959233434902882 0.6657625342843856 0 0 0
2502 1 10.435684006581987 1.592099420115269 2.045706603676079 0 1 0
2073 1 18.537781816878734 18.820965782375513 -0.2607111544707168 0 0 1
630 1 19.99371912152089 -0.45462168157617433 5.8927928713345405 0 0 0
13 1 13.053335727845964 0.6853357537148101 1.9104830613479016 0 0 0
1853 1 21.42639069555364 19.650402538361863 -0.4628990677842904 0 0 1
3650 1 19.37961250677718 0.9881336501682836 1.703861319690796 0 1 1
593 1 27.417739039096936 -0.40422600122801894 14.486769583078345 0 0 0
649 1 25.530179326057425 1.1382774546154182 -0.207352539001611 0 0 0
1939 1 34.653148318870194 0.46227487403378476 0.7940339016756908 0 0 1
1874 1 37.07964787269353 1.7900493470240102 0.5906278043261557 0 0 1
2430 1 41.04372847817657 0.3831668784828257 1.09646620740963 0 1 0
1712 1 18.12956064726619 23.24869879980849 -0.6692734918391277 0 0 1
190 1 46.43090950459013 1.2056123886979653 1.184212247131749 0 0 0
86 1 27.159265436777165 24.487499895287844 15.42352190244302 0 0 0
216 1 0.8336483448784222 4.0077287866529545 0.5632048156905611 0 0 0
1429 1 6.731619951423788 4.111964832502574 0.942456413665506 0 0 1
2782 1 9.353480092876676 3.4755539720204993 -0.02146013611812414 0 1 0
89 1 13.775095673096521 5.504635651911703 -0.19321861655613404 0 0 0
4097 1 15.880900883865515 3.3210597327012765 -0.10946044402911226 0 1 1
459 1 18.027145586497635 3.107854330965673 1.866009283776267 0 0 0
1875 1 19.541496997229792 5.142659353438056 2.0816711010929803 0 0 1
569 1 23.20383141304425 1.6893304633299704 1.1703027061173852 0 0 0
1695 1 22.02179168330775 4.280897225169624 1.1297531291942908 0 0 1
537 1 27.296421150541057 2.98734317489564 0.9208282152021048 0 0 0
321 1 19.17990129769171 -0.35246190136726535 11.693243995831013 0 0 0
389 1 32.82761023956946 2.510041558951977 1.8388155496983218 0 0 0
606 1 14.494106432217775 0.9668039600292224 -0.3911477622420921 0 0 0
1461 1 41.972046571877414 2.9099578225175455 1.9718595485920432 0 0 1
2398 1 43.25528269361032 4.314054808762909 0.07209314183182336 0 1 0
2095 1 48.10940454487194 3.2533972317246045 2.075135510064956 -1 0 1
432 1 49.87553218979147 3.3657037073327887 0.09050482228271972 0 0 0
550 1 43.72320548875548 24.769064192643754 13.17033155994193 0 0 0
1495 1 2.264543985324622 8.400235733557567 0.5097078284826921 0 0 1
541 1 6.353372852653068 6.812909861309415 1.0297271255684115 0 0 0
79 1 8.997094555365425 8.37391676596802 1.3451614812681627 0 0 0
336 1 13.47476993618861 5.576069548754046 2.524519844249228 0 0 0
534 1 19.892156574843337 6.914543035654353 -0.052444495560445836 0 0 0
342 1 23.65018519349298 6.419337216012041 0.10149552745037205 0 0 0
269 1 26.52452445052641 5.722336469594534 0.9565301925433147 0 0 0
570 1 28.083293401915398 7.521947774057265 0.15138083036377625 0 0 0
382 1 30.51844341414062 7.684675297806454 1.7565466590350343 0 0 0
2081 1 32.39552939805884 6.28261516913621 0.018619461478308064 0 0 1
29 1 35.03720186468308 7.335641781770402 0.2265024298333993 0 0 0
411 1 36.69758670730912 5.2785741166433535 1.1299479539940447 0 0 0
581 1 39.0371213212763 6.4800355031680095 1.3416546097062287 0 0 0
349 1 43.795417775087394 8.642816989614174 1.9736732905029601 0 0 0
2094 1 44.90893000196778 6.411306803994687 0.7007554266476352 0 0 1
866 1 49.67850919093427 10.81082240692141 15.926937238800253 -1 0 0
1866 1 13.88646574993748 15.077017260477064 -0.49850477628422085 0 0 1
392 1 5.130820856663922 11.765719185637545 1.0157923070418116 0 0 0
134 1 7.984144512047594 11.019887780718154 1.8757072466971074 0 0 0
439 1 13.770324637268255 10.8708689145717 1.5732686581000492 0 0 0
1969 1 15.812108996310897 8.673079252510725 1.4196275468879191 0 0 1
516 1 18.431222790952503 8.834629944298268 0.9585780825604759 0 0 0
479 1 22.20347826618942 8.850932696671824 0.2594307438395864 0 0 0
1768 1 27.233649914996217 10.022892566942067 0.19294568067799123 0 0 1
1863 1 31.878154778387774 10.191606802952458 1.6782206731284854 0 0 1
1760 1 38.4199074272225 11.206953238334746 2.133554465441013 0 0 1
1729 1 31.75159518506836 3.638093510959166 -0.3221051618101015 0 0 1
1764 1 41.80595918372163 9.532405491770536 -0.47861998884883183 0 0 1
1954 1 45.42056785091559 10.80796971882006 2.005107025732562 0 0 1
47 1 47.878384100670516 9.45627085897645 1.5209000359849552 0 0 0
437 1 49.93053971794773 11.171264698612523 0.8796902337308228 -1 0 0
660 1 27.427569096147067 15.924411702537448 -0.32934799383722974 0 0 0
1432 1 -0.6166378485019262 14.45635085514052 1.5693913752237205 0 0 1
2633 1 27.489323861216278 24.733479757552566 11.014745905220462 0 0 0
142 1 9.593966616999666 12.84485429520816 0.1987708487074774 0 0 0
530 1 12.51691027074449 12.725909167564502 -0.13589233867783002 0 0 0
441 1 40.131704462452255 0.5795892424980611 16.33882212684892 0 0 0
708 1 17.406408421891722 13.05169576961443 0.9524237257675923 0 0 0
687 1 19.69374929004658 14.69159864187517 1.8302768538665868 0 0 0
1865 1 39.71748456514627 11.265225088458948 -0.3124715726511866 0 0 1
422 1 25.10163643088053 14.43798266033645 0.8249934368297851 0 0 0
309 1 46.24346468508671 24.06576162418748 14.453623620909664 -1 0 0
105 1 29.3320733241349 14.12160957068401 0.1465561075364742 0 0 0
252 1 35.84940377734552 11.763168637537223 2.1494608968875926 0 0 0
1416 1 35.3956271706477 14.460280533365657 1.0034647291182086 0 0 1
27 1 41.756578916650646 14.86632107708132 1.5169693428184838 0 0 0
519 1 44.59099542816666 13.384475562006456 1.1934217098440758 0 0 0
1586 1 46.78095998726825 14.53429014453634 -0.22183484376834273 0 0 1
33 1 2.148557029843844 18.076858310163637 1.1188898295793204 0 0 0
37 1 4.949680238395713 18.48178268562316 1.4614628925844766 1 0 0
575 1 5.91127436177769 15.836402744470618 0.8665086469387935 1 0 0
38 1 8.664648018512159 15.290168423774219 0.46444304248242063 0 0 0
323 1 10.569066353222919 16.106927721871234 2.3791226440330364 0 0 0
492 1 13.3560693140627 16.251811991515464 1.8719986109100288 0 0 0
3992 1 21.17168717014073 0.6088305546760657 -0.5728059073130609 0 1 1
533 1 23.656039398898983 16.528708285406903 1.764668124934874 0 0 0
4 1 4.180679942396555 6.843462359559467 -0.722489870353448 0 0 0
503 1 33.08527072974913 15.960270892023537 0.9540478065750124 0 0 0
378 1 34.19639439878444 18.472935450765604 0.400821580458782 0 0 0
471 1 37.59712110860771 16.07827909827439 2.152607460984187 0 0 0
2043 1 38.90078114655705 17.807250858017515 0.4032910139030479 0 0 1
54 1 41.11266837101592 17.28989541809418 2.007320854978314 0 0 0
26 1 41.69678438471636 22.946787031489862 12.829118638581468 0 0 0
1733 1 48.7246429715032 15.907929585339353 1.0606048324376 0 0 1
1487 1 47.89826295338187 18.64302112014391 0.723010900094182 0 0 1
2455 1 0.6695240825521964 20.467634037188986 0.7345899649580034 1 0 0
1510 1 4.935567530007862 20.50520431738402 -0.6182618997349166 0 0 1
112 1 10.663307368630175 20.55000111650022 1.2578531477038628 0 0 0
1536 1 13.087490558852744 20.39390309695222 0.16602580305291037 0 0 1
607 1 14.239832470160986 18.759719983269182 2.1376756934068175 0 0 0
1905 1 17.276921049435963 18.754195769920607 2.162868171033967 0 0 1
344 1 46.84456052439804 24.65333406496363 1.705345505181493 -1 0 0
2197 1 18.52789850827718 24.255238869997303 6.607205958746696 0 0 0
611 1 21.595493179047335 19.996159212685736 2.266105064368307 0 0 0
543 1 25.523737504140804 18.229894525774167 2.4442771588991845 0 0 0
6 1 27.691702960701292 18.66925211644358 0.8401272601430476 0 0 0
1485 1 29.927047499560423 19.853121975748493 1.8336345184964338 0 0 1
338 1 31.814734855337562 20.068179774592714 0.007438136595221079 0 0 0
223 1 36.17871794194546 18.34146808111986 2.3586468112351295 0 0 0
460 1 36.27823926838869 21.23683690577923 2.6182319169208013 0 0 0
46 1 38.87556047419348 20.67891539043559 0.7435949135387134 0 0 0
191 1 41.87104995574788 21.021375399744873 1.556317618671513 -1 0 0
2025 1 43.389058536815845 18.71911897562496 0.6004625955955412 0 0 1
496 1 49.75035613378511 20.73429037589498 -0.2284022361222079 -1 0 0
357 1 47.88434209096616 21.934529310976853 1.786528726074705 0 0 0
1779 1 2.0127136683033933 23.144785962854886 1.0589416292664529 0 0 1
189 1 4.371804160262515 21.985059888999412 1.6686495134623973 0 0 0
2167 1 6.6283272558219375 23.628100606206036 1.8929309885717003 0 0 0
1699 1 11.536487645001046 24.56546897617138 0.9683118287038563 0 0 1
4146 1 13.820572118782842 23.18136132010175 0.027126078621815264 0 0 1
617 1 16.189689080175718 23.49907333616571 1.224233482034823 0 0 0
781 1 29.370927397997544 23.24878591131077 15.571525901326783 0 0 0
273 1 0.5006285526510184 24.035201161608857 3.2107243347893863 1 0 0
454 1 20.18430494222194 23.88167707933004 1.0529280070166247 0 0 0
1632 1 25.085701619489935 22.83301166605248 1.5165905970780758 0 0 1
104 1 27.47404233488717 22.983801157911138 0.4648186822218192 0 0 0
512 1 29.170770451857386 22.571927373369185 2.7368254212214227 0 0 0
417 1 31.346348677519153 24.381246489870996 1.7839665162397247 0 0 0
1435 1 32.92100862786101 22.715095376848044 0.5093410050903675 0 0 1
2457 1 35.63867067221245 23.702328037765266 1.1119047241914115 0 0 0
609 1 42.55572922276627 23.224869973253377 0.21583672196905068 0 0 0
2315 1 9.03891362975427 -0.5970793775894357 1.6204394559879578 0 1 0
274 1 34.22282100435423 13.824894623227074 15.971556551187867 0 0 0
3089 1 0.31324754947170064 0.7550134671077344 3.7972973373094687 0 1 0
150 1 2.2266008997759656 1.938922068227387 5.745855705033131 0 0 0
2539 1 6.865207148309346 -0.14331528451692976 3.4852500682909637 0 1 0
198 1 9.690838367124318 2.1905502522478 4.726965004579622 0 0 0
324 1 17.36313027618122 0.4367855883412095 5.235596378805268 0 0 0
2756 1 21.290896420261383 0.10113140187846603 3.5083424237401672 0 1 0
247 1 23.69825634580768 1.8787972417975802 4.194463364125963 0 0 0
2752 1 26.187381758010606 0.9936488657954059 4.568003976092833 0 1 0
4121 1 31.101997810467513 1.275194181767318 3.593866961345456 0 1 1
1426 1 31.938599246467618 0.9486022782009349 6.358490360277187 0 0 1
2510 1 34.648710065322724 0.020730129637075545 5.648974187562063 0 1 0
280 1 2.1677773646659286 -0.5151621581461976 10.397142038126368 0 0 0
553 1 0.7477501719794197 10.390527000253915 -0.7644797433737175 1 0 0
2814 1 39.27418824839117 0.49462126773144166 3.3062524366168926 0 1 0
2178 1 44.97135681834571 0.2648496393788764 3.3780850982857267 0 1 0
168 1 48.09491859723037 22.258023938287973 12.91754959649658 0 0 0
2203 1 3.693394537504515 3.2867997332162027 3.738218775832644 0 1 0
169 1 6.5245069431551155 2.5134674730929536 3.149431947068259 0 0 0
2609 1 7.803980174505762 4.109288389060817 5.240371318714292 0 1 0
107 1 12.047942452374553 3.690095338652129 5.431423563291097 0 0 0
61 1 13.874381528167744 2.981620485695756 3.7462028320603453 0 0 0
704 1 16.558574472819338 2.8835651326131737 4.34026678484609 0 0 0
179 1 23.398828102968313 4.709437881226791 3.5458482048075064 0 0 0
604 1 28.435733051935173 2.3509165499137814 3.3700011130733722 0 0 0
67 1 28.055843772785533 5.032751636353979 4.628608752828347 0 0 0
144 1 32.436781677825834 4.552363892234261 3.8807247322639915 0 0 0
75 1 35.03550890395754 5.55981423412845 3.2904181223941213 0 0 0
2029 1 37.86048228515252 3.162899325552429 3.134105815016129 0 0 1
241 1 36.5376430448189 4.3517616897600275 5.213569630181705 0 0 0
371 1 40.17850748981191 4.750607512196605 3.0874574110117834 0 0 0
579 1 40.37249404756772 5.3593775689192436 5.83918602720618 0 0 0
451 1 43.31327566315525 2.5100836463830203 4.295276655380468 0 0 0
1797 1 46.518978710922724 5.429605646660794 2.783551173250212 0 0 1
268 1 45.012085714428224 4.752859189765513 4.940663955185248 0 0 0
45 1 49.74487282895536 2.5235787881865703 4.2500980278114975 -1 0 0
2201 1 50.311152686909416 4.743668617241017 5.821203224719501 -1 1 0
456 1 1.2171184769244148 6.381588666149741 2.162880290527142 1 0 0
1851 1 -0.7763191942701257 7.045060693055375 4.224542311722367 1 0 1
665 1 3.3046240410565915 5.985914373624951 3.827236583290386 1 0 0
466 1 5.351869671994175 7.916664901893045 3.2937773079181687 0 0 0
80 1 6.9413610770123695 8.870745166552343 5.525456369475464 0 0 0
1972 1 11.37915721068239 7.61212350994734 2.5960723748173495 0 0 1
48 1 11.548902181779159 6.518210581881655 5.418549944222966 0 0 0
1667 1 17.216744793378016 5.437086622646122 5.3255888139101994 0 0 1
113 1 15.427002543271026 7.228146383287905 3.889376840156471 0 0 0
682 1 19.52470968671978 6.6422964415295835 4.475153838457947 0 0 0
265 1 22.10072228564419 5.754778917592659 5.718955425055158 0 0 0
106 1 25.779077984173504 6.0240620621588485 3.5691954298809465 0 0 0
600 1 30.34097254765813 6.675005433107755 4.207484374355979 0 0 0
436 1 35.16451920265459 7.924715600139502 4.238499804811651 0 0 0
71 1 37.51229546857317 8.83602846129166 5.443389063964021 0 0 0
1832 1 48.107469828012746 7.526321606816509 3.410156695279719 0 0 1
55 1 2.5931571582183848 10.471376986643962 4.663395048971128 0 0 0
325 1 3.640800446532338 9.84670965204791 2.2793676471569633 0 0 0
127 1 8.03538109232482 11.154740614585682 4.482733197458162 0 0 0
32 1 12.483370165948555 9.888381750264985 3.903523146820474 0 0 0
493 1 14.428142079597405 9.002424218693083 5.640957298296789 0 0 0
15 1 17.53535898901109 10.901776236679297 4.61750798804521 0 0 0
474 1 19.31130969871986 9.194680556152848 3.5148107307640215 0 0 0
554 1 21.678095760960126 10.181285848156307 2.772989165822075 0 0 0
587 1 23.28142595885571 10.12267807375412 5.057319274446284 0 0 0
705 1 25.623198552019407 8.737845274399067 4.265606709931529 0 0 0
225 1 26.978936195637196 10.640081826599593 2.7749507442013197 0 0 0
253 1 29.436114231869347 11.453899315275477 3.2964895413919457 0 0 0
577 1 34.56173719881626 9.333605575063482 1.8954066050793932 0 0 0
372 1 39.10057475308861 8.634721059616382 3.058799865916848 0 0 0
20 1 41.40525456758893 11.284060476159826 4.642854557305941 0 0 0
255 1 41.68309047189621 8.884546524009183 3.741586742369626 0 0 0
267 1 46.54309378068255 8.705948003646286 5.464991512652871 0 0 0
1473 1 45.87496549157495 11.2619673430748 4.736600535288241 0 0 1
446 1 50.604004324478815 12.422782954282422 3.6071466872613067 -1 0 0
343 1 1.135488717257972 12.745127195063562 5.064889793499773 0 0 0
514 1 2.728363619653822 14.572248925785518 3.882133049545268 1 0 0
136 1 5.306462587260343 13.883746120235822 2.765938116927832 0 0 0
289 1 6.142667063990019 13.02984821093123 5.528517899742163 0 0 0
476 1 10.67962438860643 11.657530197562592 5.401125072067709 0 0 0
213 1 10.086626069057926 14.830681671592192 4.658629369703375 0 0 0
286 1 12.716647392704465 15.436452632566997 5.49440382271261 0 0 0
297 1 15.713872564067728 12.108422850684216 2.904210232567299 0 0 0
376 1 14.765786014426952 14.78531650329952 3.86925896664267 0 0 0
521 1 19.01340878749464 12.807224954490414 5.823321293675708 0 0 0
452 1 20.45304405443002 12.801047579361011 3.388805821337071 0 0 0
155 1 22.943764460264408 13.786073826657212 4.6628790411164385 0 0 0
363 1 25.259313670560676 12.976762951871866 3.2339085351380836 0 0 0
153 1 27.18913288236514 14.791697835181541 4.259601747315014 0 0 0
1501 1 29.53449647100882 14.207200961266027 2.8029862406145045 0 0 1
188 1 35.48284235342965 13.051139704017762 4.76195681892614 0 0 0
662 1 34.332312566122994 15.30711419210511 5.6765727086884965 0 0 0
2324 1 39.01144496567102 14.996329297952663 4.57306635990739 0 0 0
489 1 40.237803026086766 13.164870047221832 3.050816569754772 0 0 0
589 1 48.09135833825012 13.212841928019088 4.446236386175374 0 0 0
154 1 0.8602802506652651 16.321293509432113 2.946169936464426 0 0 0
139 1 -0.2625425024757423 18.153478733559677 4.540911389485778 0 0 0
120 1 5.004743478718118 18.306927978882758 4.399614651885379 1 0 0
431 1 11.575912929957488 18.002927627059712 5.491335165273358 0 0 0
302 1 16.627765934203204 16.210519897265343 5.33151528502865 0 0 0
689 1 18.610408864197513 16.684198407326924 3.480871943554704 0 0 0
1808 1 20.886852303932468 18.249699962815797 4.08411335052766 0 0 1
495 1 23.188103098240205 16.53757195733198 4.680922244911324 0 0 0
625 1 28.6243199786581 18.343297630189614 5.395306063039246 0 0 0
555 1 31.80746405454478 15.81745374219534 3.582343785770509 0 0 0
518 1 30.953265106799073 18.31225091048933 3.8134642145274684 0 0 0
675 1 38.82818348895333 18.160332136193848 4.267193671026764 0 0 0
56 1 42.02719781530515 18.513521934191893 4.864488124594167 0 0 0
1709 1 44.620201386745464 15.45357089127398 3.2512878494286985 0 0 1
346 1 47.546682041209344 15.722089433795983 3.4327306398798205 0 0 0
1567 1 48.3580657943102 18.027016437494012 5.163134705436552 0 0 1
1654 1 0.10738137579089058 20.841505999870602 3.6267477657131098 0 0 1
2376 1 2.0428028193704155 21.59730211719445 5.508546939467358 0 0 0
457 1 4.4833849203986675 21.29820114040789 4.407915016779665 0 0 0
458 1 7.7502696994804925 18.377111828006228 4.686761114965481 0 0 0
352 1 10.276448504605463 18.77192241450256 3.408006707302703 0 0 0
170 1 7.917344447124808 20.972285964149798 5.774945846042109 0 0 0
542 1 14.055944660549693 19.51104349768309 4.801938717134503 0 0 0
246 1 16.96721354153851 21.594243443001375 2.882047939370396 0 0 0
548 1 24.22294590718186 20.456104815340165 2.97969320362348 0 0 0
1877 1 23.98827725403527 21.400044250599144 5.525212762203032 0 0 1
463 1 32.75527939686 19.50973324113854 5.366681267516939 0 0 0
299 1 34.235209039120015 21.85384558706322 4.6381840010448 0 0 0
151 1 37.109334483519994 19.67654930950355 5.905352477987474 0 0 0
294 1 40.93917560429611 21.039479168174868 3.98903840003332 0 0 0
2171 1 44.760034215277756 20.842276518985145 5.294563603866362 0 0 0
175 1 44.44411942139942 18.220702476615507 3.0625834469708653 0 0 0
295 1 46.77127915280102 19.714442925681745 3.235494473679746 0 0 0
65 1 48.861834042639664 21.02919276692416 5.7346641548427515 0 0 0
983 1 1.2556543181920676 24.344633382315113 11.578878072390193 1 0 0
2089 1 2.092946368623153 24.230295814466004 5.406523175263869 0 0 1
205 1 8.243175564620163 23.06735231316238 4.062469349969345 0 0 0
1769 1 10.760355918714822 23.06135142397225 2.932554224308766 0 0 1
709 1 12.349395375421812 23.886418878442516 4.822689894952979 0 0 0
2310 1 14.265386433833015 21.976550590580327 5.68591747200407 0 0 0
2361 1 16.962695765088966 22.01123585869408 5.829282583982388 0 0 0
49 1 19.819099906052276 21.95445084135379 3.0052136453829896 0 0 0
2292 1 44.138491126126546 24.514403619438365 2.317288650140609 0 0 0
1858 1 20.532869395425323 23.006538609349032 5.42927140155447 0 0 1
2626 1 25.85017725388256 23.42757205711139 5.855191525957685 0 0 0
449 1 21.381819888502186 6.4946490970890345 16.25131704404494 0 0 0
90 1 28.5558344102321 22.84797810704831 5.451738712922197 0 0 0
125 1 33.570148556630066 24.33817210251958 3.699185726714518 0 0 0
91 1 38.30572594482167 21.69923095412291 4.413517633840088 0 0 0
3460 1 47.44517365107528 -0.6675597820060174 15.590711845927007 0 1 0
199 1 42.684594764485084 22.508416655770088 5.28828954008242 0 0 0
522 1 21.00154907344876 9.151273747834384 16.130836542025456 0 0 0
3534 1 49.50897510759927 22.968260652505528 3.966465003334455 0 0 1
177 1 38.02559802881457 24.65999419277449 4.379798849974034 0 0 0
535 1 4.365270631399005 1.4454438022083709 7.44870412139252 1 0 0
610 1 8.333245034848375 2.1783300573220368 8.905658862725309 0 0 0
2357 1 9.608217198016154 0.35994286439360446 7.062395547187025 0 1 0
784 1 30.204876299728447 22.655587183247835 13.13254548585982 0 0 0
328 1 13.907154951097262 0.6317356303672845 8.857801453061004 0 0 0
2644 1 16.453757551809787 -0.2734526254333228 7.698263001418825 0 1 0
2436 1 13.540358920554857 -0.4098891839738464 16.065257512441637 0 1 0
2665 1 18.781966419290438 0.9473571698008401 9.155745722753881 0 1 0
197 1 21.51695848834158 0.4586643486899291 8.11204732814844 0 0 0
670 1 23.710131707876545 2.247314378334231 7.306829176234361 0 0 0
2162 1 27.207314448013122 0.5435092717848891 9.984671271439243 0 1 0
1854 1 40.5680169067854 7.1248180566851405 -0.7585009343573221 0 0 1
43 1 36.18292208069821 2.067455453399838 6.985944567216076 0 0 0
35 1 37.858882869861 1.1743280091951345 9.067098233900852 0 0 0
671 1 42.09056651732769 1.3959636755511737 6.389804878382326 0 0 0
2532 1 43.7705601034827 0.9230177484005317 8.357885741954801 0 1 0
394 1 48.031616627139044 1.3010321347430507 5.8249041565400015 0 0 0
525 1 49.44257499190661 0.49722897673526667 8.156072133469687 0 0 0
12 1 1.0770743135210754 4.240269289033416 7.0310073182526285 0 0 0
2441 1 6.384645542878775 3.4717051454043935 7.615800008226499 0 1 0
627 1 12.748894346498496 2.914475423686332 8.048176226887563 0 0 0
203 1 18.505896796062846 3.723866666890096 9.706278443785179 0 0 0
354 1 22.932488382041118 4.629396968220595 8.005858198784297 0 0 0
34 1 26.492149826906633 1.8738039454748905 7.277700590573646 0 0 0
599 1 25.651194974934125 5.0385574906270545 9.076000212321102 0 0 0
251 1 27.749342700853738 4.310057447874342 7.172734305071639 0 0 0
556 1 30.459913128454453 4.408218454479511 7.9138611144302615 0 0 0
445 1 32.51291880890482 3.735737611711233 6.491597293951236 0 0 0
1294 1 34.70798240980968 4.097444482135165 8.222923085265554 0 0 0
472 1 36.537256415226366 6.058821200455604 8.61926286454116 0 0 0
290 1 41.351463189839286 3.819533977623741 7.945174646917584 0 0 0
2037 1 46.40354261275314 3.411231220325689 6.911582707863204 0 0 1
23 1 48.39615435244155 4.641511972531006 7.901658603147366 0 0 0
946 1 1.0255464278594146 8.470708609295393 5.769220751604252 0 0 0
1297 1 -0.14237216351537418 9.039543676546003 8.178490995025136 1 0 0
462 1 2.6806079443552364 6.408616004903398 6.520828597185182 1 0 0
453 1 4.393844069391244 7.05820373402282 8.689224269580471 0 0 0
486 1 8.715487591198633 6.9147077020539385 5.603152749447384 0 0 0
686 1 9.189474370533823 6.608428934789325 8.462494925252594 0 0 0
540 1 14.051172078137702 5.422396219938363 8.696471679230605 0 0 0
36 1 12.822369393707184 7.721278282665994 7.496360126099503 0 0 0
532 1 16.93395143991242 5.484343008466971 8.080651720698233 0 0 0
245 1 17.660475083038442 8.289247723892085 8.655763857838512 0 0 0
424 1 22.271867346136137 8.142764309689221 6.948220519282135 0 0 0
620 1 24.292315326969824 7.568625061083793 9.080733322680771 0 0 0
95 1 27.71042361375943 7.267724489035004 8.872348183007057 0 0 0
9 1 31.234573440300423 8.430217316602764 6.121531022778893 0 0 0
434 1 30.495920863124468 7.189676436104786 8.306399465517792 0 0 0
488 1 35.121372750974004 8.211037565119533 8.920645851409853 0 0 0
420 1 34.01534647055721 9.081170983497062 6.579909096225382 0 0 0
16 1 38.087892303392906 6.383015937784002 6.306238267074632 0 0 0
511 1 41.654233416879826 7.58091490516019 6.35459578705346 0 0 0
256 1 44.78912083215881 7.480429387158326 8.872680114939925 0 0 0
381 1 44.44506291174464 6.961151731245561 6.28640502405705 0 0 0
500 1 0.3123887263365017 11.513801377548731 9.250686892440994 1 0 0
31 1 4.1522075553474185 11.545703267093254 6.82128487291746 0 0 0
1221 1 5.723744996412926 9.193700485424714 7.890854454784854 0 0 0
465 1 16.51722200677338 10.342564542146718 7.161280528205645 0 0 0
66 1 20.2449977982945 9.141001926999268 8.998721259870239 0 0 0
22 1 20.180161086507155 11.698187259912057 8.19680269061206 0 0 0
438 1 24.779076694261384 10.412370384168655 7.853715602146956 0 0 0
605 1 27.11308808727261 9.604202668269327 6.913706694076061 0 0 0
1 1 29.655184059512504 10.875705406552221 5.954387044678233 0 0 0
646 1 33.750193691172896 11.749573273120195 6.816782281902779 0 0 0
271 1 37.924899845726905 10.931901526793043 7.361400755107358 0 0 0
645 1 37.070031343800146 9.901247189179813 9.835026123989026 0 0 0
425 1 40.5935429525403 11.195851954899156 7.2446349164843 0 0 0
353 1 42.21388541443561 9.263616579599928 8.419559437512378 0 0 0
98 1 44.234739121541054 11.51967098163288 8.357548796167816 0 0 0
536 1 47.34125410960283 11.608289877966088 8.430735841981049 0 0 0
263 1 48.588423524142705 9.126373967799065 7.633193350971958 -1 0 0
187 1 -0.18455839358051684 13.382939672282124 7.344120869915692 1 0 0
311 1 7.1255097076014255 14.436300955719496 7.736928785437495 0 0 0
867 1 10.748108885123264 12.082785777814264 8.307397696456535 0 0 0
2559 1 8.186899831412571 12.817130653016077 9.479107674823807 0 0 0
615 1 13.250165513137583 14.270663207863398 8.040550255384394 0 0 0
618 1 15.628593281735057 12.722959144351382 8.320302965917447 0 0 0
390 1 17.462386106051806 14.600110240472159 7.455501494292667 0 0 0
317 1 22.653185741849047 12.456711892567116 7.115495031318837 0 0 0
239 1 24.188183792186877 13.78876515351837 8.828014107511668 0 0 0
384 1 26.888870556741246 13.690794236321278 8.935996677003965 0 0 0
545 1 27.378823745513888 13.00982193121411 6.374190962481101 0 0 0
165 1 31.185529178651514 12.316099762936894 7.538948369966674 0 0 0
42 1 31.553649596426617 14.982416638758362 6.565503250216009 0 0 0
405 1 35.22913225346229 15.114573009074102 8.500098122174219 0 0 0
538 1 37.47438935305037 13.720738197901188 6.729591152758391 0 0 0
228 1 40.22674134709016 13.81521052938622 8.163446176064706 -1 0 0
1726 1 43.615606062312374 12.489788550889516 5.773044815338983 0 0 1
292 1 48.53235057860453 13.732000619525914 7.141416030330582 0 0 0
637 1 1.3166952207091964 17.940134556360928 6.817065694029178 1 0 0
111 1 0.00795195600869103 16.082852377658114 8.464159397818426 0 0 0
2413 1 3.338146533059721 16.430700548523866 6.242114134977563 0 0 0
601 1 5.010929065165721 15.9438009476997 8.5434460963741 0 0 0
301 1 8.60814294215035 16.515891052661622 6.453140473125543 0 0 0
706 1 14.42380428086659 16.57013045527559 8.608110065168592 0 0 0
527 1 15.780779700613845 18.22068683044542 6.697044591222785 0 0 0
1173 1 18.93187460806459 15.61959427741892 9.534465800291482 0 0 0
178 1 21.108028192965826 17.174303097674134 8.859095101890924 0 0 0
351 1 26.095536397821583 17.65913534086902 5.056435018909774 0 0 0
531 1 23.240658475572776 16.181229641307276 7.739440529315642 0 0 0
128 1 28.86511924820974 15.996788229393243 6.856041253771802 0 0 0
10 1 34.86925731854251 18.054370311374665 4.957323405946407 0 0 0
192 1 32.64027965483518 16.474044994173216 8.743200898023737 0 0 0
364 1 41.09004435690977 15.760201847856646 6.38515037319904 0 0 0
1795 1 40.98334444859182 17.872793442229064 8.127327118334327 0 0 1
359 1 43.684766902591896 15.080305522659065 5.671119603022634 0 0 0
666 1 44.77652676072811 16.506821129977435 7.879378215569961 0 0 0
341 1 47.49819801108083 16.31496608471864 7.399616293516093 0 0 0
2141 1 1.7759761926228603 20.370472670353497 7.809131606506055 1 0 0
1220 1 3.178474063257173 20.94655184223507 10.023825152737313 0 0 0
2260 1 9.754465258326055 17.964679286130647 8.412823486046781 0 0 0
234 1 8.796041371913942 20.55106806164303 8.66452475735411 0 0 0
2685 1 12.462127522753837 18.627541266494624 8.195080298854629 0 0 0
528 1 13.32212485265854 21.173834348103675 8.111877505581251 0 0 0
44 1 17.5293945175923 20.13368479659216 7.615561656004127 0 0 0
2021 1 20.23139031941308 19.099417767347678 6.804134495058808 0 0 1
370 1 21.8697870439763 21.26135214408114 6.964437697195459 0 0 0
114 1 25.40486666677964 20.018060251922215 7.330450870454227 0 0 0
523 1 28.27633602945744 20.551829269133115 7.134028808173554 0 0 0
2 1 29.95923864831376 20.561989896504166 9.374003968903429 0 0 0
303 1 32.1110227835611 19.26384278765159 8.356756222035825 0 0 0
261 1 34.517968022365245 20.381741839773618 9.39613146152243 0 0 0
374 1 37.25333049379839 19.022695926991386 10.208545406674034 0 0 0
277 1 38.736166184896916 19.872682730440648 8.060645327920012 0 0 0
291 1 43.56240384767298 18.867023170769702 7.145893278538022 0 0 0
409 1 43.08149791483406 20.840727326534875 9.250221175675886 -1 0 0
318 1 50.42754345514585 20.781925208714497 8.029740924738013 -1 0 0
497 1 14.612530868760956 0.21164948724097088 13.388429676313033 0 0 0
628 1 5.480937471984318 21.81184820092335 7.195194903887197 0 0 0
240 1 6.116412535151026 24.480709508775355 6.93420561247227 0 0 0
238 1 10.807240176090446 22.579781831083885 8.674627252892238 0 0 0
802 1 22.49314912915649 21.83092564878824 9.531330315980696 0 0 0
506 1 33.090895278267155 3.084762263418658 15.993573173178309 0 0 0
2277 1 25.047236294074846 22.078785782286275 9.102160674466415 0 0 0
230 1 30.4143219336758 23.254045783216956 8.690822934798073 0 0 0
266 1 35.263183741366866 22.086570862332113 7.316809967929682 0 0 0
629 1 33.09213695460271 24.000563763093826 8.06168620499829 0 0 0
2461 1 37.319708716881976 23.990758125910954 7.003282442451645 0 0 0
2452 1 39.26619640289334 22.766468952902756 8.73172376291563 0 0 0
669 1 41.96644521343714 23.19446999485367 8.204910199768063 0 0 0
1631 1 22.714573310604532 23.091707810845737 -0.056686203240595145 0 0 1
631 1 46.6130456767345 22.284807566238783 6.914116774145247 0 0 0
398 1 49.99223771632844 23.59922409795503 8.898186676614415 -1 0 0
227 1 -0.6921413505169246 2.1641864640539485 12.386158199262573 0 0 0
2279 1 3.512768367293612 1.9859997605252047 10.122538276155987 0 1 0
64 1 5.53758558000631 2.304818080765202 11.640653499342896 1 0 0
468 1 7.505282738206201 0.6358006505017366 10.9484946366124 0 0 0
18 1 9.706576137069288 -0.1682309889154232 12.373342636102393 0 0 0
92 1 10.904061646982194 2.3721215806696554 11.846628135541849 0 0 0
592 1 13.522671458642883 1.9475266540437977 11.237491063699187 0 0 0
2290 1 25.257293008771605 24.662977373447323 8.19645079804167 0 0 0
143 1 22.707955627483244 2.123288166362619 10.746889847223063 0 0 0
109 1 21.58475961324107 0.6756481537734893 12.90062745793488 0 0 0
461 1 30.03246977639955 0.9613164269667036 10.71754419234199 0 0 0
72 1 33.40685812631912 0.5946104176906497 11.1968676800994 0 0 0
220 1 36.337800117642836 -0.01231505825753354 11.166102817016043 0 0 0
69 1 40.91910020659858 2.047040719286007 12.124177230351707 0 0 0