
# Create simulation box of size 50 x 50 x 50 Angstrom
#
lattice	            sc 1
Lattice spacing in x,y,z = 1.0000000 1.0000000 1.0000000
region 	            all block 0 50 0 50 0 50 units box
create_box          1 all
Created orthogonal box = (0.0000000 0.0000000 0.0000000) to (50.000000 50.000000 50.000000)
  1 by 2 by 3 MPI processor grid

# fill box with 4175 randomly distributed atoms
#
create_atoms        1 random 4175 63782 all
Created 4175 atoms
  create_atoms CPU = 0.001 seconds
mass                1 18.015

# Define potential
#
pair_style          sw
pair_coeff          * * ML_mW.sw mW
Reading sw potential file ML_mW.sw with DATE: 2019-02-27

# Run minimization
#
minimize            1.0e-8 1.0e-8 10000 1000
WARNING: Using 'neigh_modify every 1 delay 0 check yes' setting during minimization (../min.cpp:187)
Neighbor list info ...
  update every 1 steps, delay 0 steps, check yes
  max neighbors/atom: 2000, page size: 100000
  master list distance cutoff = 6.0032907
  ghost atom cutoff = 6.0032907
  binsize = 3.0016454, bins = 17 17 17
  1 neighbor lists, perpetual/occasional/extra = 1 0 0
  (1) pair sw, perpetual
      attributes: full, newton on
      pair build: full/bin/atomonly
      stencil: full/bin/3d
      bin: standard
Per MPI rank memory allocation (min/avg/max) = 4.255 | 4.258 | 4.261 Mbytes
Step Temp E_pair E_mol TotEng Press 
       0            0    7792709.3            0    7792709.3    5898794.3 
     630            0   -45180.336            0   -45180.336   -154.07449 
Loop time of 1.13339 on 6 procs for 630 steps with 4175 atoms

98.4% CPU use with 6 MPI tasks x no OpenMP threads

Minimization stats:
  Stopping criterion = max force evaluations
  Energy initial, next-to-last, final = 
      7792709.32924461  -45180.0188663597   -45180.336116598
  Force two-norm initial, final = 2.0191930e+08 4.9721331
  Force max component initial, final = 1.0948746e+08 0.73126211
  Final line search alpha, max atom move = 0.053306038 0.038980685
  Iterations, force evaluations = 630 1000

MPI task timing breakdown:
Section |  min time  |  avg time  |  max time  |%varavg| %total
---------------------------------------------------------------
Pair    | 0.87733    | 0.97867    | 1.054      |   6.0 | 86.35
Neigh   | 0.024001   | 0.024532   | 0.025015   |   0.3 |  2.16
Comm    | 0.034598   | 0.11006    | 0.21245    |  18.0 |  9.71
Output  | 0          | 0          | 0          |   0.0 |  0.00
Modify  | 0          | 0          | 0          |   0.0 |  0.00
Other   |            | 0.02013    |            |       |  1.78

Nlocal:        695.833 ave         704 max         685 min
Histogram: 1 1 0 0 1 0 0 1 0 2
Nghost:        1494.17 ave        1515 max        1468 min
Histogram: 1 1 0 0 0 0 1 1 1 1
Neighs:        0.00000 ave           0 max           0 min
Histogram: 6 0 0 0 0 0 0 0 0 0
FullNghs:      19997.0 ave       20462 max       19320 min
Histogram: 1 1 0 0 0 0 0 2 0 2

Total # of neighbors = 119982
Ave neighs/atom = 28.738204
Neighbor list builds = 26
Dangerous builds = 0

# Add velocity/set timestep
#
velocity            all create ${TEMP} 120598 rot yes dist gaussian
velocity            all create 210 120598 rot yes dist gaussian
timestep            5.0

# Define output
#
compute	            1 all msd
thermo	            100
thermo_style        custom step temp press vol etotal ke pe c_1[4] density

# Neighbor lists
#
neigh_modify        delay 0 every 1 check yes

# Set fixes
#
fix                 1 all momentum 10 linear 1 1 1 rescale
fix                 2 all nve
fix                 3 all temp/csvr ${TEMP} ${TEMP} 500.0 928347
fix                 3 all temp/csvr 210 ${TEMP} 500.0 928347
fix                 3 all temp/csvr 210 210 500.0 928347
fix                 4 all press/berendsen iso ${PRES} ${PRES} 1000.0 modulus 20000
fix                 4 all press/berendsen iso -900 ${PRES} 1000.0 modulus 20000
fix                 4 all press/berendsen iso -900 -900 1000.0 modulus 20000

# Run 0.5 ns equilibration
#
dump                1 all custom 1000 eq.${NAME}.dump id type x y z vx vy vz
dump                1 all custom 1000 eq.liquid_density_MLmW.dump id type x y z vx vy vz
run                 100000
Per MPI rank memory allocation (min/avg/max) = 3.506 | 3.508 | 3.511 Mbytes
Step Temp Press Volume TotEng KinEng PotEng c_1[4] Density 
     630          210    801.42152       125000   -42567.537    2612.7992   -45180.336 2.7295415e-33   0.99914793 
     700    134.22814   -688.77078    126268.75   -41755.454    1670.0533   -43425.507   0.24682339   0.98910844 
     800    164.92964   -960.28688    126774.54   -41017.696    2052.0383   -43069.734   0.55941201   0.98516222 
     900    183.08787   -668.30895    127003.17   -40583.581    2277.9612   -42861.543   0.90007822   0.98338876 
    1000    196.87362   -811.17966    127338.87   -40315.228    2449.4821    -42764.71    1.2796833   0.98079626 
    1100    203.60049   -609.63749    127605.13   -40158.788    2533.1771   -42691.965    1.7068786   0.97874978 
    1200    206.20899   -769.70675    128178.09   -40194.092    2565.6319   -42759.724     2.095799   0.97437473 
    1300    202.62586   -783.86681    128232.38   -40180.875    2521.0509   -42701.926    2.4763409   0.97396222 
    1400    203.94704    -804.6408     128701.2   -40211.375    2537.4889   -42748.863     2.848827   0.97041431 
    1500    206.51543   -944.24468     128833.2   -40178.771    2569.4446   -42748.215    3.1646197   0.96942012 
    1600    211.85944   -781.09917    128977.66   -40117.221    2635.9342   -42753.155    3.5082667   0.96833428 
    1700    211.76264   -727.90128    129259.64   -40183.846    2634.7299   -42818.576    3.7319722   0.96622189 
    1800    206.41996    -1117.409    129410.66   -40278.033    2568.2567    -42846.29    3.9319907   0.96509428 
    1900    213.24862   -898.42793     129520.5   -40302.699    2653.2182   -42955.917    4.0314298   0.96427582 
    2000    213.86784   -846.96561     129621.4   -40296.346    2660.9225   -42957.268    4.3568177   0.96352521 
    2100    215.72102    -850.0935    129455.94   -40281.733    2683.9796   -42965.713    4.5704797   0.96475674 
    2200    211.47693   -878.13431    129741.84   -40332.484    2631.1751   -42963.659    4.7906451   0.96263077 
    2300    215.43963   -776.09776    129707.58    -40351.58    2680.4786   -43032.059    4.9852573   0.96288505 
    2400    213.02641   -918.97957    129812.74   -40384.759    2650.4535   -43035.212    5.3219653   0.96210507 
    2500    214.81058   -783.22158    130062.07   -40362.735     2672.652   -43035.387        5.573   0.96026071 
    2600    215.65978   -856.45911    130231.01   -40316.227    2683.2177   -42999.444     5.860317   0.95901499 
    2700    215.74575   -887.96063     130241.5   -40361.302    2684.2872   -43045.589    5.9773642   0.95893779 
    2800    216.16235   -899.21278    130198.02   -40366.996    2689.4705   -43056.467    6.2515806   0.95925801 
    2900    213.66129   -798.76261    130225.12   -40441.539    2658.3526   -43099.892    6.2629397   0.95905836 
    3000     213.3366   -750.51214    130343.32   -40483.308    2654.3129   -43137.621    6.4139359   0.95818869 
    3100    211.24748   -805.68031    130667.34   -40463.311    2628.3203   -43091.631    6.5615172    0.9558126 
    3200    210.84397   -910.57829    130546.46   -40525.932    2623.2999   -43149.232    6.6218805   0.95669762 
    3300    211.29067   -1001.4392    130542.97   -40521.458    2628.8577   -43150.315    6.7873296   0.95672321 
    3400    210.51342   -957.37534    130505.65   -40584.853    2619.1871    -43204.04     6.940515   0.95699678 
    3500    210.50925   -701.42693    130636.89   -40632.869    2619.1353   -43252.004     7.238809   0.95603542 
    3600    212.74074   -873.36884     130716.2   -40685.007    2646.8992   -43331.906    7.2867774   0.95545535 
    3700    206.88097   -829.42736    130966.96   -40750.082    2573.9926   -43324.074    7.3103563   0.95362597 
    3800    210.46986   -773.89376    131045.25    -40708.08    2618.6452   -43326.725     7.349839   0.95305626 
    3900    208.23126   -932.31389    131215.76   -40746.519    2590.7928   -43337.312    7.3929241   0.95181775 
    4000    209.68061    -848.9037    131287.82   -40752.059    2608.8254   -43360.885    7.5735684   0.95129536 
    4100    210.55124   -917.23758     131465.5   -40742.697    2619.6577   -43362.354    7.7070487    0.9500096 
    4200    209.26511   -785.66226    131413.51   -40770.297    2603.6558   -43373.953    7.8799963   0.95038548 
    4300    213.98985   -957.86285    131564.05   -40777.297    2662.4405   -43439.738    8.0221246   0.94929804 
    4400    208.86528   -767.23519    131634.34   -40789.908    2598.6812   -43388.589    8.2185293   0.94879114 
    4500     208.0703   -908.24419    131987.94   -40807.623      2588.79   -43396.413    8.3962677   0.94624924 
    4600    208.44887   -851.34616    132043.46   -40865.145    2593.5002   -43458.646    8.3965872   0.94585142 
    4700    211.15268   -880.59438     132451.3    -40803.21    2627.1407   -43430.351    8.4369979   0.94293896 
    4800    209.04289   -738.68527    132349.42   -40884.054     2600.891   -43484.945    8.7209261    0.9436648 
    4900    215.63916   -900.03898    132379.35   -40768.059    2682.9611    -43451.02    8.7567239   0.94345148 
    5000     210.4176   -815.81931     132348.7    -40731.28     2617.995   -43349.275    8.8745694   0.94366995 
    5100    210.00913   -834.44192    132594.02   -40798.156    2612.9129   -43411.069    9.1313999   0.94192399 
    5200    210.82391    -872.8097    132514.53   -40858.911    2623.0502   -43481.961    9.1644045   0.94248901 
    5300    210.27859   -1082.1612     132714.7   -40857.122    2616.2654   -43473.388    9.2140578   0.94106749 
    5400    208.93093   -831.04491     132682.7   -40897.615     2599.498   -43497.113     9.284306   0.94129448 
    5500    212.05191   -850.38106    132494.78   -40908.499    2638.3289   -43546.828    9.4167534   0.94262954 
    5600    211.85338   -963.44414    132605.92    -40910.83    2635.8588   -43546.689    9.4345313   0.94183945 
    5700    211.38946   -942.11925    132558.45   -40916.818    2630.0868   -43546.905    9.5456777   0.94217673 
    5800    206.15437   -790.77632    132730.01   -40955.105    2564.9523   -43520.057    9.5804924   0.94095893 
    5900    210.92895   -1000.5995    132860.26   -40994.151    2624.3572   -43618.509    9.6793684   0.94003646 
    6000    206.72649   -891.41676    133049.49   -40997.526    2572.0706   -43569.597    9.7331085   0.93869953 
    6100     212.1686   -663.96626    132996.03   -40941.224    2639.7808   -43581.005    9.8388763   0.93907683 
    6200    208.52309   -946.61952    133023.37   -41011.258    2594.4236   -43605.681    10.079239   0.93888386 
    6300    209.05197    -925.9347    132799.96   -40993.865     2601.004   -43594.869     10.24112   0.94046335 
    6400    211.43576   -815.20082    132899.96    -40978.62    2630.6628   -43609.283    10.311526   0.93975564 
    6500      215.088   -903.07039    133133.78   -40945.592    2676.1037   -43621.696    10.226413   0.93810522 
    6600    211.63805   -1193.5642    133068.72   -41031.406    2633.1797   -43664.586    10.237834   0.93856383 
    6700    207.81326   -811.68735    132909.01   -41099.211    2585.5921   -43684.803    10.308811    0.9396917 
    6800    209.40034   -939.83659    133112.28   -41028.931    2605.3384    -43634.27    10.398665   0.93825669 
    6900    214.72416   -898.37411    133083.34   -40974.593    2671.5767    -43646.17    10.528988   0.93846072 
    7000    216.61216   -948.93295    133292.44   -40972.685    2695.0671   -43667.753    10.641736   0.93698855 
    7100    213.10283   -935.11201    133459.11   -41004.763    2651.4044   -43656.168    10.764644   0.93581842 
    7200     209.5489    -891.7989    133325.04   -41067.975    2607.1867   -43675.162    10.725382   0.93675943 
    7300    207.12233   -989.53311    133394.15   -41138.064    2576.9955   -43715.059    10.769642   0.93627412 
    7400    204.89123   -724.20361    133554.46   -41164.717    2549.2364   -43713.953     10.82729   0.93515025 
    7500    209.65151   -787.50469    133688.87   -41140.651    2608.4634   -43749.114    10.879244   0.93421011 
    7600    206.32656   -897.82004    133801.36   -41222.576    2567.0946   -43789.671    11.016511    0.9334247 
    7700     208.5893   -907.82874    133833.53   -41136.545    2595.2474   -43731.792    11.130784    0.9332003 
    7800    212.84075   -815.66983    133733.58   -41111.253    2648.1436   -43759.396    11.089584   0.93389777 
    7900     207.6661   -739.71705    133599.74   -41179.678    2583.7611   -43763.439    11.083317   0.93483333 
    8000    212.33016   -1001.7869    133741.91   -41152.423    2641.7909   -43794.214    11.074749   0.93383959 
    8100    205.55009   -968.39819     133881.5   -41221.196    2557.4339    -43778.63    11.220994   0.93286593 
    8200     210.1786   -798.00684       133884   -41242.717    2615.0214   -43857.738    11.244569    0.9328485 
    8300    208.40586   -862.35377    133839.44   -41238.596    2592.9651   -43831.562     11.38592   0.93315908 
    8400    210.40126   -860.82737    133945.77   -41200.684    2617.7917   -43818.476    11.466065    0.9324183 
    8500    211.15339    -824.2549    133900.01   -41135.304    2627.1496   -43762.453    11.495331   0.93273698 
    8600    211.98663   -930.75323    133939.23   -41159.124    2637.5167    -43796.64    11.571384   0.93246383 
    8700    210.75858   -810.86211    133943.29   -41151.025    2622.2374   -43773.263    11.564923   0.93243558 
    8800    210.84841   -877.64114    134091.43   -41193.116    2623.3551   -43816.471    11.665105   0.93140548 
    8900    205.79607   -959.41347       134030   -41276.496    2560.4944    -43836.99    11.754998   0.93183236 
    9000    207.46049   -995.51088    133850.24   -41236.875    2581.2029   -43818.078    11.619971   0.93308384 
    9100    208.37161   -817.27551    133912.03   -41308.411     2592.539    -43900.95    11.757264   0.93265323 
    9200    210.81644   -823.45199    134018.85   -41217.951    2622.9573   -43840.908     11.76004   0.93190988 
    9300    209.40557   -778.05725    134073.45   -41263.612    2605.4034   -43869.016    11.759763    0.9315304 
    9400    212.46283   -866.12905    134187.72   -41229.615    2643.4415   -43873.056    11.899712   0.93073714 
    9500    205.68658   -823.05273    134294.68   -41242.711    2559.1321   -43801.843    11.881067   0.92999581 
    9600    209.75364   -996.64524    134353.67   -41211.104     2609.734   -43820.838    11.950545   0.92958748 
    9700    210.69902   -887.74136    134294.46   -41164.916    2621.4964   -43786.412    11.965536   0.92999737 
    9800    210.81214   -1021.0169    134289.28   -41247.578    2622.9038   -43870.482    11.967257    0.9300332 
    9900    204.93432    -857.7321    134263.83     -41312.9    2549.7725   -43862.673     12.06336   0.93020951 
   10000    207.49311   -994.01089    134036.18   -41326.337    2581.6087   -43907.946    12.048484   0.93178942 
   10100    211.34241   -754.72861    134263.81   -41287.075    2629.5014   -43916.577    12.239455   0.93020962 
   10200    206.77362   -905.11738    134226.16   -41335.123     2572.657    -43907.78    12.204207   0.93047057 
   10300    208.59864   -798.86724     134289.7   -41327.674    2595.3637   -43923.037    12.271813   0.93003032 
   10400    208.31071   -895.54297    134259.42    -41279.72    2591.7812   -43871.501    12.250402   0.93024007 
   10500    208.32571   -908.96064     134275.5   -41261.676    2591.9679   -43853.644    12.294092   0.93012867 
   10600     212.6853   -968.90429    134301.27   -41203.223    2646.2095   -43849.432    12.347692   0.92995018 
   10700    210.61454   -822.55746    134284.52   -41196.772    2620.4453   -43817.217    12.341829   0.93006618 
   10800    208.80007    -823.2493    134331.85   -41189.833    2597.8698   -43787.703    12.436554    0.9297385 
   10900    213.89317   -836.74398    134419.78   -41237.212    2661.2376    -43898.45    12.421602   0.92913029 
   11000    210.40173    -926.6289    134299.61   -41231.567    2617.7975   -43849.364     12.52192   0.92996169 
   11100    209.31005   -828.09667    134293.38   -41270.117    2604.2149   -43874.332    12.517703   0.93000482 
   11200    210.98198   -907.75119    134441.52    -41255.09    2625.0169   -43880.106    12.499675   0.92898003 
   11300    208.68223   -875.33491    134373.97   -41262.197    2596.4037   -43858.601    12.461448   0.92944706 
   11400    212.34675   -897.93626    134461.26   -41272.265    2641.9973   -43914.262    12.522665   0.92884369 
   11500    211.52585   -937.88175    134222.12   -41297.272    2631.7838   -43929.055    12.620798   0.93049855 
   11600    211.00391   -920.17206    134209.06   -41299.924    2625.2898   -43925.213     12.59614   0.93058915 
   11700    211.25674   -634.91656     134451.5   -41189.911    2628.4355   -43818.347    12.731362   0.92891113 
   11800    207.78408   -862.29964    134613.93   -41239.217     2585.229   -43824.446     12.79976   0.92779024 
   11900    212.02746   -986.84832    134587.87   -41247.883    2638.0247   -43885.908    12.761729   0.92796991 
   12000    210.47657   -865.23235    134581.23   -41255.696    2618.7287   -43874.424    12.799076   0.92801569 
   12100    210.83598   -740.95005    134582.12   -41216.026    2623.2004   -43839.226     12.91203   0.92800954 
   12200    208.60112   -942.69524    134604.01   -41221.925    2595.3945   -43817.319    12.838854   0.92785861 
   12300    210.16127   -961.49696    134593.22   -41241.113    2614.8057   -43855.919    12.902043     0.927933 
   12400    210.67476   -726.73081    134710.65   -41226.561    2621.1945   -43847.756    12.907494   0.92712407 
   12500    207.01273   -1023.1355    134699.63   -41309.701    2575.6319   -43885.333    12.874856   0.92719996 
   12600    208.45449   -830.75799    134799.06   -41229.638    2593.5702   -43823.208    13.012871   0.92651606 
   12700     214.7918   -984.84006     134639.6   -41204.954    2672.4183   -43877.372    13.050403   0.92761335 
   12800    217.58925   -903.71038    134708.43     -41182.9    2707.2239   -43890.124    13.011507   0.92713936 
   12900    212.50372   -1035.9489    134692.98   -41242.073    2643.9503   -43886.023    12.923003   0.92724576 
   13000    212.35428    -1014.139    134671.08   -41192.698    2642.0909   -43834.789    12.993254   0.92739649 
   13100    212.11797   -805.45581    134683.33   -41198.237    2639.1508   -43837.388    13.096141   0.92731219 
   13200    213.00317    -897.1067     134497.4   -41129.568    2650.1644   -43779.733    13.115759   0.92859408 
   13300    214.04199   -857.10433    134690.02   -41186.388    2663.0892   -43849.477    13.117737    0.9272661 
   13400    207.52472   -1009.5202    134750.21   -41253.954     2582.002   -43835.956    13.321215   0.92685195 
   13500    208.92789   -793.13972    134594.44   -41282.607    2599.4602   -43882.067     13.41967   0.92792457 
   13600    213.79214   -921.45627    134684.05    -41300.39    2659.9807   -43960.371    13.309895   0.92730719 
   13700    206.85899   -891.13023    134554.76   -41307.377    2573.7191   -43881.096    13.384854   0.92819822 
   13800    214.47843   -872.84197       134514   -41229.183    2668.5194   -43897.703    13.425526    0.9284795 
   13900     211.1403   -974.88817    134521.77   -41283.316    2626.9867   -43910.303     13.45009    0.9284259 
   14000     209.8024   -917.03236    134466.17   -41274.071    2610.3408   -43884.412    13.408206   0.92880978 
   14100    213.17464   -819.26302    134603.05   -41274.108    2652.2978   -43926.406    13.574594   0.92786526 
   14200     207.0969   -946.30404    134641.15   -41312.949    2576.6791   -43889.628    13.590434   0.92760265 
   14300    207.80422   -900.45423    134521.38   -41362.036    2585.4796   -43947.515    13.640778   0.92842856 
   14400    209.04265   -840.09573    134515.96   -41341.442    2600.8879    -43942.33    13.727386   0.92846598 
   14500     208.7909   -931.09781    134576.22    -41292.88    2597.7557   -43890.636    13.666591   0.92805023 
   14600    210.01044   -805.83164    134589.29   -41295.005    2612.9291   -43907.934    13.743931   0.92796011 
   14700    211.15524   -829.39401    134494.24   -41330.681    2627.1727   -43957.854    13.833516   0.92861592 
   14800     211.3324    -797.7448    134653.64   -41364.662    2629.3769   -43994.039    14.015532   0.92751664 
   14900    204.41731    -893.5097    134663.17   -41437.268      2543.34   -43980.608    14.065345   0.92745103 
   15000    204.72465    -1011.096    134528.62   -41439.873    2547.1638   -43987.037    14.149964   0.92837863 
   15100    204.16081   -995.60954    134438.63   -41461.019    2540.1486   -44001.168    13.851956   0.92900005 
   15200     208.5376    -945.9029    134462.51   -41386.694    2594.6042   -43981.298    13.909212   0.92883503 
   15300    204.83346   -1065.1355    134532.78   -41396.035    2548.5176   -43944.553    14.070279   0.92834985 
   15400    205.81323   -807.62145    134512.25   -41376.201    2560.7078   -43936.909    14.072389   0.92849158 
   15500    208.99879    -880.7427    134576.91   -41369.341    2600.3422   -43969.683    14.134634   0.92804547 
   15600    212.39519   -912.65551    134576.86   -41325.851       2642.6   -43968.451    14.238857    0.9280458 
   15700    207.16069   -768.80522    134659.23   -41417.577    2577.4728   -43995.049    14.245896   0.92747812 
   15800    210.57861   -930.20349    134591.09   -41425.958    2619.9982   -44045.956    14.213384   0.92794766 
   15900    208.25439   -980.96572    134519.66   -41469.272    2591.0805   -44060.353     14.21536    0.9284404 
   16000    213.36966   -954.03305    134695.17   -41409.985    2654.7242   -44064.709    14.162161   0.92723069 
   16100    213.03106    -936.8371    134623.13   -41362.974    2650.5114   -44013.485    14.338585   0.92772681 
   16200    210.51687    -829.2408    134775.81   -41422.886      2619.23   -44042.116     14.32829   0.92667587 
   16300    208.51498   -957.45782    134845.02   -41441.339    2594.3228   -44035.662    14.279447   0.92620022 
   16400    213.66645   -844.27311    134891.76   -41347.346    2658.4168   -44005.763    14.305445   0.92587931 
   16500     215.5126   -1026.3315    134868.64   -41349.798    2681.3864   -44031.184    14.431241   0.92603807 
   16600    212.15521   -853.73186    134779.25   -41336.317    2639.6142   -43975.931    14.358553   0.92665222 
   16700    210.14226   -908.55295    134849.29   -41374.471    2614.5693    -43989.04     14.42151   0.92617092 
   16800    210.59157    -865.6499    134950.71   -41374.718    2620.1595   -43994.878    14.520118   0.92547489 
   16900    209.81663   -976.67869    134955.59   -41349.352    2610.5177    -43959.87    14.522858   0.92544141 
   17000    214.05587   -860.75558    134951.66   -41364.112     2663.262   -44027.374    14.596902   0.92546839 
   17100    211.10552   -750.02641    134960.27   -41295.861     2626.554   -43922.415    14.593771   0.92540934 
   17200     210.7472   -886.77034    135068.05   -41305.999    2622.0958   -43928.095    14.617359   0.92467084 
   17300    211.69423   -1079.9415    135015.61   -41362.784    2633.8787   -43996.662    14.682929   0.92502998 
   17400    209.04687   -816.10065    134919.21    -41400.16    2600.9405   -44001.101    14.586222   0.92569092 
   17500    210.89085   -780.68093    134945.75   -41389.328    2623.8831   -44013.211    14.607159   0.92550891 
   17600    210.53123   -827.36297    135087.87    -41367.01    2619.4088   -43986.419    14.656641   0.92453521 
   17700    205.93365   -805.93248    134990.44   -41390.712    2562.2061   -43952.918    14.758611   0.92520249 
   17800    207.59189   -883.01671    135001.07   -41393.009    2582.8378   -43975.847     14.72224   0.92512966 
   17900    212.53695   -850.29494    135088.17   -41363.293    2644.3638   -44007.656    14.734044   0.92453314 
   18000    214.61954    -966.3069    135147.83   -41316.397    2670.2751   -43986.672    14.912014   0.92412501 
   18100    210.57792   -776.03053    135147.78   -41422.372    2619.9897   -44042.362    14.921432   0.92412534 
   18200    211.14336   -838.89005    135118.57   -41441.578    2627.0248   -44068.603    14.838146   0.92432513 
   18300    214.80319   -909.20425    135010.47   -41375.425      2672.56   -44047.985      14.8654   0.92506521 
   18400    213.76925   -795.78293    135022.13   -41442.196    2659.6958   -44101.892    14.943951   0.92498531 
   18500    215.36827   -947.51599    135110.65    -41410.75    2679.5908   -44090.341    14.989289   0.92437932 
   18600    208.65126   -793.72605    135239.51   -41472.057    2596.0183   -44068.075    15.028483   0.92349855 
   18700    210.84831   -889.66349    135304.22   -41443.048    2623.3538   -44066.402    15.133612   0.92305689 
   18800    210.08172   -949.78411    135216.93   -41424.431     2613.816   -44038.247    15.071176   0.92365274 
   18900     209.0331   -846.34438    135255.53   -41450.703    2600.7691   -44051.472    15.291398   0.92338918 
   19000    212.26054   -1035.9159    135221.64   -41435.134    2640.9247   -44076.059    15.095834   0.92362056 
   19100    211.02061   -800.75683    135283.55   -41496.007    2625.4975   -44121.505    15.148416   0.92319792 
   19200    212.26601   -920.99447    135294.05   -41473.335    2640.9927   -44114.328     15.21705   0.92312627 
   19300    212.92394   -796.40395    135278.92   -41426.594    2649.1786   -44075.773    15.330955   0.92322951 
   19400    209.73167   -828.45482    135271.27   -41442.468    2609.4607   -44051.928    15.328888   0.92328171 
   19500    213.11466   -937.78096    135358.85   -41433.288    2651.5516   -44084.839    15.445369   0.92268436 
   19600    212.70106   -1107.9599    135129.42   -41471.227    2646.4056   -44117.632    15.458022   0.92425091 
   19700    211.45233   -936.70942    135193.97   -41458.153     2630.869   -44089.022    15.377287   0.92380964 
   19800    210.23514     -823.651    135272.54   -41491.502    2615.7249   -44107.227    15.430973   0.92327306 
   19900    211.76085    -871.4675     135214.2    -41502.97    2634.7076   -44137.678    15.452291   0.92367141 
   20000    209.04338   -811.21589    135299.99   -41544.579     2600.897   -44145.476    15.523867   0.92308577 
   20100    211.32282   -957.90082    135099.79    -41515.25    2629.2576   -44144.508     15.55143   0.92445361 
   20200    208.18265   -869.74815    135092.67   -41574.691     2590.188   -44164.879    15.639713   0.92450238 
   20300    207.35357   -995.00973    135204.82   -41602.842    2579.8726   -44182.715    15.700132    0.9237355 
   20400    207.98743   -944.12339    135040.67    -41599.21    2587.7591   -44186.969    15.616916   0.92485833 
   20500    209.79871   -903.01994    135208.59   -41566.038    2610.2948   -44176.333    15.687753   0.92370973 
   20600    208.27383   -814.79186    135245.35   -41594.286    2591.3224   -44185.608    15.692342   0.92345865 
   20700    210.68638   -872.56985    135278.51   -41530.165    2621.3392   -44151.505    15.710063   0.92323234 
   20800     210.6583   -1021.4478    135258.31   -41538.232    2620.9897   -44159.222    15.659656   0.92337016 
   20900    209.62225   -916.86772     135358.3    -41572.34    2608.0994   -44180.439    15.758726   0.92268811 
   21000    206.69572   -1027.2111    135299.75   -41660.309    2571.6878   -44231.997    15.612742   0.92308741 
   21100    204.50278   -892.90475    135367.17   -41676.871    2544.4033   -44221.274    15.673408   0.92262764 
   21200    206.46389    -861.2844    135297.63   -41645.369    2568.8033   -44214.173    15.644078   0.92310183 
   21300    208.46349   -839.12335    135385.83   -41651.558    2593.6822    -44245.24     15.67003   0.92250049 
   21400    208.41817    -1030.941    135280.96   -41627.219    2593.1182   -44220.337    15.725331   0.92321559 
   21500    209.43566   -797.10458    135306.53   -41611.233    2605.7778   -44217.011    15.758151   0.92304112 
   21600    209.22016   -824.54902     135397.7   -41553.484    2603.0965    -44156.58    15.774446   0.92241957 
   21700    211.02722   -851.88342     135364.2   -41517.079    2625.5798   -44142.659    15.750616    0.9226479 
   21800     208.0518   -952.83555    135378.66   -41500.476    2588.5599   -44089.035    15.677416   0.92254935 
   21900    208.73617    -816.6516    135342.93   -41518.774    2597.0748   -44115.849    15.830746   0.92279284 
   22000    209.28965   -814.25704    135346.69   -41555.899    2603.9611    -44159.86      15.8968   0.92276726 
   22100    209.98328   -966.88971    135456.85   -41497.771    2612.5913   -44110.363    15.864777    0.9220168 
   22200    210.80222   -938.00907     135487.3   -41531.953    2622.7804   -44154.733    15.838576   0.92180955 
   22300    211.29523   -837.93742    135452.39   -41525.384    2628.9144   -44154.298    15.892417   0.92204716 
   22400    212.40043   -1010.1319     135459.6   -41494.258    2642.6652   -44136.924    15.837319   0.92199806 
   22500     211.6694   -848.73763    135374.01    -41501.07    2633.5698    -44134.64    15.985316     0.922581 
   22600     209.5438   -1056.4401    135434.52   -41471.501    2607.1232   -44078.624    16.035659   0.92216882 
   22700     211.8736    -981.7184    135377.18   -41484.636    2636.1104   -44120.747    16.055951   0.92255942 
   22800    216.39613    -893.8985    135370.75   -41469.868    2692.3792   -44162.247    15.980877   0.92260321 
   22900    209.01057   -967.58433    135232.34   -41513.482    2600.4888   -44113.971    16.020297   0.92354752 
   23000    213.87444   -751.94265    135358.24   -41489.496    2661.0047     -44150.5    16.023579   0.92268847 
   23100    209.79244   -853.05302    135285.41   -41586.017    2610.2168   -44196.234    15.966937    0.9231852 
   23200    213.53766   -884.72738    135332.54   -41534.788    2656.8145   -44191.603    16.038763   0.92286371 
   23300    208.11295   -965.37122    135254.55    -41578.68    2589.3208   -44168.001    16.096688   0.92339588 
   23400    211.92424   -969.28544    135198.84    -41510.93    2636.7405   -44147.671    16.123266   0.92377637 
   23500     210.6571   -1041.2156    135267.96   -41546.553    2620.9748   -44167.528    16.069853   0.92330435 
   23600    211.60682   -768.04779    135270.67   -41532.743    2632.7912   -44165.535    16.064553   0.92328582 
   23700    207.35372   -934.63298    135288.04   -41578.062    2579.8745   -44157.936    16.052666   0.92316729 
   23800    210.02838   -805.22076    135377.21   -41624.371    2613.1523   -44237.523    16.141689   0.92255917 
   23900    205.78997   -949.63026    135348.43   -41629.343    2560.4185   -44189.761    16.202294   0.92275536 
   24000     210.9354   -968.26099    135246.84   -41556.591    2624.4374   -44181.028    16.086932   0.92344852 
   24100    209.80237   -891.75737    135188.36   -41554.833    2610.3403   -44165.173    16.238204   0.92384796 
   24200    206.46118   -744.83754    135205.46   -41611.672    2568.7696   -44180.441    16.345029   0.92373115 
   24300    208.05062   -825.56964     135333.6   -41574.864    2588.5452   -44163.409    16.243978   0.92285651 
   24400    206.72651   -942.06175    135363.74   -41615.915    2572.0708   -44187.986    16.229566   0.92265104 
   24500    210.72278   -883.92691    135307.22   -41573.297     2621.792   -44195.089    16.302498   0.92303642 
   24600     210.7013   -798.24138    135186.73    -41566.87    2621.5247   -44188.395    16.510548   0.92385911 
   24700    207.10524   -877.81271    135234.96   -41585.868    2576.7829   -44162.651    16.434158   0.92352965 
   24800    210.72731   -787.56784    135278.18   -41580.578    2621.8484   -44202.426    16.509102   0.92323454 
   24900     211.8182   -909.37491    135367.02   -41521.377     2635.421   -44156.798    16.497557   0.92262868 
   25000    212.54944   -908.30056    135332.07   -41519.646    2644.5191   -44164.165    16.506876   0.92286694 
   25100    210.16188   -831.22392    135548.66   -41522.952    2614.8134   -44137.765    16.510545   0.92139229 
   25200     208.8852   -1008.2808    135556.22    -41572.54     2598.929   -44171.469    16.546334   0.92134089 
   25300    209.97669   -945.86719    135437.14   -41576.491    2612.5092       -44189    16.623793   0.92215101 
   25400    211.26209   -908.89477     135459.8    -41567.89    2628.5021   -44196.392    16.664862   0.92199674 
   25500    214.25478   -835.46271    135311.01   -41524.161    2665.7368   -44189.897    16.623091   0.92301055 
   25600    206.36275   -981.14643    135394.94   -41607.635    2567.5449    -44175.18    16.470059    0.9224384 
   25700    210.37506   -992.55733    135383.63   -41626.619    2617.4657   -44244.085    16.458367   0.92251543 
   25800    206.95471    -812.6541     135533.6   -41606.262      2574.91   -44181.172    16.436508    0.9214947 
   25900    209.26195   -893.36519    135635.08    -41560.11    2603.6165   -44163.726    16.679003   0.92080525 
   26000    208.48031   -833.60488    135691.03   -41502.934    2593.8914   -44096.825     16.79152   0.92042556 
   26100    210.83307   -821.97529     135707.5   -41590.307    2623.1642   -44213.471    16.699657   0.92031382 
   26200    206.98071    -924.1085     135681.6   -41578.568    2575.2335   -44153.802    16.677893   0.92048951 
   26300     209.5765   -918.67654    135528.48   -41554.663    2607.5301   -44162.193    16.600071    0.9215295 
   26400    211.73875   -936.35214    135529.15   -41549.333    2634.4326   -44183.765    16.708297   0.92152496 
   26500    210.43129   -969.09178    135446.14   -41612.685    2618.1653    -44230.85    16.753372   0.92208968 
   26600    208.29156   -881.37167    135524.81   -41660.853     2591.543   -44252.396    16.804299   0.92155446 
   26700    209.19143   -810.73082    135616.15   -41683.938     2602.739   -44286.677    16.845976   0.92093379 
   26800    209.88676   -1025.2959    135555.95   -41624.414    2611.3903   -44235.804    16.816655   0.92134274 
   26900    206.11549   -1008.1765    135514.08   -41616.179    2564.4685   -44180.647    16.753527   0.92162741 
   27000     205.3523   -989.53608    135275.68   -41657.846     2554.973   -44212.819    16.768661    0.9232516 
   27100     208.2611   -929.72824    135274.53   -41647.699     2591.164   -44238.863    16.874896   0.92325949 
   27200    206.43429   -873.14791    135162.43    -41650.57     2568.435   -44219.005    16.816407   0.92402519 
   27300    205.33581   -931.06403    135179.08   -41659.322    2554.7678    -44214.09     16.81217   0.92391138 
   27400    206.57467   -895.28139    135254.87   -41593.908    2570.1816    -44164.09    16.910763   0.92339369 
   27500    215.40947   -896.43623    135173.74    -41529.81    2680.1033   -44209.913    16.882724   0.92394787 
   27600     212.4135   -737.38835    135350.79   -41566.474    2642.8278   -44209.302    16.830976   0.92273928 
   27700    208.61637    -855.4472    135264.99   -41571.395    2595.5843    -44166.98    16.818727   0.92332458 
   27800    212.10954   -881.05025    135342.92   -41510.493     2639.046   -44149.539    16.905558   0.92279293 
   27900    209.10538   -749.33475    135469.15   -41535.542    2601.6685   -44137.211    16.936132    0.9219331 
   28000    211.07708   -860.93278    135502.45   -41573.838    2626.2002   -44200.038    16.944485   0.92170649 
   28100    206.68874   -1020.9962     135594.2   -41559.019    2571.6009    -44130.62    16.946124   0.92108284 
   28200    207.91387   -771.73594     135473.7   -41606.446    2586.8439    -44193.29    17.045413   0.92190215 
   28300    205.88704   -719.11819    135493.84   -41597.407    2561.6262   -44159.033    16.995783   0.92176508 
   28400     207.7953   -1045.7412    135562.68   -41638.018    2585.3685   -44223.386    16.922457   0.92129698 
   28500    207.97464   -933.13329    135411.74   -41661.584    2587.5999   -44249.184    16.907219   0.92232397 
   28600    210.07501    -829.4712    135469.12   -41612.949    2613.7326   -44226.682    16.863155   0.92193328 
   28700    207.32953   -863.98506    135692.88    -41617.21    2579.5736   -44196.784    17.003804   0.92041302 
   28800    210.75834   -941.20731    135716.58   -41586.714    2622.2345   -44208.948    16.993029   0.92025231 
   28900    210.92846   -930.49636    135560.81   -41556.315    2624.3511   -44180.666    16.998877   0.92130968 
   29000     207.7004   -931.16406    135595.76   -41623.506    2584.1879   -44207.694    17.012328   0.92107225 
   29100    210.11153   -933.01614    135606.84   -41573.248    2614.1869   -44187.435    17.075076   0.92099697 
   29200    207.76919   -978.79095    135585.75   -41544.837    2585.0437   -44129.881    17.176852   0.92114026 
   29300    206.28337   -1043.7944    135479.36   -41608.623    2566.5573    -44175.18     17.22633   0.92186359 
   29400    207.83139   -866.42482    135476.63   -41664.072    2585.8176   -44249.889    17.153212   0.92188216 
   29500    204.75313   -822.66404    135688.43   -41685.472    2547.5182   -44232.991    17.203323    0.9204432 
   29600    209.42471   -944.06654    135848.99   -41610.513    2605.6416   -44216.155    17.256169    0.9193553 
   29700    207.02205   -952.11255    135838.72   -41648.078    2575.7479   -44223.826    17.325968   0.91942481 
   29800    208.10748   -939.22799    135798.02   -41627.622    2589.2527   -44216.875    17.259865   0.91970036 
   29900    211.99384   -817.53704     135846.6    -41648.81    2637.6064   -44286.416    17.347567   0.91937149 
   30000    208.57841   -881.62243    135876.44   -41628.705     2595.112   -44223.817    17.398714   0.91916962 
   30100    208.93528   -900.48086     135800.3   -41637.891    2599.5521   -44237.443    17.339829   0.91968497 
   30200    207.16466    -1043.453    135752.18   -41656.511    2577.5222   -44234.033    17.375421   0.92001097 
   30300    207.58154   -922.35668    135662.57   -41616.388     2582.709   -44199.097    17.400438   0.92061866 
   30400    211.06152   -885.98918    135682.35   -41599.945    2626.0065   -44225.952    17.467971   0.92048441 
   30500    208.54534   -933.27845     135724.9   -41607.402    2594.7005   -44202.102    17.484272   0.92019584 
   30600    209.63263   -978.98897    135546.95   -41604.928    2608.2285   -44213.156    17.443963   0.92140391 
   30700    209.22065   -933.99206    135520.16   -41619.179    2603.1027   -44222.281     17.47814   0.92158609 
   30800    214.11955   -916.79307    135434.69   -41559.746    2664.0543     -44223.8    17.552293   0.92216769 
   30900    207.36358   -946.85829    135502.04   -41665.753    2579.9972    -44245.75    17.546143   0.92170932 
   31000    206.60212   -977.49563    135392.03   -41697.255    2570.5232   -44267.778    17.445845   0.92245823 
   31100    207.74328   -833.10602    135622.65   -41676.874    2584.7213   -44261.595    17.598531   0.92088965 
   31200    210.25179   -869.70681    135616.06   -41684.438    2615.9319    -44300.37    17.519853   0.92093437 
   31300    208.65129   -883.01053    135744.55   -41640.908    2596.0187   -44236.926    17.696047   0.92006265 
   31400      212.845   -846.38137    135762.94   -41612.281    2648.1964   -44260.477     17.63043   0.91993804 
   31500    205.96201   -1013.9876    135720.78   -41660.695     2562.559   -44223.254    17.557932   0.92022383 
   31600    208.94652   -956.55111    135799.84   -41596.297     2599.692   -44195.989    17.592445   0.91968804 
   31700    210.03889   -887.48326    135792.69   -41638.576    2613.2831   -44251.859    17.634086   0.91973649 
   31800    216.79106   -837.74108    135739.59   -41576.087     2697.293    -44273.38    17.659765   0.92009626 
   31900    212.74943   -916.82038    135876.63   -41567.039    2647.0074   -44214.046    17.784851    0.9191683 
   32000    212.33063   -713.22886    135805.68   -41567.972    2641.7967   -44209.769    17.791086    0.9196485 
   32100    210.38574   -918.76792     135833.8   -41596.251    2617.5986   -44213.849    17.742027    0.9194581 
   32200    211.22441   -779.42847    135833.87   -41589.837    2628.0333    -44217.87    17.769198   0.91945764 
   32300    211.68542   -943.06828    135831.35   -41568.792    2633.7691   -44202.561    17.830018   0.91947473 
   32400     211.2909   -955.17075    135901.63   -41624.533    2628.8605   -44253.393    17.828903   0.91899923 
   32500    208.44725   -905.74255    135893.86    -41634.49    2593.4801    -44227.97    17.961847   0.91905179 
   32600    213.32488   -906.74449    135948.54   -41583.826    2654.1671   -44237.993    18.005811   0.91868208 
   32700    207.91889   -867.74384    135874.84   -41646.152    2586.9063   -44233.059    17.909142   0.91918038 
   32800    208.76473   -1002.6106    135908.89   -41678.453    2597.4301   -44275.883    17.889483   0.91895013 
   32900     207.5654   -919.63743    135903.64   -41663.958    2582.5081   -44246.466    17.862975   0.91898562 
   33000     205.7803   -1098.5022    135865.84   -41712.958    2560.2982   -44273.256    17.968108   0.91924131 
   33100    207.97003   -858.29819    135757.41   -41647.773    2587.5425   -44235.315    17.845277   0.91997548 
   33200    210.99095   -781.91552    135750.27   -41683.178    2625.1286   -44308.306    17.894627   0.92002392 
   33300    210.33978    -939.3548    136066.23   -41626.069    2617.0268   -44243.095    18.118432    0.9178875 
   33400    205.89092    -963.4077    135989.67   -41709.811    2561.6745   -44271.486    17.908256   0.91840423 
   33500    206.84145   -877.43277    135964.61   -41675.149    2573.5009   -44248.649    18.002412   0.91857352 
   33600    210.73935   -855.96028    136005.01   -41652.579    2621.9981   -44274.577    17.985341   0.91830065 
   33700    210.24684   -890.33126    135925.34   -41644.704    2615.8704   -44260.575    17.989112   0.91883893 
   33800    211.02687   -971.98612    135806.76   -41641.812    2625.5755   -44267.388    17.982641   0.91964122 
   33900    212.64104   -895.00761     135809.2   -41652.631    2645.6589   -44298.289    17.980918   0.91962465 
   34000     209.8585   -855.11838    135780.33   -41616.264    2611.0387   -44227.303    18.096128   0.91982022 
   34100    212.07105   -828.88586    135865.68   -41639.881     2638.567   -44278.448    18.128782    0.9192424 
   34200    210.82725    -769.7018    135872.64   -41651.101    2623.0919   -44274.193    18.202819   0.91919529 
   34300    207.92811   -900.15661    135894.37   -41707.472    2587.0209   -44294.493     18.16718   0.91904831 
   34400    206.84689   -898.56913    136013.18   -41635.453    2573.5685   -44209.022    18.104825    0.9182455 
   34500    210.85308   -1011.4062    136054.54   -41654.999    2623.4132   -44278.412     18.05393   0.91796638 
   34600     209.8214   -952.91487    135997.55   -41645.136    2610.5772   -44255.713    18.114536   0.91835107 
   34700    211.47846   -936.59011    135915.95   -41719.148    2631.1941   -44350.342     18.09311   0.91890236 
   34800    207.77871    -830.6633    135900.31   -41706.039    2585.1622   -44291.202      18.1707   0.91900817 
   34900    210.19663   -944.88932     136028.8   -41719.001    2615.2457   -44334.246      18.2438   0.91814004 
   35000    207.62949   -835.97275    136051.46   -41789.807    2583.3056   -44373.113    18.265506   0.91798712 
   35100    205.18007   -869.89264     136152.7   -41729.844    2552.8302   -44282.674    18.322691   0.91730452 
   35200    211.46628   -919.35475    136277.55   -41730.281    2631.0425   -44361.323     18.21725   0.91646415 
   35300    212.20163   -858.30516    136390.49   -41721.295    2640.1917   -44361.486    18.180063   0.91570529 
   35400    205.87254    -915.8923    136292.17   -41739.215    2561.4458   -44300.661    18.243658   0.91636585 
   35500    208.85093   -884.28443     136361.5   -41642.039    2598.5026   -44240.541    18.424407   0.91589998 
   35600    207.44922   -1078.8079    136142.54   -41691.058    2581.0627   -44272.121    18.520612   0.91737301 
   35700    208.48696   -942.54546     136139.9   -41646.057    2593.9741   -44240.031    18.335115   0.91739079 
   35800    210.21158    -997.3767    136077.37   -41684.127    2615.4317   -44299.559    18.294125   0.91781234 
   35900    210.95598   -1092.3632    135977.99   -41648.184    2624.6934   -44272.878    18.249876   0.91848314 
   36000    209.52617   -964.16262     135904.7   -41622.058    2606.9039   -44228.962    18.149675   0.91897845 
   36100    209.45642   -985.32273    135889.76   -41647.629    2606.0361   -44253.665    18.192335   0.91907951 
   36200    207.64603   -885.88343     135969.8   -41680.763    2583.5113   -44264.274    18.274021   0.91853848 
   36300    208.90077   -824.31613    136004.08    -41736.35    2599.1228   -44335.472    18.398146   0.91830692 
   36400    214.56435   -891.73834    136096.78   -41681.585    2669.5884   -44351.173    18.274355   0.91768145 
   36500    214.04718   -924.47434    136235.09   -41666.134    2663.1538   -44329.288    18.348099   0.91674981 
   36600    206.04452   -876.74566    136263.81   -41790.561    2563.5855   -44354.146    18.311619   0.91655658 
   36700    209.41537   -815.15877    136140.38   -41724.806    2605.5253   -44330.331    18.350649   0.91738755 
   36800    208.70504     -1066.17    136092.98   -41716.758    2596.6875   -44313.445    18.287683   0.91770705 
   36900    204.22102   -950.28553    136085.95   -41728.045    2540.8977   -44268.942    18.308548   0.91775449 
   37000    212.65715    -949.5521    136146.11   -41669.096    2645.8592   -44314.955    18.457345   0.91734894 
   37100    212.48843   -990.95512    135985.56   -41642.771    2643.7601   -44286.531    18.318616   0.91843199 
   37200    210.10324   -990.10038    136061.86   -41693.202    2614.0838   -44307.286    18.245641     0.917917 
   37300     208.7172   -907.93529    136040.68   -41695.151    2596.8388    -44291.99    18.270305    0.9180599 
   37400    209.75643   -865.12263    135986.77   -41723.365    2609.7687   -44333.134    18.262749   0.91842386 
   37500    210.48301   -770.16669    136029.36   -41732.024    2618.8088   -44350.833    18.385874   0.91813626 
   37600    208.02409   -875.79691    136048.59   -41689.506    2588.2152   -44277.721    18.407813   0.91800649 
   37700    207.22762   -865.63397    136067.22   -41689.885    2578.3055    -44268.19     18.36915   0.91788082 
   37800    206.02195   -899.38596    136009.68   -41783.652    2563.3048   -44346.957    18.406668   0.91826913 
   37900    208.18716   -801.78997    136124.07   -41740.733     2590.244   -44330.977    18.493697   0.91749745 
   38000    206.75198   -1012.2361    136148.51   -41710.478    2572.3877   -44282.865    18.565803   0.91733279 
   38100    209.07055    -856.5748    136032.54   -41671.612    2601.2351   -44272.847    18.541651   0.91811485 
   38200    204.65894   -974.82361    136168.16   -41683.001    2546.3463   -44229.347    18.523718   0.91720041 
   38300    208.20392   -1026.4714    136076.91   -41627.053    2590.4527   -44217.506    18.442475   0.91781548 
   38400    210.36892   -800.30409    136152.78   -41681.144    2617.3893   -44298.533    18.504305   0.91730404 
   38500    208.57022   -996.94419    136119.39   -41693.632    2595.0101   -44288.642    18.587853   0.91752899 
   38600    210.40752   -894.33709    136015.07   -41649.399    2617.8695   -44267.268    18.684136   0.91823275 
   38700    210.98796   -772.46238    136080.86   -41648.071    2625.0914   -44273.163    18.550175   0.91778879 
   38800    209.53132   -903.88183    136118.27   -41674.856     2606.968   -44281.824    18.586879   0.91753656 
   38900    211.12655   -955.19549    135962.51   -41637.566    2626.8157   -44264.382    18.522066   0.91858768 
   39000    210.80487   -844.11988     136021.8   -41689.053    2622.8133   -44311.866    18.527887   0.91818734 
   39100    207.12913   -1043.6501    135942.96   -41643.705    2577.0802   -44220.785     18.54316   0.91871985 
   39200    209.20381   -999.07706    135878.09   -41664.264    2602.8931   -44267.157    18.601645   0.91915841 
   39300    210.64763   -823.28437    135862.14   -41651.392     2620.857   -44272.249    18.730243   0.91926636 
   39400    210.80292   -924.20803    135917.07   -41607.224    2622.7891   -44230.013    18.705614   0.91889479 
   39500    212.92591   -846.13124    135858.73   -41593.191    2649.2032   -44242.394    18.637925   0.91928944 
   39600    208.44027   -891.68782    135797.56   -41630.218    2593.3932   -44223.611    18.619018   0.91970348 
   39700    214.83006   -829.52662     135827.3   -41575.866    2672.8944    -44248.76    18.663888    0.9195021 
   39800    212.29198   -953.62122    135974.85   -41636.822    2641.3158   -44278.138    18.659269   0.91850434 
   39900     210.3101   -873.61193    135883.31   -41688.509    2616.6575   -44305.167    18.685652   0.91912313 
   40000    208.99657    -919.2329    135841.15   -41716.461    2600.3147   -44316.776    18.733197   0.91940839 
   40100    207.50294   -830.17795    135689.54   -41633.802    2581.7311   -44215.533    18.787693   0.92043567 
   40200    210.35193   -825.48264    135916.05    -41653.03     2617.178   -44270.208    18.772716   0.91890169 
   40300    213.98365   -783.10207    135934.94   -41631.772    2662.3634   -44294.135    18.859918   0.91877401 
   40400    211.12704   -885.52982    135918.43   -41559.175    2626.8217   -44185.996    18.953751   0.91888564 
   40500    216.50871   -817.33636    135888.78    -41590.19    2693.7799    -44283.97    18.919699   0.91908609 
   40600    211.14638    -745.0829    135829.25   -41634.688    2627.0624   -44261.751    18.976498   0.91948891 
   40700    209.90228   -903.79653    135947.93   -41680.994    2611.5835   -44292.577    18.922223   0.91868623 
   40800    207.84074   -914.91343    135952.15   -41730.143    2585.9339   -44316.077    18.845903   0.91865772 
   40900    206.86447   -951.65523    135874.28   -41750.826    2573.7872   -44324.613    18.921163   0.91918419 
   41000    210.68496    -782.8598    135895.72   -41670.021    2621.3214   -44291.343    19.013319   0.91903918 
   41100    210.78359    -961.8683    136106.26   -41646.393    2622.5486   -44268.942    18.974203   0.91761752 
   41200    209.96218   -896.09652    136004.17   -41672.883    2612.3287   -44285.211    18.961971   0.91830635 
   41300    208.29625   -919.53751    135962.55    -41814.83    2591.6014   -44406.431    18.944916   0.91858744 
   41400    207.63752   -933.20178    136048.45   -41757.514    2583.4055    -44340.92    18.950951   0.91800746 
   41500    205.84078   -944.38617    136004.29   -41758.611    2561.0507   -44319.661    19.131097   0.91830551 
   41600    212.43585   -785.97124    135913.44   -41726.715    2643.1058   -44369.821    18.921987   0.91891939 
   41700    213.10417   -913.93194    135893.09   -41698.495     2651.421   -44349.916    18.951122   0.91905693 
   41800    206.67785   -934.28684    135960.34   -41708.186    2571.4654   -44279.652    19.009747   0.91860239 
   41900    209.07157   -842.95432    135969.66   -41678.148    2601.2478   -44279.396    19.053577   0.91853939 
   42000    212.20463   -947.85041    135945.82   -41664.565     2640.229   -44304.794    19.023623   0.91870052 
   42100    209.06545   -953.43688    135991.14   -41668.827    2601.1717   -44269.999    18.941162   0.91839431 
   42200    211.99671   -805.57676     135997.7   -41625.825    2637.6421   -44263.467    19.002772   0.91835003 
   42300    212.02206    -993.9157    136075.08   -41605.357    2637.9576   -44243.315     19.06503   0.91782779 
   42400    209.50679   -792.11361    135980.47   -41631.921    2606.6628   -44238.584    19.040131    0.9184664 
   42500    212.55387   -1020.9165    136066.63    -41638.15    2644.5742   -44282.724    19.229928   0.91788481 
   42600    211.20038   -938.21115    136044.36   -41647.361    2627.7342   -44275.095    19.093705   0.91803506 
   42700     208.8136   -921.69302    135987.97   -41660.212    2598.0381    -44258.25    19.135811   0.91841576 
   42800    212.29157   -873.21517    135906.47   -41615.094    2641.3107   -44256.405    19.093949   0.91896649 
   42900    211.31017   -847.35643    135917.31   -41687.232    2629.1002   -44316.332    19.164128   0.91889319 
   43000    212.43564   -920.40253    135966.14   -41711.291    2643.1032   -44354.395    19.138537   0.91856319 
   43100     210.8423   -861.04914     136020.7   -41689.763    2623.2791   -44313.042    19.195831   0.91819472 
   43200    210.67794   -832.68386    136057.85   -41644.976    2621.2341    -44266.21     19.31443   0.91794405 
   43300    210.85835   -1028.6154    136031.49   -41659.072    2623.4787   -44282.551    19.337643   0.91812193 
   43400    215.11669   -924.30322    135940.89   -41615.515    2676.4606   -44291.975    19.234539   0.91873381 
   43500    212.50954   -817.00267    136003.72   -41621.419    2644.0227   -44265.442    19.309369   0.91830937 
   43600    213.10726   -905.72866    136078.58    -41545.04    2651.4595   -44196.499    19.266888   0.91780416 
   43700    214.45189   -783.80415    136174.22   -41571.254    2668.1892   -44239.443    19.288143   0.91715958 
   43800    213.85346    -1105.599       136257   -41586.145    2660.7437   -44246.888    19.371403   0.91660242 
   43900    213.04521   -855.30371    136333.62   -41631.072    2650.6874   -44281.759    19.428035   0.91608728 
   44000    213.03182   -967.15916    136339.28   -41667.208    2650.5209   -44317.729    19.460703   0.91604922 
   44100    208.75775   -857.13899    136146.57    -41688.07    2597.3433   -44285.413    19.425484   0.91734585 
   44200    209.52847   -882.41588    136233.48   -41735.616    2606.9325   -44342.548    19.377596   0.91676065 
   44300     207.3088   -923.38082    136272.88   -41740.858    2579.3156   -44320.174    19.436184   0.91649558 
   44400    211.88499   -752.98114    136322.58   -41706.789    2636.2521   -44343.041    19.502067   0.91616144 
   44500    208.94697   -829.76976    136265.71   -41734.108    2599.6976   -44333.806    19.547175   0.91654378 
   44600    205.32606   -875.53538    136310.89   -41798.873    2554.6465    -44353.52    19.409486   0.91624002 
   44700    207.91607   -791.29873    136243.75   -41775.094    2586.8712   -44361.965     19.52438   0.91669155 
   44800    205.52368   -868.67185    136337.88    -41737.75    2557.1053   -44294.856    19.570408   0.91605863 
   44900    214.17069   -951.32562    136438.76   -41686.192    2664.6905   -44350.883    19.622624   0.91538134 
   45000    211.35832   -939.20754    136383.24   -41685.286    2629.6993   -44314.985    19.679422   0.91575397 
   45100    213.34805   -1003.6635    136326.02   -41634.079    2654.4553   -44288.535    19.500053    0.9161383 
   45200     214.0386   -904.85805    136332.92   -41707.507    2663.0471   -44370.554    19.668568   0.91609193 
   45300     206.8825   -974.27376    136198.52   -41726.235    2574.0116   -44300.247    19.733732   0.91699594 
   45400    209.26496   -898.35186    136172.98   -41709.927     2603.654   -44313.581    19.682562   0.91716792 
   45500    211.26687   -1018.0677    136123.36   -41722.039    2628.5615     -44350.6    19.603252   0.91750227 
   45600      211.732   -928.25699     136180.5   -41721.354    2634.3487   -44355.703    19.635665   0.91711727 
   45700    209.02526   -960.37986     136223.9   -41730.689    2600.6716   -44331.361     19.58167   0.91682508 
   45800    215.11527     -920.799    136087.76   -41687.562     2676.443   -44364.005    19.525267   0.91774226 
   45900    213.48405   -795.73697    136122.48   -41631.368    2656.1474   -44287.515     19.67288   0.91750816 
   46000    214.00889    -818.6684    136179.09     -41610.9    2662.6775   -44273.577    19.697302   0.91712682 
   46100    218.08709   -984.03016    136255.58   -41574.427     2713.418   -44287.845    19.776481   0.91661193 
   46200    217.15224   -872.85239    136293.31   -41577.136    2701.7868   -44278.923    19.745164   0.91635818 
   46300    216.41864   -832.87987    136324.74   -41592.686    2692.6593   -44285.345    19.658282   0.91614692 
   46400    212.06139   -970.72719    136262.73    -41623.34    2638.4468   -44261.787    19.632545   0.91656383 
   46500    210.31402   -876.64423    136327.31   -41624.422    2616.7062   -44241.129    19.625929   0.91612968 
   46600    215.82115   -974.80218    136157.89   -41617.113    2685.2254   -44302.338    19.661431   0.91726958 
   46700    212.68108   -924.16239    136131.52    -41704.78     2646.157   -44350.937     19.63046   0.91744726 
   46800    208.18125   -1081.9629    136087.46   -41748.589    2590.1705    -44338.76     19.66296   0.91774432 
   46900    211.29357   -951.59736    136028.85   -41674.458    2628.8938   -44303.352     19.71009   0.91813971 
   47000    216.04336    -812.3003    136019.34   -41669.214    2687.9902   -44357.204    19.789959    0.9182039 
   47100    207.84307   -935.02911    135935.56   -41649.804    2585.9629   -44235.767    19.751268    0.9187698 
   47200    209.26318   -913.14786     136017.4   -41709.136    2603.6318   -44312.768    19.617278     0.918217 
   47300    207.89842    -870.5379    135947.63    -41715.53    2586.6516   -44302.182    19.719513   0.91868825 
   47400    210.71752   -852.33457    136063.98   -41667.503    2621.7266    -44289.23    19.841739   0.91790266 
   47500     214.2743   -951.70915    136108.01   -41606.132    2665.9797   -44272.112    19.796898   0.91760573 
   47600    213.90015   -799.43899    136122.51   -41564.137    2661.3245   -44225.462     19.79495   0.91750802 
   47700    211.17563   -893.31931    136188.38   -41603.423    2627.4264   -44230.849    19.807457    0.9170642 
   47800    216.13011    -981.4902    136001.06   -41613.094    2689.0695   -44302.163    19.803626   0.91832732 
   47900    207.88554   -783.80096    135935.01   -41705.588    2586.4913    -44292.08    19.797852   0.91877352 
   48000    212.04567   -898.70951    136039.72   -41724.819    2638.2512   -44363.071    19.934365   0.91806637 
   48100     208.0313   -1039.1207    136181.71   -41687.503    2588.3049   -44275.808    20.007071   0.91710915 
   48200    206.50623   -980.10597    136130.11   -41723.626    2569.3301   -44292.956    19.974776   0.91745677 
   48300    212.35071   -999.52903    136115.47   -41716.164    2642.0465    -44358.21    19.901324   0.91755547 
   48400     213.5035   -984.45599     135958.5   -41645.012    2656.3894   -44301.402    19.792696   0.91861481 
   48500    211.29702   -850.59643    135892.18   -41707.632    2628.9367   -44336.569    20.052003   0.91906314 
   48600    207.37787   -949.54493    135934.64   -41702.298    2580.1749   -44282.473    19.901298   0.91877607 
   48700    212.34557   -751.45643    135981.99   -41666.102    2641.9825   -44308.084    19.945559   0.91845609 
   48800      208.891   -887.07339    136027.93   -41691.714    2599.0012   -44290.715    20.019921   0.91814594 
   48900     210.8874   -875.21156    136091.76   -41682.816    2623.8402   -44306.656    19.939494   0.91771531 
   49000     208.9782   -934.16477    136062.76   -41724.266    2600.0861   -44324.352    19.999293    0.9179109 
   49100    212.09748   -873.45812     136117.5   -41716.739    2638.8959   -44355.635    20.093011   0.91754173 
   49200    209.54831    -899.6712    136149.31   -41738.296    2607.1794   -44345.475    20.019554    0.9173274 
   49300    210.24838   -799.98028    136108.73   -41694.563    2615.8895   -44310.453    20.051211   0.91760088 
   49400    210.42011   -1037.6891    135929.01   -41671.621    2618.0263   -44289.648    19.987894   0.91881408 
   49500    210.79565   -898.74485    136083.21   -41687.864    2622.6987   -44310.563    20.065629   0.91777299 
   49600      210.558   -816.37055    135968.44   -41691.793    2619.7418   -44311.535    20.128292   0.91854763 
   49700    210.50018   -978.42754    135890.52   -41701.108    2619.0225   -44320.131    20.027456   0.91907437 
   49800    209.99905   -874.43083    135883.14    -41748.04    2612.7874   -44360.827    20.089448   0.91912426 
   49900    208.26616   -953.62652    135948.63    -41640.75     2591.227   -44231.977    20.262115    0.9186815 
   50000    212.17049   -844.04802    135840.13   -41673.916    2639.8043   -44313.721    20.310295   0.91941529 
   50100     211.3013   -918.12393    135990.59   -41686.937    2628.9899   -44315.927    20.179406   0.91839807 
   50200    213.28426   -1027.6466    135942.34   -41730.211    2653.6617   -44383.873    20.214126   0.91872402 
   50300    210.24122   -928.49622    135802.85   -41705.502    2615.8005   -44321.302    20.237669   0.91966766 
   50400    210.08982   -919.57114    135903.67   -41727.946    2613.9168   -44341.863    20.243474   0.91898539 
   50500    209.53093   -763.48562    135893.03   -41770.656    2606.9631   -44377.619    20.293288   0.91905739 
   50600    207.39865   -906.79916    135883.91   -41785.915    2580.4335   -44366.348    20.240377   0.91911903 
   50700    209.14179   -974.91194    135857.04   -41794.224    2602.1214   -44396.346    20.225672   0.91930083 
   50800     208.0055   -816.33114    135991.42    -41776.28    2587.9838   -44364.264    20.292174   0.91839243 
   50900     208.0372   -862.81193     136084.8   -41693.836    2588.3782   -44282.214    20.273424   0.91776225 
   51000     210.8595   -812.33116    136079.03   -41726.431    2623.4931   -44349.924     20.31415   0.91780113 
   51100    210.55865   -1022.1431    136005.01   -41763.567    2619.7499   -44383.317    20.344896   0.91830069 
   51200    208.52344   -951.83439    135938.25   -41748.415     2594.428   -44342.843    20.303561   0.91875162 
   51300    204.48101   -929.94959    135785.56   -41808.413    2544.1325   -44352.546    20.405776   0.91978475 
   51400    206.18011   -763.84054    135879.79   -41806.348    2565.2726   -44371.621    20.399475   0.91914695 
   51500    206.94898   -853.43154    135676.19   -41820.375    2574.8388   -44395.214    20.251483    0.9205262 
   51600     206.9955   -844.29815    136004.43   -41761.164    2575.4175   -44336.581    20.363772   0.91830461 
   51700    213.83024   -849.00789    136003.08   -41754.093    2660.4547   -44414.548    20.438743   0.91831368 
   51800    206.07251   -888.76241    136087.03    -41785.13    2563.9338   -44349.064     20.57378   0.91774718 
   51900    208.08877   -971.48932    136060.82   -41824.674    2589.0199   -44413.694    20.375906   0.91792398 
   52000    202.99454   -862.23616    136083.23   -41844.022     2525.638    -44369.66    20.466187   0.91777284 
   52100    205.07671   -931.59025    136047.66   -41780.008    2551.5441   -44331.552    20.432956   0.91801278 
   52200    206.28617   -986.87929    136012.09   -41796.977    2566.5922   -44363.569    20.531768   0.91825285 
   52300    206.47156   -1083.2196    136001.51   -41780.397    2568.8987   -44349.296    20.548803   0.91832427 
   52400    209.46888   -891.08744    136020.09    -41727.44    2606.1911   -44333.631     20.54881   0.91819886 
   52500    212.45403   -845.73468    136187.37   -41732.027    2643.3321   -44375.359    20.525069   0.91707099 
   52600    210.98976   -878.54081    136064.58   -41751.624    2625.1138   -44376.738    20.480869   0.91789863 
   52700    209.70792   -833.87195    136022.69   -41771.407    2609.1652   -44380.572    20.624734   0.91818131 
   52800      208.517   -1048.1247     136213.1   -41728.408    2594.3479   -44322.755    20.636035   0.91689782 
   52900    208.55446   -956.65111    136216.59   -41717.894    2594.8139   -44312.708    20.778217    0.9168743 
   53000    210.09942   -878.34177    136154.17   -41694.975    2614.0362   -44309.011    20.764597   0.91729462 
   53100    208.58386   -919.56738    136195.88   -41736.775    2595.1798   -44331.955       20.625   0.91701371 
   53200    208.63222   -904.79469    136059.13   -41723.722    2595.7815   -44319.504     20.55833   0.91793541 
   53300    207.40554   -1009.6466    136128.22   -41709.511    2580.5192    -44290.03    20.606446   0.91746951 
   53400    206.01827   -950.80995    136217.33   -41783.421     2563.259    -44346.68    20.682932   0.91686932 
   53500    208.37993   -974.74362    136238.24   -41787.306    2592.6425   -44379.949    20.776514   0.91672862 
   53600    208.29646   -760.74162    136273.12   -41787.125    2591.6039   -44378.729    20.648662   0.91649399 
   53700    211.71724   -899.04633     136277.8    -41818.93    2634.1649   -44453.095    20.588112   0.91646248 
   53800    209.06619   -892.16966    136390.97   -41703.167    2601.1809   -44304.348    20.571018   0.91570204 
   53900    208.92812   -940.72299    136295.04   -41752.557     2599.463    -44352.02    20.558852   0.91634656 
   54000    212.42274   -939.78375    136388.73   -41728.218    2642.9427   -44371.161    20.500386   0.91571709 
   54100    209.48305   -965.24296    136260.99   -41752.409    2606.3674   -44358.776    20.618737   0.91657557 
   54200    207.30411   -875.09692    136217.15   -41738.995    2579.2572   -44318.252     20.75768   0.91687053 
   54300    208.45284   -1006.2489    136354.38   -41721.907    2593.5496   -44315.456    20.783204   0.91594777 
   54400    208.51428   -958.81622    136257.91   -41748.741     2594.314   -44343.055    20.675009   0.91659626 
   54500    208.75166   -930.36506    136206.23   -41736.029    2597.2675   -44333.297    20.623422   0.91694402 
   54600    209.74569   -901.50468    136305.86   -41650.619    2609.6352   -44260.254    20.561992   0.91627379 
   54700    210.19474   -860.82733    136200.14   -41658.552    2615.2221   -44273.774    20.551727   0.91698505 
   54800    212.24234    -873.7192     136177.4   -41731.785    2640.6982   -44372.483    20.746308   0.91713815 
   54900    214.70849   -879.27189    136269.21   -41773.557    2671.3818   -44444.939    20.771497   0.91652028 
   55000    205.09064   -892.42698    136318.01    -41825.34    2551.7175   -44377.057    20.821947   0.91619213 
   55100    208.68227   -821.03023    136239.95    -41791.98    2596.4042   -44388.384    20.763008   0.91671713 
   55200    205.60954   -996.10178    136206.76   -41790.079    2558.1735   -44348.253    20.768231   0.91694051 
   55300    208.36677   -804.94728    136275.51   -41732.632    2592.4788   -44325.111    20.921527   0.91647789 
   55400    211.93192    -886.2993    136320.64   -41715.833    2636.8361   -44352.669    20.982437   0.91617449 
   55500    212.45449   -869.56498    136078.07   -41666.544    2643.3377   -44309.881    20.845107   0.91780766 
   55600    209.82316   -1050.1238    136041.21   -41704.595     2610.599   -44315.194    20.815819   0.91805628 
   55700    210.76739   -747.40171    136061.73   -41714.925    2622.3471   -44337.272    20.990573   0.91791783 
   55800    210.13582   -899.54119    136109.54   -41725.512    2614.4891   -44340.001    21.010708   0.91759545 
   55900    211.28454   -846.12269    136188.11   -41690.293    2628.7814   -44319.075    20.837873   0.91706606 
   56000    208.40858   -904.05782    136139.91   -41675.415     2592.999   -44268.414    20.808248   0.91739076 
   56100    209.57369   -898.72104    136302.33     -41639.7    2607.4952   -44247.195      21.0576   0.91629754 
   56200    211.99767   -950.53279    136474.98   -41649.236     2637.654    -44286.89    20.977736   0.91513838 
   56300    214.53257   -762.76572    136333.44   -41697.657     2669.193    -44366.85    21.032795   0.91608844 
   56400    206.60471   -904.85055    136322.25   -41682.412    2570.5554   -44252.967    21.106279   0.91616363 
   56500    208.13295   -806.15629    136364.71   -41764.171    2589.5696   -44353.741    21.128924   0.91587838 
   56600    209.37653   -1016.2086     136441.2   -41778.212    2605.0421   -44383.254    20.822134   0.91536495 
   56700    208.79925   -870.31098    136383.69   -41808.599    2597.8596   -44406.459    20.839201   0.91575091 
   56800    210.97193   -850.25987    136300.71   -41739.898     2624.892    -44364.79    20.959949   0.91630842 
   56900    208.46585   -982.35903    136366.43   -41717.319    2593.7115   -44311.031    21.037784   0.91586683 
   57000    214.92104   -895.89314    136289.93    -41662.58    2674.0264   -44336.606    20.939222   0.91638093 
   57100    207.85758   -931.79021    136390.78   -41719.043    2586.1435   -44305.187    21.026295   0.91570334 
   57200    207.90803   -860.86896    136258.81   -41764.571    2586.7712   -44351.342    20.976592   0.91659023 
   57300    208.01359    -809.2212    136295.22   -41816.801    2588.0845   -44404.886    21.009098   0.91634533 
   57400    206.42839   -948.74849    136259.46   -41829.496    2568.3617   -44397.858    20.914596   0.91658585 
   57500    206.30671   -984.87203    136364.08   -41872.236    2566.8477   -44439.084    20.925978   0.91588263 
   57600    209.39585   -787.58477    136374.03   -41827.691    2605.2825   -44432.973    21.189859   0.91581583 
   57700    204.84304    -891.0264    136255.66   -41875.558    2548.6369   -44424.195    21.205402   0.91661137 
   57800      209.993    -894.6958    136354.54   -41901.903    2612.7122   -44514.615    21.170761   0.91594669 
   57900    207.14404   -928.72596    136264.46   -41880.044    2577.2657    -44457.31    21.044511   0.91655219 
   58000    203.62445   -932.54427     136316.8   -41890.382    2533.4753   -44423.858    21.082454   0.91620028 
   58100    207.52364   -755.12398    136272.82   -41822.804    2581.9887   -44404.793    21.196593   0.91649599 
   58200    212.41887   -866.82449     136170.6   -41771.596    2642.8946   -44414.491    21.094616     0.917184 
   58300    211.33903   -1011.7204    136237.53   -41712.795    2629.4593   -44342.254    21.197707   0.91673335 
   58400    211.46324   -875.11124    136273.16   -41714.697    2631.0047   -44345.702     21.22711    0.9164937 
   58500    212.71725   -933.02805    136167.37    -41725.01     2646.607   -44371.617    21.235292   0.91720569 
   58600    210.04722   -932.67687    136216.85   -41699.986    2613.3867   -44313.373    21.124617   0.91687257 
   58700    211.38528   -840.87705     136228.8   -41701.844    2630.0348   -44331.878    21.144326   0.91679211 
   58800    213.29763   -885.34914    136113.01   -41751.799    2653.8281   -44405.627    21.193084   0.91757201 
   58900    207.81084   -907.36066    136174.45   -41794.902    2585.5619   -44380.464    21.218601   0.91715802 
   59000    210.23578   -868.55894     136246.3   -41782.416    2615.7328   -44398.149    21.287211   0.91667438 
   59100    211.48086    -943.7524    136262.95   -41781.296    2631.2239    -44412.52    21.300689   0.91656233 
   59200     208.3484   -827.56239    136146.74   -41798.834    2592.2502   -44391.084    21.220266   0.91734471 
   59300    208.85243    -953.5427    136115.76   -41793.753    2598.5213   -44392.274    21.247768   0.91755353 
   59400    210.91519   -811.32398    136120.82   -41843.532    2624.1859   -44467.718    21.220996    0.9175194 
   59500    206.51673   -823.28304    136046.31   -41811.582    2569.4607   -44381.042    21.305787   0.91802192 
   59600    211.25097   -1004.7009    136205.38   -41809.239    2628.3637   -44437.602    21.267131   0.91694977 
   59700    208.53239   -891.23578     136221.1   -41832.949    2594.5394   -44427.488    21.270488   0.91684398 
   59800     212.4079   -922.56451    136071.49   -41833.209    2642.7581   -44475.967    21.310309   0.91785198 
   59900    209.64912   -814.14833    136301.46   -41803.421    2608.4336   -44411.855    21.334443   0.91630338 
   60000    209.75184   -904.61656    136262.96   -41847.061    2609.7117   -44456.773     21.41951    0.9165623 
   60100    208.41593    -921.2992    136211.25   -41806.277    2593.0904   -44399.367    21.318298   0.91691027 
   60200    210.89038   -1001.4213    136102.96   -41788.616    2623.8772   -44412.493    21.347333   0.91763981 
   60300    213.65689   -958.03768    136026.52   -41759.776     2658.298   -44418.074    21.392335   0.91815543 
   60400    214.12561   -794.96456    136071.15   -41706.908    2664.1297   -44371.038    21.331996   0.91785434 
   60500    207.56512   -912.14425    136031.44   -41737.425    2582.5047   -44319.929    21.431001   0.91812222 
   60600    209.17911   -902.16132    136076.09   -41789.529    2602.5858   -44392.114    21.330668   0.91782099 
   60700    209.74502   -827.85839    136144.03   -41812.811    2609.6269   -44422.438    21.296406   0.91736297 
   60800    212.22321    -763.8501    136382.23   -41762.537    2640.4602   -44402.998    21.586234   0.91576075 
   60900     208.9899   -987.69813    136399.78   -41752.924    2600.2317   -44353.156    21.487643   0.91564289 
   61000    209.07839   -932.30356    136213.85   -41789.928    2601.3327    -44391.26    21.387493   0.91689277 
   61100    212.87788   -880.75491    136360.18   -41821.206    2648.6056   -44469.812      21.3766   0.91590885 
   61200    209.12864   -905.70236     136305.5   -41817.715    2601.9579   -44419.673    21.326347   0.91627623 
   61300    213.54293   -885.52582    136164.88   -41806.611      2656.88   -44463.491     21.46813   0.91722252 
   61400    205.21906   -721.41743    136132.26   -41834.728    2553.3152   -44388.043     21.45912   0.91744228 
   61500    209.91989   -987.47806    136171.59    -41832.11    2611.8025   -44443.913    21.468525   0.91717732 
   61600    205.63629   -898.79198    136073.05   -41794.367    2558.5064   -44352.874    21.590372   0.91784147 
   61700    205.53421   -905.53362    136111.26   -41856.016    2557.2363   -44413.252    21.599094   0.91758384 
   61800    200.71281   -829.77519    136226.58   -41909.615    2497.2489   -44406.864    21.661974    0.9168071 
   61900    206.84471   -1084.2624    136264.26   -41844.002    2573.5415   -44417.543    21.625472   0.91655352 
   62000    206.16897   -880.14876    136234.42   -41802.697    2565.1339   -44367.831    21.642831   0.91675427 
   62100    208.97513    -828.8263    136100.76   -41823.201     2600.048   -44423.249    21.703524   0.91765459 
   62200     211.6481   -841.73778    136277.21   -41778.157    2633.3047   -44411.462    21.570034   0.91646644 
   62300    211.74083   -872.18333    136248.76   -41814.438    2634.4585   -44448.896    21.614113   0.91665779 
   62400    210.50787   -882.50216    136320.97   -41763.475    2619.1181   -44382.593    21.748935   0.91617229 
   62500    210.84836   -868.84715     136282.8   -41784.792    2623.3544   -44408.146    21.641594   0.91642886 
   62600    207.67428   -821.22222    136369.19   -41795.194    2583.8629   -44379.057    21.902318   0.91584827 
   62700    206.89223    -890.6288    136338.46   -41826.874    2574.1327   -44401.007    21.718164   0.91605473 
   62800    209.63571   -883.63572    136462.25   -41806.964    2608.2667    -44415.23    21.779732   0.91522376 
   62900    211.93659   -962.81233     136201.3   -41762.166    2636.8941    -44399.06    21.590068   0.91697721 
   63000    213.73981   -891.41882    136241.28   -41726.732    2659.3296   -44386.062    21.752712   0.91670814 
   63100    215.20523   -965.60077    136305.08    -41714.01    2677.5622   -44391.572    21.860591   0.91627908 
   63200    210.17696   -728.99083    136231.87   -41742.483     2615.001   -44357.484    21.801893   0.91677144 
   63300    208.69812   -794.85236    136388.69   -41765.508    2596.6014   -44362.109    21.772939   0.91571739 
   63400     213.1731   -892.11419    136460.66   -41698.627    2652.2786   -44350.906    21.829731   0.91523438 
   63500    208.88512   -903.62847    136504.79   -41782.067     2598.928   -44380.995    21.803282   0.91493851 
   63600    206.26836   -891.46658    136557.06    -41779.78    2566.3705   -44346.151    21.873005   0.91458833 
   63700    205.35771   -958.55385     136567.9   -41785.897    2555.0404   -44340.937    21.811513   0.91451574 
   63800    206.43472   -968.24252    136421.66   -41892.814    2568.4403   -44461.254    21.868363   0.91549603 
   63900     206.0707   -884.63366    136305.75    -41886.83    2563.9113   -44450.742    21.853191   0.91627456 
   64000    204.14732   -882.99189    136409.63   -41871.242    2539.9808   -44411.222    21.892536   0.91557677 
   64100    211.34084   -889.44034    136512.51   -41793.756    2629.4819   -44423.238    21.813633   0.91488679 
   64200    210.45126   -1000.2409    136547.72    -41799.29    2618.4138   -44417.704    21.907131   0.91465087 
   64300      212.448   -924.40481    136348.81   -41716.733     2643.257    -44359.99    21.834715   0.91598518 
   64400    210.87339   -934.10109    136249.49   -41747.595    2623.6659   -44371.261    21.904548   0.91665293 
   64500     216.1084   -800.64054    136394.36   -41743.107    2688.7993   -44431.906    21.849752   0.91567929 
   64600    208.44532   -1027.5619     136339.2   -41798.692    2593.4561   -44392.148     21.90222   0.91604974 
   64700    209.58068   -888.92235    136548.19   -41812.155    2607.5821   -44419.737    22.019039   0.91464772 
   64800    211.86316   -929.27828    136257.99   -41841.063    2635.9805   -44477.043    21.880753   0.91659573 
   64900    210.79386   -1005.7894    136289.69   -41822.389    2622.6763   -44445.065    21.846141   0.91638251 
   65000    212.06819   -905.72684    136418.48   -41788.532    2638.5314   -44427.063    21.842922   0.91551738 
   65100    214.40132   -1009.5529    136408.68   -41805.396      2667.56   -44472.956    21.885325    0.9155832 
   65200    211.88466   -871.88749    136280.99   -41798.295     2636.248   -44434.543    22.007354   0.91644101 
   65300    213.55702   -813.59415    136254.78   -41802.074    2657.0554   -44459.129    21.928712    0.9166173 
   65400    212.99787   -763.77845    136273.35   -41749.318    2650.0984   -44399.417    22.012753   0.91649244 
   65500    207.31373   -937.21611     136391.8   -41811.421    2579.3769   -44390.798    21.982969   0.91569645 
   65600    208.67452    -819.3124    136530.35   -41847.515    2596.3077   -44443.823    21.950234   0.91476725 
   65700     210.2675   -933.80355    136511.41     -41899.2    2616.1274   -44515.328    22.033466   0.91489417 
   65800    206.74109   -847.16817    136486.62   -41911.238    2572.2522    -44483.49    22.053789   0.91506031 
   65900    209.00125   -939.61393    136437.63   -41880.946    2600.3729   -44481.319    22.076097   0.91538889 
   66000    211.30098   -997.91334    136357.32   -41791.459    2628.9859   -44420.445     22.01604   0.91592802 
   66100       209.95   -995.28091    136307.31   -41737.689    2612.1771   -44349.867    21.942793   0.91626408 
   66200    212.41351   -927.02578    136373.51   -41715.443    2642.8279   -44358.271    21.945305   0.91581929 
   66300    212.92234   -981.45305    136299.91   -41742.987    2649.1588   -44392.146    21.977131   0.91631383 
   66400    210.11734   -938.17856    136352.41   -41780.302    2614.2592   -44394.561    22.083102   0.91596102 
   66500    212.08632   -882.80113    136484.81   -41807.492     2638.757   -44446.249    22.033186   0.91507246 
   66600      208.471   -951.51056    136569.72   -41821.627    2593.7756   -44415.402    21.981907   0.91450356 
   66700    208.95245   -831.96872    136492.02   -41840.565    2599.7657   -44440.331    22.077153   0.91502414 
   66800     211.2179   -963.21426    136391.55   -41783.368    2627.9523    -44411.32    22.072076   0.91569819 
[...]
   84600    205.96393   -929.27209    136488.38   -41927.795    2562.5828   -44490.378    24.075912   0.91504852 
   84700    205.69046   -855.16566     136470.8   -41945.832    2559.1804   -44505.013    24.128319   0.91516641 
   84800    209.89832   -1001.3022    136563.73   -41917.945    2611.5342   -44529.479    24.064828   0.91454365 
   84900    208.21821   -952.91965    136536.45   -41897.301    2590.6304   -44487.931     24.07761   0.91472637 
   85000    209.28696   -924.25689    136559.78   -41850.438    2603.9277   -44454.366    24.115597   0.91457009 
   85100    212.77225   -971.83268    136626.14   -41857.335    2647.2913   -44504.626    24.162209   0.91412588 
   85200    209.93003   -876.48724    136646.52   -41875.039    2611.9286   -44486.967    24.184385   0.91398952 
   85300    207.06097   -790.74326    136607.57   -41911.454    2576.2321   -44487.686    24.174937   0.91425015 
   85400    208.22269   -961.46489    136709.05   -41894.297    2590.6861   -44484.983    24.290229   0.91357149 
   85500    210.12893   -968.07165    136629.86   -41864.042    2614.4033   -44478.446    24.034412   0.91410103 
   85600    211.15391   -891.47814    136626.62   -41840.673    2627.1561   -44467.829    24.128995   0.91412268 
   85700    207.57258   -840.88461    136612.45   -41881.608    2582.5976   -44464.205    24.289316   0.91421749 
   85800    213.78165   -910.23694    136639.69   -41881.954    2659.8501   -44541.804    24.373259   0.91403522 
   85900    214.27127    -884.6069    136576.03   -41787.434    2665.9419   -44453.376    24.279955   0.91446131 
   86000    209.18027   -746.66949    136553.03   -41835.385    2602.6002   -44437.985    24.406113   0.91461529 
   86100    212.29826   -889.16218    136691.98   -41821.066    2641.3939    -44462.46    24.301098   0.91368559 
   86200    209.12286   -876.16407    136530.63    -41791.03     2601.886   -44392.916    24.353541   0.91476533 
   86300    211.40826   -1077.4092    136484.93   -41826.166    2630.3207   -44456.487    24.213538   0.91507167 
   86400     207.7841   -876.26798       136447   -41838.382    2585.2292   -44423.611    24.307613   0.91532604 
   86500    207.87841   -953.25331    136443.08   -41822.309    2586.4026   -44408.712    24.243018   0.91535233 
   86600    212.36444   -797.88616    136544.27   -41764.088    2642.2174   -44406.306    24.245489   0.91467395 
   86700    211.88833    -974.2001    136556.22    -41759.27    2636.2937   -44395.564    24.403306   0.91459396 
   86800    208.25257   -868.69059    136613.38   -41823.765    2591.0579   -44414.823    24.354027   0.91421127 
   86900    211.22988   -947.12902    136513.68   -41805.263    2628.1013   -44433.365    24.313714   0.91487895 
   87000    213.56015   -862.58484    136558.35   -41802.789    2657.0942   -44459.883    24.270202   0.91457968 
   87100    211.44659   -863.48358    136556.75     -41833.6    2630.7976   -44464.398    24.370905   0.91459036 
   87200     210.9926   -865.04225    136613.75   -41831.461    2625.1491    -44456.61    24.282403   0.91420879 
   87300    213.20043    -929.3328     136462.1   -41841.042    2652.6187   -44493.661    24.377055   0.91522473 
   87400    211.55264   -806.87718    136483.68   -41849.601     2632.117   -44481.718    24.383686   0.91508007 
   87500    210.28872   -941.07077     136582.8   -41867.784    2616.3914   -44484.176    24.491829   0.91441596 
   87600    207.55856   -869.10009       136582   -41868.536    2582.4231   -44450.959    24.373118   0.91442129 
   87700    209.81531   -894.32925    136476.77   -41868.303    2610.5014   -44478.804    24.387736   0.91512635 
   87800    210.37728   -955.19269    136599.81   -41849.513    2617.4933   -44467.006    24.413198   0.91430209 
   87900    207.89552   -921.00571    136601.87   -41861.795    2586.6155    -44448.41    24.436999   0.91428832 
   88000    207.68939   -897.84158    136460.02   -41880.927    2584.0508   -44464.978     24.34835   0.91523872 
   88100    207.86822   -862.50264    136482.69   -41815.708    2586.2759   -44401.984    24.438933   0.91508665 
   88200    210.36376   -940.70456    136594.11   -41792.151    2617.3251   -44409.476    24.496374   0.91434026 
   88300    208.47247   -949.69661    136566.28   -41823.703    2593.7939   -44417.497    24.321869   0.91452659 
   88400    206.15115   -944.70955    136564.98   -41926.827    2564.9122   -44491.739    24.371566    0.9145353 
   88500    208.97506   -915.99647    136539.65   -41835.618     2600.047   -44435.665    24.412115   0.91470492 
   88600    207.50435   -937.85192    136431.89   -41794.771    2581.7486    -44376.52    24.331959   0.91542742 
   88700    213.34059   -883.01837    136493.04   -41780.527    2654.3625    -44434.89    24.403521   0.91501729 
   88800    210.88604   -984.05809    136476.68   -41730.237    2623.8233    -44354.06    24.557055   0.91512698 
   88900    213.22205   -840.19488    136504.69   -41777.228    2652.8877   -44430.116    24.573037   0.91493917 
   89000    213.38101   -926.54378    136424.16   -41766.336    2654.8655   -44421.201    24.404189   0.91547926 
   89100    205.21763   -958.38523    136272.96   -41859.958    2553.2975   -44413.255    24.530756   0.91649504 
   89200    207.06646   -834.66715     136432.5   -41886.463    2576.3004   -44462.763    24.573924   0.91542331 
   89300    209.10417   -958.02211    136330.99   -41911.217    2601.6534   -44512.871    24.557108   0.91610489 
   89400    208.44286   -874.41489    136470.01   -41935.007    2593.4254   -44528.432    24.570532   0.91517168 
   89500    205.64585   -947.75787    136476.41   -41965.362    2558.6253   -44523.988    24.595827   0.91512881 
   89600     204.4687   -929.70177     136519.6   -42005.148    2543.9794   -44549.128    24.564525   0.91483929 
   89700    203.18689   -924.41107    136575.38   -41966.908    2528.0312    -44494.94     24.52994   0.91446561 
   89800    209.44608   -913.06423    136410.23   -41924.662    2605.9074   -44530.569    24.609847   0.91557276 
   89900    207.98571    -927.4643     136404.9   -41982.698    2587.7377   -44570.436    24.632716   0.91560852 
   90000    205.13415   -877.49391    136477.83   -41893.017    2552.2588   -44445.276    24.685942   0.91511927 
   90100     207.0807   -791.54243    136520.04   -41898.277    2576.4776   -44474.755    24.663248   0.91483632 
   90200    209.77698   -846.75198    136476.75   -41936.482    2610.0244   -44546.507    24.510469   0.91512653 
   90300    205.89066   -935.64515    136506.89   -41948.564    2561.6712   -44510.236    24.476668   0.91492442 
   90400    207.41305   -868.45528    136498.29   -41942.703    2580.6127   -44523.315    24.568596    0.9149821 
   90500    208.26503   -801.76409    136539.53   -41906.719    2591.2129   -44497.932    24.687236   0.91470572 
   90600    214.25645   -909.08709    136423.65   -41822.668    2665.7576   -44488.426    24.697653   0.91548269 
   90700    208.45289   -914.35563    136344.79   -41829.464    2593.5502   -44423.014    24.642144    0.9160122 
   90800    210.35659   -880.85242    136327.49   -41868.009    2617.2359   -44485.245    24.733412   0.91612848 
   90900    206.60628   -838.20318    136345.14   -41951.235    2570.5749   -44521.809    24.893165   0.91600985 
   91000     204.7799   -959.84053    136346.01   -41962.657    2547.8513   -44510.508    24.799081   0.91600398 
   91100    205.86316   -900.05631    136371.85   -41949.007    2561.3291   -44510.336    24.843642   0.91583042 
   91200    208.49778   -855.80781    136411.87   -41899.188    2594.1087   -44493.297    24.898904   0.91556173 
   91300    209.77632    -1037.027    136470.74   -41810.509    2610.0163   -44420.525    24.887854   0.91516681 
   91400    215.57366   -892.12308    136318.79   -41787.195    2682.1462   -44469.341    24.928981   0.91618694 
   91500    210.87766   -966.03969    136452.43   -41800.277     2623.719   -44423.996     24.91894   0.91528959 
   91600    212.17219   -943.72868    136430.22   -41850.717    2639.8255   -44490.542    24.862798   0.91543864 
   91700    207.94434   -824.27091    136500.89   -41925.334    2587.2229   -44512.557    24.855575   0.91496464 
   91800    210.05865   -1070.5794    136498.68   -41893.009    2613.5289   -44506.538    24.994746   0.91497949 
   91900    211.64683   -922.09397    136482.04   -41899.724    2633.2889   -44533.012    24.968038   0.91509103 
   92000    208.42166   -853.33101    136524.52   -41918.961    2593.1617   -44512.122     24.85916   0.91480633 
   92100    205.40754   -1039.2976    136412.11   -41970.948    2555.6603   -44526.608    24.878844   0.91556012 
   92200    207.43877   -906.68302    136532.78   -41912.279    2580.9326   -44493.212    24.936835   0.91475096 
   92300    213.01511   -833.17272    136479.49   -41834.574     2650.313   -44484.887    25.006571   0.91510815 
   92400    210.27511   -893.26702    136447.09   -41844.873    2616.2221   -44461.095    25.168711   0.91532544 
   92500    210.51636   -888.96929    136365.17   -41890.432    2619.2238   -44509.655    24.940367   0.91587531 
   92600    208.77944   -923.27689    136566.69   -41861.984    2597.6131   -44459.597    25.022086   0.91452385 
   92700    212.67544   -884.27605    136451.01   -41854.481    2646.0868   -44500.568    25.073518   0.91529914 
   92800    213.96765   -951.15529    136575.07   -41896.698    2662.1643   -44558.862    25.073283   0.91446773 
   92900    212.15925   -978.85386    136443.19   -41856.233    2639.6644   -44495.898    25.010218    0.9153516 
   93000    210.13978   -742.56176    136517.88   -41878.978    2614.5384   -44493.516    25.073924   0.91485077 
   93100    214.26249    -905.7364    136723.62   -41821.523    2665.8328   -44487.356    25.248869   0.91347413 
   93200     211.4098   -983.17679    136498.55   -41840.305    2630.3399   -44470.645    25.265537   0.91498033 
   93300    213.90277   -911.71368    136341.87   -41862.663    2661.3571    -44524.02    25.220787   0.91603184 
   93400    208.76338   -988.83157     136367.9   -41893.186    2597.4133   -44490.599    25.189631   0.91585696 
   93500    206.96773   -858.56581    136436.04   -41926.783     2575.072   -44501.855    25.074713   0.91539959 
   93600    205.81848   -875.85297    136515.25   -41984.253    2560.7732   -44545.026    25.210365    0.9148684 
   93700    208.70827   -924.52599    136593.56   -41938.886    2596.7277   -44535.614    25.189753   0.91434393 
   93800    209.49876   -908.32287    136628.14   -41905.182    2606.5629   -44511.745    25.133589   0.91411252 
   93900    210.51522    -846.5142    136679.06   -41894.124    2619.2096   -44513.333     25.31459   0.91377196 
   94000    208.47789   -1025.3782    136559.16   -41900.499    2593.8613   -44494.361    25.300484   0.91457422 
   94100    205.08934   -873.23846    136591.48   -41904.575    2551.7013   -44456.277    25.257993   0.91435784 
   94200    209.61358   -972.76773    136542.79   -41889.575    2607.9915   -44497.566    25.110999   0.91468388 
   94300     214.9626   -865.79066    136479.87   -41837.882    2674.5434   -44512.425    25.116242   0.91510561 
   94400    208.73084   -837.59436    136634.96    -41824.28    2597.0085   -44421.289     25.26994   0.91406688 
   94500    215.68629   -863.37488    136571.74   -41768.458    2683.5475   -44452.005    25.329611   0.91448999 
   94600    211.25349   -849.48687    136666.23   -41816.395     2628.395    -44444.79    25.320618   0.91385771 
   94700    210.50803   -951.76654    136667.61    -41858.24    2619.1201    -44477.36     25.34996   0.91384853 
   94800    209.21497   -826.88201    136670.75   -41859.256     2603.032   -44462.288    25.393019    0.9138275 
   94900    214.22457   -811.36549    136707.53     -41820.2    2665.3609   -44485.561    25.415729   0.91358166 
   95000    209.94846   -899.88091    136581.98   -41798.474     2612.158   -44410.632    25.309994   0.91442142 
   95100    210.93124   -884.20131    136457.28   -41803.166    2624.3857   -44427.552     25.29228   0.91525706 
   95200    207.11293   -847.30102    136640.27   -41813.544    2576.8786   -44390.422    25.366213   0.91403138 
   95300    212.65008   -1011.2451    136603.01   -41720.999    2645.7712   -44366.771    25.305392   0.91428068 
   95400    209.06235   -759.39144    136607.23   -41776.769    2601.1331   -44377.902    25.347959    0.9142524 
   95500    207.96332   -1022.3456    136583.26   -41777.034    2587.4591   -44364.493    25.416006    0.9144129 
   95600    213.53416   -917.82092    136637.12   -41764.289    2656.7709    -44421.06    25.248229   0.91405239 
   95700    209.74806   -838.02779    136574.84   -41826.845    2609.6646    -44436.51    25.432058   0.91446921 
   95800    206.12389   -852.46733    136624.62   -41868.354     2564.573   -44432.927    25.453486   0.91413606 
   95900    210.36257   -917.12287    136628.17   -41811.904    2617.3103   -44429.214    25.382009   0.91411229 
   96000    207.35862   -988.70825    136512.04   -41892.494    2579.9355   -44472.429     25.40142   0.91488993 
   96100    207.30833   -831.43709     136583.9   -41840.318    2579.3097   -44419.628    25.513279   0.91440856 
   96200    207.40845   -987.77271    136528.32    -41882.86    2580.5554   -44463.416    25.505802   0.91478084 
   96300    210.24743   -707.88556    136604.33   -41828.703    2615.8777   -44444.581    25.553377   0.91427186 
   96400    210.87468   -886.11947    136676.59    -41811.72    2623.6819   -44435.402    25.550446   0.91378847 
   96500    209.01537   -904.93558    136560.65   -41858.757    2600.5486   -44459.305    25.526881   0.91456425 
   96600    210.72606   -865.59631    136551.08   -41852.725    2621.8329   -44474.557    25.524189   0.91462839 
   96700     207.0767   -817.23321    136698.65   -41910.608    2576.4278   -44487.036    25.663284   0.91364097 
   96800    202.92943   -912.58127    136788.13   -41949.924     2524.828   -44474.752    25.644237   0.91304333 
   96900     207.0639   -858.80351    136767.98   -41891.873    2576.2686   -44468.141    25.571546   0.91317783 
   97000    206.81083   -806.98864    136865.61   -41894.234    2573.1199   -44467.354    25.800479    0.9125265 
   97100    207.21991   -965.58022    136770.27   -41896.657    2578.2096   -44474.867    25.802596   0.91316257 
   97200     207.5826   -827.00579     136700.5   -41897.557    2582.7222   -44480.279    25.664458    0.9136286 
   97300    206.28612   -968.23084    136655.35   -41893.244    2566.5915   -44459.836    25.656282   0.91393048 
   97400    207.54679   -858.63105     136660.9   -41895.505    2582.2766   -44477.781    25.747986   0.91389337 
   97500    211.63443    -926.2049    136789.87   -41805.166    2633.1346   -44438.301    25.754307   0.91303171 
   97600    208.42484   -1005.2798    136815.05   -41865.174    2593.2013   -44458.376    25.553004   0.91286369 
   97700    212.27484   -1052.3434    136732.44   -41804.977    2641.1025    -44446.08    25.703555    0.9134152 
   97800     211.2927   -811.81779    136671.89   -41799.221    2628.8829   -44428.104    25.730266   0.91381986 
   97900    213.52818   -876.53725    136750.13   -41764.299    2656.6965   -44420.995    25.685527   0.91329706 
   98000    210.14571   -785.94893    136845.88   -41785.054    2614.6122   -44399.667    25.766938   0.91265806 
   98100    211.02078   -937.75295    136696.05    -41870.04    2625.4997   -44495.539    25.760899   0.91365839 
   98200    210.01489   -942.67656    136454.97   -41854.448    2612.9845   -44467.432    25.583577   0.91527259 
   98300    209.64445   -969.57613    136524.31   -41867.684    2608.3755   -44476.059    25.559664   0.91480771 
   98400    208.30876   -902.38391    136663.99   -41880.571    2591.7569   -44472.328    25.685201   0.91387268 
   98500    209.57354   -893.84553    136621.35   -41887.498    2607.4933   -44494.992    25.896127   0.91415793 
   98600    204.66544   -874.36408    136463.05    -41912.32    2546.4272   -44458.747    25.718728   0.91521841 
   98700    201.10843   -908.30988    136476.23   -41966.668    2502.1712   -44468.839    25.612416   0.91513002 
   98800    205.95434   -904.94896    136651.68   -41933.658    2562.4635   -44496.122    25.680068   0.91395501 
   98900    207.45391    -851.2228    136603.94   -41938.859     2581.121    -44519.98    25.622268   0.91427441 
   99000    206.34373    -923.9846    136764.14   -41970.917    2567.3083   -44538.225    25.742628   0.91320352 
   99100    207.66511   -837.28136     136612.1    -41897.01    2583.7487   -44480.759    25.762332   0.91421985 
   99200    208.35717   -932.53484    136581.31    -41882.71    2592.3593    -44475.07    25.819037   0.91442595 
   99300    209.74305   -974.22207    136520.42   -41836.309    2609.6023   -44445.911    25.855437   0.91483375 
   99400    212.01733    -772.9434    136509.13   -41814.336    2637.8987   -44452.234     25.94111   0.91490945 
   99500    218.55411   -825.33278    136726.25   -41709.483    2719.2286   -44428.712     25.80826   0.91345656 
   99600    219.03103   -910.29756    136774.36   -41733.016    2725.1624   -44458.178    25.927055   0.91313523 
   99700    214.94177   -1075.7399    136724.61    -41745.57    2674.2842   -44419.854    25.794104   0.91346754 
   99800    211.52499   -910.45349    136577.38   -41770.153    2631.7731   -44401.926    25.775498   0.91445222 
   99900     211.1864   -923.36702     136544.5   -41828.256    2627.5604   -44455.817    25.849427   0.91467247 
  100000    212.30445   -870.99866    136544.24   -41839.565    2641.4709   -44481.036    25.925618   0.91467418 
  100100    212.96881   -829.35491    136624.88   -41771.046    2649.7368   -44420.783    25.989035   0.91413435 
  100200    210.20309   -878.98776    136669.36   -41773.997    2615.3261   -44389.323    25.805891   0.91383679 
  100300    211.92441   -988.70223    136532.36   -41767.733    2636.7425   -44404.476    25.721352   0.91475378 
  100400    210.13488   -993.91615    136610.55   -41808.194    2614.4774   -44422.671    25.755395   0.91423023 
  100500    213.19918   -1001.8334     136540.8   -41740.851    2652.6031   -44393.454    25.759217   0.91469723 
  100600    211.41015   -892.54275    136541.11   -41828.982    2630.3441   -44459.326    25.799559   0.91469514 
  100630    212.44605   -830.54485    136547.62   -41810.302    2643.2327   -44453.534    25.703528   0.91465151 
Loop time of 68.6604 on 6 procs for 100000 steps with 4175 atoms

Performance: 629.183 ns/day, 0.038 hours/ns, 1456.443 timesteps/s
98.2% CPU use with 6 MPI tasks x no OpenMP threads

MPI task timing breakdown:
Section |  min time  |  avg time  |  max time  |%varavg| %total
---------------------------------------------------------------
Pair    | 53.439     | 54.966     | 56.792     |  15.1 | 80.05
Neigh   | 4.6953     | 4.723      | 4.7524     |   0.8 |  6.88
Comm    | 4.6301     | 6.4222     | 7.9605     |  44.0 |  9.35
Output  | 0.15831    | 0.15908    | 0.1625     |   0.4 |  0.23
Modify  | 1.7338     | 1.7669     | 1.7929     |   1.6 |  2.57
Other   |            | 0.6233     |            |       |  0.91

Nlocal:        695.833 ave         702 max         688 min
Histogram: 1 0 1 0 1 0 0 1 0 2
Nghost:        1442.67 ave        1465 max        1422 min
Histogram: 1 1 0 0 0 2 1 0 0 1
Neighs:        0.00000 ave           0 max           0 min
Histogram: 6 0 0 0 0 0 0 0 0 0
FullNghs:      18636.7 ave       18865 max       18422 min
Histogram: 1 2 0 0 0 0 1 0 1 1

Total # of neighbors = 111820
Ave neighs/atom = 26.783234
Neighbor list builds = 5163
Dangerous builds = 0

undump              1
unfix               2
unfix               3
unfix               4


################################################
#######         Run Simulation         #########
################################################

reset_timestep      0
log                 log.run_${NAME}
log                 log.run_liquid_density_MLmW
