LAMMPS data file via write_data, version 29 Oct 2020, timestep = 800000

4175 atoms
1 atom types

-0.8076939820200195 50.80769398201761 xlo xhi
-0.8076939820200195 50.80769398201761 ylo yhi
-0.8076939820200195 50.80769398201761 zlo zhi

Masses

1 18.015

Atoms # atomic

2430 1 -0.5717739302478259 2.1598049387348364 2.6135952662129642 1 1 0
2254 1 3.429758726962663 1.3482112191971636 0.7311491401214061 0 1 0
3534 1 5.599442462707581 0.34836416505587375 1.901323435069831 1 1 1
2053 1 7.555213322688646 0.22751265744072113 -0.3299769492364189 0 0 1
2015 1 36.09073015143902 17.662911126647145 -0.04375883874130182 0 0 1
216 1 11.555898277962566 2.324592206387271 0.26102418147242745 0 0 0
2528 1 33.806441527440214 -0.341402137315054 8.239563256975 0 1 0
12 1 18.51191181739903 0.7939025600698193 2.5738572009950533 0 0 0
168 1 45.29867957089332 24.71378465357777 11.997139596009333 0 0 0
2233 1 21.133923568433715 -0.067726353811978 1.948715338260905 0 1 0
2097 1 1.9703018395798724 24.47654871978052 0.7362197682972469 0 0 1
163 1 23.952737427098914 2.1724612944846124 -0.45932987934964625 0 0 0
4121 1 29.541755890575423 1.912266364210217 1.4282677149337437 0 1 1
384 1 36.70984851835988 24.131861857391915 8.788259860753728 0 0 0
2312 1 33.97434898320095 0.15383757678035748 1.2960973889575587 0 1 0
4040 1 38.2319057449181 1.9913576517786735 -0.09684091425745223 0 1 1
353 1 39.876768533689315 0.5329437597833331 1.6037686204836632 0 0 0
2807 1 42.0899345656733 0.052680360850854924 -0.2829554552474821 0 1 0
2235 1 46.28673555557802 2.2491566869997897 1.6485969292345026 0 1 0
1560 1 1.9877260532405758 17.55628363684471 -0.0917480385112055 1 0 1
26 1 42.34053671105282 23.507183820391756 14.559914479804515 0 0 0
1806 1 2.7083060023603767 5.334334937346412 2.6252728677495805 0 0 1
45 1 7.33181463644055 -0.5696513799464931 6.335708361537661 0 0 0
626 1 7.173804782279415 4.360556886503884 0.16862924480418118 0 0 0
468 1 7.017566525914306 6.070464432036174 2.3631429664395207 0 0 0
502 1 12.824341409998578 4.33835275376423 1.4776751750462713 0 0 0
656 1 14.663205727858946 5.601939088179215 -0.19749825694422685 0 0 0
32 1 17.362875821220275 3.231045761569166 1.8546303639038357 0 0 0
2041 1 22.683417082252852 3.8889833672544105 1.2465844867511393 0 0 1
530 1 20.629901072782836 5.242394183874072 0.17881430933298814 0 0 0
470 1 26.85610421562161 2.423082968702247 1.1850658633605187 0 0 0
324 1 26.4911593835544 5.421408069779656 2.4841772269111555 0 0 0
2424 1 31.181704591093656 4.050986972574845 1.8645224452002318 0 1 0
582 1 33.5258641958839 4.360756814086002 0.45665833183905336 0 0 0
327 1 35.492966445851 2.409248066233662 0.8964623231942237 0 0 0
472 1 39.705564964368854 5.10569681485414 2.8653700709219057 0 0 0
552 1 44.28914231308597 3.4780589954987526 0.7506771726534851 0 0 0
1832 1 50.30155494581475 3.474104658704781 0.18129550898107583 0 0 1
127 1 6.799148121316632 8.885462008706847 1.4858679932918166 0 0 0
1850 1 11.241763364790225 8.086637313738446 0.7510798508048107 0 0 1
289 1 11.199895305136844 6.358291378789187 2.7796682808529942 0 0 0
1911 1 15.608919456240603 7.982853728234804 0.4329865084984239 0 0 1
493 1 17.512365095275953 7.497523775373606 2.4480850636297884 0 0 0
793 1 39.46723904309939 -0.4433975881245345 14.893030337101953 0 0 0
1618 1 25.456623179249128 8.14834156725013 2.940081211755968 0 0 1
676 1 24.223184028227593 6.070790820791356 0.3722083016446833 0 0 0
197 1 29.11625944639373 5.9801184888988095 1.2465576955820077 0 0 0
94 1 30.190275356349574 8.41096146667061 2.0888977935984836 0 0 0
489 1 32.11353684809712 8.362870524957394 -0.11717066750122429 0 0 0
382 1 34.44305135111475 6.800720095075243 -0.4720137020753075 0 0 0
445 1 36.3893428056048 7.225000019832985 1.3363367431875384 0 0 0
482 1 38.85946495462202 5.915739600008287 0.35254250417178 0 0 0
1677 1 44.8369780137248 7.7798072682507335 1.506729777063954 0 0 1
1492 1 45.873372604253156 5.838595826724973 0.007743794647650737 0 0 1
282 1 48.56212738717096 6.158858235496812 0.42719830289422056 -1 0 0
76 1 0.5923054322947874 9.079576682685962 1.2883425440899017 1 0 0
254 1 3.1520253244842005 9.494962378462628 0.5720029028812574 0 0 0
323 1 4.61212331552342 9.871897231415016 3.1107320015761895 0 0 0
3282 1 21.253113667827225 -0.3948716145200543 14.691177221209529 0 1 0
134 1 9.350304376755734 9.573801287837604 2.2141040413286928 0 0 0
423 1 13.651936774333944 9.435227749199264 1.5353427961297665 0 0 0
198 1 13.747598740422204 12.018394515705277 0.2928518171175294 0 0 0
1783 1 19.775601997830105 9.149233287217603 2.2258309944787027 0 0 1
1417 1 22.763338137334024 11.608532041257774 0.16326747646963158 0 0 1
1945 1 23.126057298174494 8.748082224070728 1.0557101539844136 0 0 1
2766 1 27.64403233697737 9.988310729446901 2.3549860319813796 0 1 0
411 1 30.488640485949297 17.797246578027135 -0.6536362551251745 0 0 0
1689 1 33.03939942037022 11.11570730843269 -0.12109230891748723 0 0 1
663 1 36.106297596863634 9.910755626532278 2.0513692107679846 0 0 0
1969 1 7.755593995300583 24.964889594170863 7.266131111343682 0 0 1
275 1 42.42532569401439 9.000900079593386 0.97962543881402 0 0 0
1567 1 42.913998508209275 11.571109041052848 -0.17839692274255692 0 0 1
71 1 46.649987061887764 9.72759649553423 0.798506303660292 0 0 0
519 1 45.734033602458034 12.71796615909388 -0.5953696390466865 0 0 0
409 1 0.027534158087622496 12.736877338773617 0.6913105957756593 0 0 0
631 1 2.34320772795433 13.075279035036427 1.7186271776537119 1 0 0
687 1 6.979295081742924 13.179475051264223 1.8181264767919063 0 0 0
388 1 9.76362126576231 12.326001686050024 1.8886058915384139 1 0 0
607 1 11.476874254774513 13.622453958923758 0.019143049925863687 0 0 0
408 1 15.614243222340829 13.459716605375219 1.827445040618895 0 0 0
21 1 37.37933843369533 10.831481185709556 -0.23977646363889826 0 0 0
1773 1 18.299119512548756 14.345366638973752 1.4703441998899534 0 0 1
106 1 22.68258690915187 14.000404683353981 1.6413269572319185 0 0 0
2645 1 37.9648999978707 23.274208361157783 15.72114557284495 0 0 0
419 1 28.130789482818724 14.539618992704346 2.098808559677096 0 0 0
1 1 28.863284516482015 13.490241372791983 -0.31193221833076273 0 0 0
153 1 38.063731044948376 14.616405144366773 2.7665192151007676 0 0 0
1608 1 38.7265814147235 13.326085093528125 0.41934730536378395 0 0 1
1459 1 41.508699519118785 13.545479959586427 0.9085535736498549 0 0 1
520 1 47.40450435050911 13.117398162408515 1.4990785107171187 -1 0 0
296 1 20.900801384985478 14.208621609214932 14.940697619243815 0 0 0
1754 1 49.75490185321776 14.556410125133004 1.0062145460276133 0 0 1
361 1 2.446337308572487 15.758505447977626 2.1913959002632217 1 0 0
776 1 21.72592048823272 21.74071115443461 -0.6301613225655487 0 0 1
2135 1 6.294319967179047 15.819235652021948 1.1570454314148617 0 0 0
31 1 8.162790670248759 17.571691423074807 1.9038060690202503 0 0 0
2696 1 10.822611597636568 18.09421846213411 0.7525187405312592 0 0 0
205 1 12.45194191606862 15.913662665885486 1.2488467146347664 0 0 0
1746 1 14.980350675921754 16.133258496839098 0.5392985810947915 0 0 1
1892 1 17.819411530455664 16.894499536269134 0.7954957823892126 0 0 1
1877 1 23.6785241831459 17.72973904168544 0.09021933121667947 0 0 1
2085 1 32.229348369292524 15.352047796327746 0.36127516439565643 0 0 1
818 1 46.4530754170222 21.27068872058289 15.444264916123242 0 0 0
397 1 8.536261598353564 6.03818781162261 16.138291100032763 0 0 0
2217 1 36.673141549740876 16.818170413594707 2.4898921608878455 0 0 0
191 1 40.68070477733317 18.29398504690648 -0.10575983758759622 -1 0 0
1820 1 42.40052237533014 15.98624078466629 0.09793220663378799 0 0 1
443 1 44.52464103396311 16.866009889026444 1.9699072491309129 0 0 0
707 1 43.726598195281916 20.414568218541575 15.273041108137726 0 0 0
2742 1 1.0704495078460612 19.536787357587396 1.4972338154011609 0 0 0
2269 1 6.910329909616594 19.963022214238276 2.0989649567160424 0 0 0
2242 1 25.582927188560596 -0.46799637385077314 7.885173135315039 0 1 0
1769 1 12.726259338880427 20.00348911109291 1.2449240612065187 0 0 1
2141 1 47.344525227062135 23.835900341922883 15.468106531548962 0 0 0
1920 1 21.33000123727715 19.3597703503145 0.25195943916283015 0 0 1
945 1 50.48323278927261 15.626882035458827 15.984553860280403 0 0 0
199 1 42.89663801395731 21.20204323900751 12.634999285930489 0 0 0
1541 1 26.385838114568976 18.41423490113778 -0.04785566390458684 0 0 1
1656 1 31.196909923713143 19.875757191881 1.2034314385432952 0 0 1
3780 1 48.49861460897443 -0.7360337714804087 0.2579632538418024 0 1 1
675 1 44.39699735832313 21.176485368544842 -0.27690151558198073 0 0 0
463 1 45.995913431719416 19.031255435867187 0.469213867013629 0 0 0
609 1 49.95435169978785 18.93000264302511 1.4895653597164769 0 0 0
1412 1 48.940043531937775 21.63034796882529 1.7876594412395939 0 0 1
3996 1 4.66357789417436 23.88276684712759 0.4626664836221204 0 0 1
2045 1 9.928880524836856 23.17280397560158 1.0098103445418718 0 0 1
1985 1 12.215095874706932 22.57957235597821 2.1716176988644116 0 0 1
454 1 14.346615583627703 23.445331307424915 1.1615762498013753 0 0 0
2504 1 16.477579100767443 22.007599588508096 1.8931613738074327 0 0 0
431 1 22.558929268854605 24.002706859573152 1.0059674008518606 0 0 0
1853 1 27.062574089284183 22.507045071846797 1.254892503369359 0 0 1
1750 1 29.84868702645901 22.175675210565885 1.1128788509618306 0 0 1
460 1 36.40978540360701 23.817316130267614 2.0262137307862838 0 0 0
9 1 27.611741715037876 10.949192549497205 -0.2885298704219139 0 0 0
3341 1 39.01669760169001 22.98208334097445 1.3295088889249604 0 0 1
2193 1 43.29662370341635 22.835764016721786 1.8238887352233104 0 0 0
1831 1 49.112664671443014 23.242661262896398 -0.5443453594640912 0 0 1
2744 1 2.1958052952475384 1.9790946973831223 5.4352417374027615 1 1 0
46 1 44.02633433644573 24.90196855776919 7.04232220955767 0 0 0
2502 1 6.729469740537197 1.320986833549704 4.3301733982837085 0 1 0
2279 1 11.224324605438206 0.9869784292257211 2.7229512658778625 0 1 0
591 1 14.05166859450924 0.6106077488892361 3.2316399591716634 0 0 0
279 1 30.499663418394512 21.596371913891197 16.1469147969463 0 0 0
2665 1 17.610114854329762 0.5772219952728515 5.107017734166249 0 1 0
558 1 22.841833280236223 1.4822362479077618 3.3876657808745696 0 0 0
95 1 25.682941792670885 1.026935220190893 3.1710896453606896 0 0 0
620 1 26.701308544325766 1.1088519538771484 5.8286521755743665 0 0 0
2752 1 29.393886227919896 1.261481863208544 6.402800795319417 0 1 0
2510 1 30.182959724042107 0.3066032949362356 3.877828100323706 0 1 0
2577 1 33.18816296400805 -0.23221003125531414 4.000816148905139 0 1 0
2133 1 34.327874378487934 2.2414422466934782 4.752372242082425 0 1 0
699 1 42.466861334455814 1.1964062415353185 2.964844079528053 0 0 0
2394 1 45.14698293640599 -0.10159622163109916 2.4811922162673152 0 1 0
226 1 41.57170842147411 0.9467905703499329 5.731315315949641 0 0 0
1976 1 2.1543408861767324 2.7027915455096854 2.7354718741411004 0 0 1
174 1 4.90641667322073 5.457659729578864 3.9231102414732435 1 0 0
164 1 4.8286004699876806 3.1469415266451533 5.5652755684409545 1 0 0
2723 1 9.212884236045198 2.335220112421532 4.474636348631631 0 1 0
2047 1 9.03899596074916 5.0525719953672725 3.7230038555502576 0 0 1
2345 1 14.34587346662071 3.928845980493408 5.87109103454292 0 1 0
627 1 14.999231342736774 3.1412993875147803 2.981791407590519 0 0 0
1468 1 19.14022941545039 5.163495575633707 2.661404575617599 0 0 1
354 1 19.024767243374026 4.616120817904339 5.454565560401925 0 0 0
1667 1 21.706945469987055 3.2667109502022527 5.560061750613023 0 0 1
576 1 27.480099125512535 5.5118252000373005 5.226549489076083 0 0 0
3597 1 32.30710294043342 4.239206261720923 4.358217920238801 0 1 1
1222 1 30.16169761204582 4.096859530315749 5.841184671788167 0 0 0
2746 1 36.1630920410187 3.52544665341445 3.3879495298295685 0 1 0
567 1 38.64435603497721 2.6046791750456273 3.456191936805972 0 0 0
441 1 42.26895384952817 4.061967025905468 2.7077762944500425 0 0 0
3751 1 42.97260118839131 3.955553194834228 5.549862275113789 0 1 1
167 1 46.8818439149155 3.10916575385391 4.414827075346206 -1 0 0
581 1 45.53947720629975 5.027325675783868 5.5044303451651295 0 0 0
597 1 49.59652137187056 3.784935647839804 4.2425979164391086 0 0 0
432 1 0.5289052295555832 6.966919088242547 3.013862092440136 1 0 0
2037 1 1.345904376294217 8.147638122413678 5.31101506399036 1 0 1
326 1 4.219557868018416 8.057986421776704 4.829028166910085 0 0 0
2286 1 8.451803526490613 6.803384408035246 5.668409097668092 0 1 0
446 1 9.386107845518794 9.239801840334838 4.701320110391114 0 0 0
429 1 11.984108223168684 7.786240513073807 5.119654475974744 0 0 0
449 1 16.392717401533076 8.41939496560458 4.864950949452375 0 0 0
2021 1 21.857259551889424 6.91560446609618 2.892630868427462 0 0 1
2104 1 22.127019715576974 7.203141283566209 5.648605805590675 0 0 1
135 1 24.357379434221947 8.860574301169766 5.495807422217953 0 0 0
556 1 33.23200251180721 6.713429766326117 5.120137792685744 0 0 0
2029 1 35.757096691869286 6.384380531959385 3.9475371320598045 0 0 1
608 1 37.157729457268665 8.115082332239355 5.518302535198255 0 0 0
341 1 39.83552162754989 7.2163870140426685 4.556647714157073 0 0 0
525 1 45.610165345075394 7.435815111344873 4.285787909791859 0 0 0
1487 1 49.32447235035624 6.274125737512163 2.9762494973367617 0 0 1
381 1 48.11055435508891 7.993590674158563 4.594619890494106 0 0 0
2063 1 0.5419413146535434 10.785558157252401 5.199266245500941 1 0 1
628 1 7.387204912602236 11.122319438144014 5.850278024351031 0 0 0
564 1 5.546779771340155 12.25884093224665 4.144761066398545 0 0 0
1495 1 13.927343514934417 9.633804694040268 4.344971843854098 0 0 1
36 1 13.199774004751115 11.982673216814675 5.503716751629911 0 0 0
682 1 17.320207645760764 11.10338491004263 5.348246953350689 0 0 0
678 1 19.962306197720007 11.406879228703003 4.2283087506811725 0 0 0
265 1 21.864738528083382 10.706516646456626 6.072989345322181 0 0 0
179 1 23.13494704534643 10.858938046942233 3.255556167262779 0 0 0
479 1 27.175347048467305 12.252353027980805 3.7132472947744866 0 0 0
554 1 28.764534527156552 11.831768046176375 5.963398710182139 0 0 0
654 1 31.5596719204797 8.978910040442813 4.128329753948524 0 0 0
349 1 33.483446105450106 10.751762579282504 2.5958199092228114 0 0 0
464 1 37.7685117137235 10.660337104090148 4.40142791626106 0 0 0
337 1 40.38462180644853 11.68097972189751 4.902907994908284 0 0 0
577 1 41.66477401046225 9.174438502685815 3.905129016933392 0 0 0
1797 1 43.69177893300361 8.980635615184564 5.756740771609763 0 0 1
139 1 -0.7822056462063003 11.024148676784323 2.8332665887935238 0 0 0
1473 1 48.14173568986745 10.971674177955896 3.5530142227000345 0 0 1
392 1 1.7182989134226516 14.548214264453385 5.809687515053689 0 0 0
1996 1 2.6331779451549004 12.267692532198827 4.36617056521582 0 0 1
665 1 5.3098599427633095 14.875424040829238 5.52068585510561 1 0 0
447 1 7.950800919759557 15.334576774459553 6.23803339166534 0 0 0
87 1 11.139904740575334 13.267175175242537 4.246580745588456 0 0 0
39 1 9.40556906505256 12.991450707480467 6.4911317882943145 0 0 0
142 1 15.509337931971817 13.128967735664112 4.452956982776601 0 0 0
351 1 20.304218966451188 13.884325180958227 3.2072714273213174 0 0 0
516 1 24.582489310464048 13.234647381781894 3.6877032224551627 0 0 0
1501 1 32.56619384397172 14.843445907903327 2.9386571775725705 0 0 1
410 1 33.57573308392561 12.994787255710524 4.365337057883173 0 0 0
1583 1 36.61884085254785 13.112333242060663 4.410537115101798 0 0 1
562 1 41.5292185660125 13.737557411295047 3.5919716497494125 0 0 0
332 1 44.1209182339435 13.82414769579313 5.120586394285345 0 0 0
292 1 45.72134526730959 14.710005309257562 3.057638716945839 0 0 0
575 1 0.7551187597587388 16.72149681808965 4.236847563462658 1 0 0
284 1 4.7513741047562785 16.514983719540947 3.3037658807393964 0 0 0
136 1 9.432743045418265 16.782061415301424 4.100848323966298 0 0 0
367 1 11.968011980952703 15.818275899742215 3.869835784449445 0 0 0
2633 1 13.311204829314176 17.237832624253915 5.627955384957812 0 0 0
495 1 19.79482787555786 15.828955142892024 5.229362443196423 0 0 0
1485 1 17.796210648121683 18.54537132736918 3.094348566608158 0 0 1
1916 1 17.58825012264783 17.420344370022683 5.573600536265738 0 0 1
2558 1 21.583377015031267 17.84140363230179 4.153229977938408 0 0 0
239 1 23.354547311283675 16.486490519545686 2.5908309128755587 0 0 0
534 1 25.919541502242772 16.186401263694297 3.7016914623733177 0 0 0
1632 1 23.641533148481397 18.568661420774013 5.581086811163769 0 0 1
2679 1 27.46294306179228 18.305848290835545 2.5590287975234944 0 0 0
271 1 29.98365255152211 15.431904650906091 3.939119818378538 0 0 0
3687 1 30.161299729309366 18.16376345126692 3.2238213544916654 0 0 1
503 1 34.275247736280214 17.073131301230223 3.363468476218692 0 0 0
2152 1 40.421971252628346 19.118912527145874 2.4187489683301475 0 0 0
10 1 40.1247410332405 16.113378809889504 4.263216577826974 0 0 0
344 1 42.67679284135772 17.749680493119918 3.5743607642596 -1 0 0
252 1 43.035210176263554 16.220049302430557 6.110949585322587 0 0 0
38 1 47.934069438609335 15.991328903155381 4.715563710998614 -1 0 0
633 1 50.030275235644616 16.495974298377007 3.029936864385941 -1 0 0
325 1 0.9622335687394656 19.191081691179416 5.5081721779279516 0 0 0
1869 1 2.315207027945645 20.689928481910147 3.545940306989352 0 0 1
81 1 4.735164356498169 19.25020640966088 3.749543414170777 0 0 0
19 1 9.618405077303848 21.20976803653068 4.964191691284961 0 0 0
617 1 14.020492658874021 20.130055105786624 4.8733967636642115 0 0 0
1761 1 15.082492404458248 19.596997986877298 2.6625348042661323 0 0 1
49 1 20.1354881982403 19.58065555907731 2.8045673937251565 0 0 0
1544 1 20.208359215647565 21.752161893111772 4.110570537309878 0 0 1
77 1 24.26653100461375 21.50087149188304 5.556788758656905 0 0 0
660 1 26.091842210154496 20.800433908491804 3.378472133445002 0 0 0
1795 1 33.58715435633971 19.71995859728925 2.4590098326047056 0 0 1
1871 1 36.05757459698457 21.040873235643073 1.8967743283430658 0 0 1
50 1 37.68080873150252 19.03431861353652 3.4622406283349596 0 0 0
1934 1 40.963739133103246 21.95098872122792 2.8173879662707915 0 0 1
698 1 43.42186049331156 20.088588373544606 5.133573047679674 0 0 0
1521 1 44.847100492487385 22.21337204966479 4.015208840483041 0 0 1
7 1 46.7817745386051 18.46320757636889 4.923087275820042 0 0 0
214 1 46.59283598013014 20.352858461039578 2.6229944020187865 -1 0 0
3959 1 0.9593939280401604 24.15182286156053 3.0640006698932005 0 0 1
2455 1 3.1033147764762776 23.028790160183604 4.43034012584657 1 0 0
2632 1 5.4422348375945075 23.59047160261254 3.1437837612426027 0 0 0
528 1 7.919056427156695 22.357869346997255 2.9112537189402414 0 0 0
2114 1 12.013186555630377 22.290256790012158 4.971898546044077 0 0 0
1265 1 14.846209361466688 8.579232877305468 16.014851222312398 0 0 0
1469 1 16.385416326827308 23.638933638667464 5.781820837782188 0 0 1
2055 1 18.053190412022825 23.23800715907345 3.5097368225140526 0 0 1
217 1 32.293041021164676 23.297328130045624 14.815178342727817 0 0 0
138 1 22.594382981689645 23.186714479862758 3.740684719596734 0 0 0
587 1 27.77095983128202 21.95373897319253 5.328181415801489 0 0 0
378 1 28.932783813111897 24.18616875315936 4.592692869195142 0 0 0
2485 1 31.259565221779788 23.289047532922165 3.0602515071613277 0 0 0
2231 1 32.91464634504224 21.810372224077195 4.414821266087662 0 0 0
2625 1 35.34114009721658 23.447498952708603 4.480687138418147 0 0 0
2579 1 40.00204628581369 22.762241149452414 5.5530104916841285 0 0 0
508 1 46.239590772326224 23.640197267178646 5.819566390803202 0 0 0
2010 1 1.53879415756803 20.9714260352602 -0.7574366548078338 1 0 1
590 1 50.04192895580698 23.046579738326542 3.862631715489968 -1 0 0
2447 1 -0.499559997231981 0.29744022624808064 8.694247432271142 0 1 0
83 1 0.7850061430646651 2.530836063633262 7.719052827407392 1 0 0
827 1 50.67905428495778 19.088283750950346 13.630263035018547 -1 0 0
442 1 19.374487158126524 22.032899896692495 15.883799074917583 0 0 0
1151 1 23.4067966579174 24.043982785360708 14.65307682875418 0 0 0
61 1 10.045734291843129 1.8138932795840477 7.330437278747034 0 0 0
2215 1 13.87889718366482 -0.2136715276146497 7.614385387240942 0 1 0
212 1 20.684919041301665 24.513735193583173 14.97498910381781 0 0 0
433 1 23.147407294904983 -0.07784235384283689 8.842369333069872 0 0 0
2768 1 21.15761530066747 0.978205272449856 7.430589394830699 0 1 0
4059 1 50.04535187079106 -0.7646951420840851 2.4002764620822568 0 1 1
58 1 31.124088941679094 0.22433073896318745 8.323529534080654 0 0 0
1960 1 3.3873467159585013 12.010756320590453 -0.7695513675511004 0 0 1
2350 1 35.06840873533637 1.773749725001097 7.146549025154377 0 1 0
2274 1 37.63343372247207 0.4460108269129299 7.393868427980033 0 1 0
290 1 42.462209167957305 -0.26256013182849147 9.04639297274506 0 0 0
425 1 44.01671296021632 1.7538156976555426 7.2886581851321885 0 0 0
420 1 46.383045488812996 1.038946845107896 6.3105080571798 0 0 0
2178 1 48.23740535747464 0.787509029366497 8.461545621389464 0 1 0
316 1 2.2818531772687103 4.072484684933211 9.663300891668017 0 0 0
401 1 50.51290851657828 4.288290678525181 6.83853214452497 0 0 0
526 1 5.619570836980525 3.469722659539313 8.293200736078452 0 0 0
2443 1 8.17681721633245 3.1602067423145614 9.206169510180283 0 1 0
221 1 13.038999652749478 2.493122622610072 7.577956309514981 0 0 0
150 1 17.06063310659531 3.1410053930420383 6.179481376335926 0 0 0
546 1 16.868331573655755 2.871931103482954 8.829548914776813 0 0 0
334 1 22.933650407661474 5.46871730920376 9.353970568853383 0 0 0
2722 1 23.422433371926527 4.954289830057658 6.656763515652724 0 1 0
612 1 26.130920195176962 3.7504613382254073 6.744829221531312 0 0 0
201 1 26.779264654201516 4.041653625533177 9.452713472486158 0 0 0
300 1 30.536286465225388 4.716005834221606 8.747959013263966 0 0 0
72 1 35.078695353657054 4.006262491015521 8.85130145700224 0 0 0
2200 1 37.335944154812324 5.588571253370009 9.19544607306802 0 1 0
224 1 39.292839048742415 2.21388399692501 6.341000443642194 0 0 0
64 1 39.625208114744595 4.340773273088348 8.07378286833548 0 0 0
394 1 46.12048690410744 4.562138907521491 8.19826726704405 0 0 0
281 1 48.63746970010506 3.6565559985879412 8.468205578624413 0 0 0
193 1 -0.08121660622039206 6.924227920435284 7.438441652321188 0 0 0
1023 1 1.9490437818158268 6.92448163618896 9.518872060326423 1 0 0
2792 1 4.721468500546727 6.133763874788033 9.08386373558413 1 1 0
118 1 5.867378899707642 7.1455921141222 6.942899894448016 0 0 0
578 1 9.789520503897377 7.3639691958681155 7.804707294738794 0 0 0
496 1 12.565208815800894 7.424871612594249 8.205681937017228 0 0 0
466 1 14.54967377047157 6.588848373329588 6.444745606785345 0 0 0
251 1 16.788614810031525 7.165012878759266 7.790590416085829 0 0 0
532 1 19.297804032106015 6.855902349913338 7.157757830002155 0 0 0
225 1 25.751071046953758 9.24138466162973 7.844727711948591 0 0 0
605 1 27.966447111350025 7.609126808653075 6.970607772228903 0 0 0
247 1 28.39294780516737 6.196143832569992 9.362262894786063 0 0 0
121 1 33.479004768190755 7.668127673394732 7.662842911063706 0 0 0
696 1 32.8597344853272 6.141838060963033 9.479099137553915 0 0 0
488 1 36.07378529122612 8.041464908600128 8.17713924141488 0 0 0
144 1 41.13890697644258 6.045699320729387 6.482830599315278 0 0 0
455 1 42.72008341094652 7.645185708693353 8.181272125966924 0 0 0
494 1 48.884928303597526 7.8619787819946705 7.211806447727083 -1 0 0
1854 1 -0.42991846372821996 11.535590937970705 7.704586441444544 1 0 1
615 1 5.068442614369476 11.407551929417561 9.6624886624296 0 0 0
639 1 8.261591040220319 9.264381678282923 9.371938505519706 0 0 0
1413 1 6.200166168947394 9.694587704371063 7.770177986318435 0 0 1
335 1 12.783399887464151 11.85166343000636 8.449723777867561 0 0 0
440 1 13.538243588749404 9.423271232719134 9.382958724583698 0 0 0
115 1 20.57517768461597 9.161221268680944 8.06500979147376 0 0 0
524 1 18.336441405112915 11.072024688396368 8.159278909848906 0 0 0
172 1 26.731519524816033 11.838550670895296 7.7731900830648275 0 0 0
160 1 30.127038045231913 9.575591610936828 6.428647472451454 0 0 0
417 1 32.1515426739972 10.340624245790774 8.562074243637284 0 0 0
202 1 36.909327785671266 9.991882488565281 9.935562756384705 0 0 0
220 1 42.05267238446902 10.05833585314104 9.123250415452539 0 0 0
187 1 44.324405904353 11.431434067018655 9.02328654020308 0 0 0
536 1 47.47403267217665 11.878350666912914 6.032581895715516 0 0 0
666 1 44.743099039446896 11.478159682152583 6.349592114756316 0 0 0
318 1 48.795573864621254 10.371022258152207 7.9453191974279616 -1 0 0
376 1 10.376762730821357 13.30736775656518 8.862480525374995 0 0 0
549 1 15.97120733615542 14.741645879588487 8.737347715216362 0 0 0
459 1 18.51103641063513 13.604182961991294 8.699715339970602 0 0 0
79 1 22.61570406916303 13.1420089832452 7.412568173680132 0 0 0
363 1 20.633676581219326 14.852978566114052 7.696775991597576 0 0 0
132 1 25.179187508989955 13.952952378791046 6.670618692747627 0 0 0
51 1 29.90958118214778 14.234329366701408 6.577832645955813 0 0 0
452 1 32.4440465987623 13.309847369443807 6.9307025168835015 0 0 0
192 1 34.542764954511846 14.956499430705948 7.768439536652611 0 0 0
645 1 37.97158955975384 12.326949222934036 8.907074814559154 0 0 0
298 1 36.90864950115316 14.222856614903078 7.027622388117551 0 0 0
579 1 40.58758759719633 11.941914965016108 7.694034348276004 0 0 0
287 1 41.67927578095461 14.385530552300056 8.134422668711352 0 0 0
1339 1 43.8928782846574 14.174650779778917 9.736232833692235 0 0 0
273 1 46.58145174628891 15.24506781361617 9.060327077115742 0 0 0
701 1 -0.7158902794175077 14.28416936170317 7.227293987307597 0 0 0
54 1 48.135657419594985 14.306918329716845 6.8894473384033965 0 0 0
477 1 3.589831272147107 15.72018073504897 7.6022117592154554 0 0 0
33 1 2.6416802219058115 18.52563321656551 7.545129409047547 0 0 0
2287 1 7.041574267610493 18.103508905550218 7.4929372070945135 0 0 0
105 1 9.453932456341585 18.70786992417145 6.125658444916222 0 0 0
572 1 10.592304186623752 15.823330689203853 9.468595474198315 0 0 0
622 1 11.502870017484023 17.646709472515486 7.682653506608576 0 0 0
1905 1 15.545239064155442 15.515120698635357 6.042125705411851 0 0 1
223 1 21.907403211797046 17.267370880718413 9.238468837421557 0 0 0
521 1 25.589016639228987 16.704771521339136 6.669709888461968 0 0 0
625 1 24.69768088812204 16.73082172113366 9.388945629136012 0 0 0
3232 1 29.682970306829525 15.965293951573656 8.731393175810878 0 0 0
531 1 28.13107861062353 17.749584720482744 7.432065585910838 0 0 0
128 1 34.668562940590974 17.15514000662501 6.0883074042304886 0 0 0
151 1 37.17331983411497 18.576609375153723 6.11801128480981 0 0 0
529 1 38.58425133232783 16.370552433180897 6.380160441883756 0 0 0
266 1 39.78915695004727 16.265988037314468 8.913269818247684 0 0 0
637 1 44.75034418309726 18.170978910311455 6.859318559404486 0 0 0
175 1 44.889646235194036 18.758016810616343 9.532510281129998 0 0 0
93 1 47.843449627231415 17.647888657081385 9.558764613237628 0 0 0
189 1 4.780496136813095 19.767532882550473 6.627497753029358 0 0 0
240 1 6.419107928368109 21.3460338021863 8.65774165801603 0 0 0
709 1 14.094364583296892 21.604228097957307 8.902852948392123 0 0 0
483 1 15.586574156524666 21.172346282864428 6.805495511924571 0 0 0
1835 1 17.81374990666402 19.6126548263797 7.474582126589111 0 0 1
113 1 20.214570556079643 21.03134623882179 6.804039128960385 0 0 0
11 1 22.671253842140686 19.729249888849843 7.864436000649343 0 0 0
2506 1 23.480880708824706 22.399435211388404 8.963652272579152 0 0 0
177 1 29.590559824439417 19.595352465948423 5.879489313588077 0 0 0
653 1 31.731984539237992 21.0152586189481 6.805694392698933 0 0 0
512 1 33.31125006308872 19.039088845444066 7.789125213348033 0 0 0
471 1 37.651196622943466 20.62002118613411 8.128810750504591 0 0 0
383 1 40.10660777051145 19.4376212326994 8.83845790287239 0 0 0
661 1 41.44672721376461 21.049625004399896 6.826378232668841 0 0 0
647 1 50.73591425283914 21.12213472051437 6.3527169509244 -1 0 0
505 1 48.4853561849248 19.30847882278333 7.141108602139518 0 0 0
62 1 0.4999512216159201 22.450757757321142 8.408687581816437 0 0 0
124 1 2.822133169844192 23.74398038046939 7.482308203556313 0 0 0
648 1 4.804515829123781 23.364388613918187 9.102638937222475 0 0 0
1221 1 8.69388619487205 22.264786443088937 7.475633011010851 0 0 0
1652 1 22.33191978485877 24.865537673529534 8.124004564192694 0 0 1
2740 1 12.46281551887595 23.895902616555173 8.871372598744166 0 0 0
448 1 19.93676688950347 23.41976250573982 8.481802621267242 0 0 0
683 1 9.042120553265049 2.5993482059718196 -0.702503406994119 0 0 0
1186 1 44.21895098118982 1.2905555934848518 16.116055405014443 0 0 0
333 1 26.040520175570276 22.870012956679577 7.647580417232675 0 0 0
1863 1 30.65974313350462 22.683493449106717 8.646864677617652 0 0 1
2520 1 48.000838214552395 24.724186740650676 13.06804539543087 -1 0 0
299 1 37.41918398189164 22.951397988479727 6.461451714089961 0 0 0
636 1 42.62501964401152 22.815334048599563 8.496247587865923 0 0 0
1898 1 48.051876148057026 1.9051260463395643 -0.18793609954307244 0 0 1
2113 1 47.33854028061215 21.80621353035905 7.74309690276932 0 0 0
642 1 49.53314101574619 23.231736022834216 9.160260080510337 -1 0 0
1210 1 1.4582747769684148 6.30522269806718 15.978346883439727 1 0 0
314 1 1.3956952365011999 1.5094889442084378 12.924567396485596 1 0 0
1310 1 4.10495454538346 1.7010807537769828 13.044935426157526 0 0 0
2521 1 8.733266924424548 0.7925831157540744 10.499816523511603 0 1 0
2784 1 10.225642419845299 1.0476064251775483 12.846555272685201 0 1 0
2161 1 12.611620951692286 2.006175575404141 12.069755665109499 0 1 0
677 1 16.058669839880395 0.1941876075689739 9.018632760864328 0 0 0
880 1 14.815811199522681 0.24499798212286739 11.733285749241437 0 0 0
930 1 20.671766440901752 1.8889415525929119 11.667065406358201 0 0 0
2702 1 23.206818648281615 1.5725414193945126 10.918988479156052 0 1 0
2237 1 27.325266004989565 -0.08071278861451825 12.180727892396328 0 1 0
571 1 28.10846924471635 2.3950436285272643 11.56044226455839 0 0 0
444 1 30.6906812429509 2.234100899727621 10.327901573149333 0 0 0