
# Create simulation box of size 50 x 50 x 50 Angstrom
#
lattice	            sc 1
Lattice spacing in x,y,z = 1.0000000 1.0000000 1.0000000
region 	            all block 0 50 0 50 0 50 units box
create_box          1 all
Created orthogonal box = (0.0000000 0.0000000 0.0000000) to (50.000000 50.000000 50.000000)
  1 by 2 by 3 MPI processor grid

# fill box with 4175 randomly distributed atoms
#
create_atoms        1 random 4175 63782 all
Created 4175 atoms
  create_atoms CPU = 0.001 seconds
mass                1 18.015

# Define potential
#
pair_style          sw
pair_coeff          * * ML_mW.sw mW
Reading sw potential file ML_mW.sw with DATE: 2019-02-27

# Run minimization
#
minimize            1.0e-8 1.0e-8 10000 1000
WARNING: Using 'neigh_modify every 1 delay 0 check yes' setting during minimization (../min.cpp:187)
Neighbor list info ...
  update every 1 steps, delay 0 steps, check yes
  max neighbors/atom: 2000, page size: 100000
  master list distance cutoff = 6.0032907
  ghost atom cutoff = 6.0032907
  binsize = 3.0016454, bins = 17 17 17
  1 neighbor lists, perpetual/occasional/extra = 1 0 0
  (1) pair sw, perpetual
      attributes: full, newton on
      pair build: full/bin/atomonly
      stencil: full/bin/3d
      bin: standard
Per MPI rank memory allocation (min/avg/max) = 4.255 | 4.258 | 4.261 Mbytes
Step Temp E_pair E_mol TotEng Press 
       0            0    7792709.3            0    7792709.3    5898794.3 
     630            0   -45180.336            0   -45180.336   -154.07449 
Loop time of 1.17738 on 6 procs for 630 steps with 4175 atoms

99.0% CPU use with 6 MPI tasks x no OpenMP threads

Minimization stats:
  Stopping criterion = max force evaluations
  Energy initial, next-to-last, final = 
      7792709.32924461  -45180.0188663597   -45180.336116598
  Force two-norm initial, final = 2.0191930e+08 4.9721331
  Force max component initial, final = 1.0948746e+08 0.73126211
  Final line search alpha, max atom move = 0.053306038 0.038980685
  Iterations, force evaluations = 630 1000

MPI task timing breakdown:
Section |  min time  |  avg time  |  max time  |%varavg| %total
---------------------------------------------------------------
Pair    | 0.8997     | 1.0079     | 1.0961     |   6.2 | 85.60
Neigh   | 0.024474   | 0.024922   | 0.02593    |   0.3 |  2.12
Comm    | 0.035139   | 0.12436    | 0.23304    |  17.9 | 10.56
Output  | 0          | 0          | 0          |   0.0 |  0.00
Modify  | 0          | 0          | 0          |   0.0 |  0.00
Other   |            | 0.02024    |            |       |  1.72

Nlocal:        695.833 ave         704 max         685 min
Histogram: 1 1 0 0 1 0 0 1 0 2
Nghost:        1494.17 ave        1515 max        1468 min
Histogram: 1 1 0 0 0 0 1 1 1 1
Neighs:        0.00000 ave           0 max           0 min
Histogram: 6 0 0 0 0 0 0 0 0 0
FullNghs:      19997.0 ave       20462 max       19320 min
Histogram: 1 1 0 0 0 0 0 2 0 2

Total # of neighbors = 119982
Ave neighs/atom = 28.738204
Neighbor list builds = 26
Dangerous builds = 0

# Add velocity/set timestep
#
velocity            all create ${TEMP} 120598 rot yes dist gaussian
velocity            all create 215 120598 rot yes dist gaussian
timestep            5.0

# Define output
#
compute	            1 all msd
thermo	            100
thermo_style        custom step temp press vol etotal ke pe c_1[4] density

# Neighbor lists
#
neigh_modify        delay 0 every 1 check yes

# Set fixes
#
fix                 1 all momentum 10 linear 1 1 1 rescale
fix                 2 all nve
fix                 3 all temp/csvr ${TEMP} ${TEMP} 500.0 928347
fix                 3 all temp/csvr 215 ${TEMP} 500.0 928347
fix                 3 all temp/csvr 215 215 500.0 928347
fix                 4 all press/berendsen iso ${PRES} ${PRES} 1000.0 modulus 20000
fix                 4 all press/berendsen iso -950 ${PRES} 1000.0 modulus 20000
fix                 4 all press/berendsen iso -950 -950 1000.0 modulus 20000

# Run 0.5 ns equilibration
#
dump                1 all custom 1000 eq.${NAME}.dump id type x y z vx vy vz
dump                1 all custom 1000 eq.liquid_density_MLmW.dump id type x y z vx vy vz
run                 100000
Per MPI rank memory allocation (min/avg/max) = 3.506 | 3.508 | 3.511 Mbytes
Step Temp Press Volume TotEng KinEng PotEng c_1[4] Density 
     630          215    824.17143       125000   -42505.327    2675.0087   -45180.336 2.7295415e-33   0.99914793 
     700    137.20887   -739.43547     126323.7   -41672.614    1707.1392   -43379.753   0.25524559   0.98867825 
     800     168.4986   -1009.4947    126824.36   -40913.888    2096.4429   -43010.331   0.57570031   0.98477529 
     900    188.55581   -623.96161    127068.95   -40481.348    2345.9927   -42827.341   0.95789677   0.98287969 
    1000    196.74274   -720.77939    127408.45   -40205.629    2447.8538   -42653.483    1.4098591   0.98026066 
    1100    205.01018   -654.67243    127859.13   -40026.425    2550.7163   -42577.142    1.7196991    0.9768054 
    1200    209.48993   -856.24648    127883.61   -40065.684    2606.4529   -42672.137    2.0297799   0.97661841 
    1300    207.55294   -961.36069    128129.44   -40060.124    2582.3531   -42642.477    2.4106399    0.9747447 
    1400    208.63757    -762.4765    128394.62   -40069.227    2595.8481   -42665.075    2.7190374   0.97273147 
    1500    211.85755   -909.68962    128625.66   -40043.244    2635.9107   -42679.155    3.1037489   0.97098428 
    1600    220.02543   -869.48516    128953.07   -39968.417    2737.5347   -42705.951    3.4510988   0.96851894 
    1700    214.66465   -910.67313    129075.29   -39994.096    2670.8364   -42664.933    3.7967992   0.96760189 
    1800    216.98091   -1005.6499     129027.2   -40087.146    2699.6551   -42786.801    4.0193025   0.96796253 
    1900    214.49784   -939.11287    128949.06    -40090.35    2668.7609   -42759.111    4.2080326   0.96854904 
    2000    217.02448   -814.15197    129148.27   -40071.796    2700.1972   -42771.993    4.4708906   0.96705507 
    2100    220.85754   -818.91103    129496.16   -40056.896    2747.8877   -42804.784    4.6423167    0.9644571 
    2200    218.45669   -1038.3766    129379.28   -40124.889    2718.0166   -42842.905    4.9161842   0.96532835 
    2300    216.71297   -834.20257    129608.37   -40122.496    2696.3214   -42818.817    5.1881811    0.9636221 
    2400    221.76809    -898.4279    129766.53   -40156.837    2759.2166   -42916.054    5.4908013   0.96244763 
    2500    218.92786   -828.58559    129838.93   -40141.598    2723.8788   -42865.476    5.6946834   0.96191096 
    2600    220.51806   -903.72583    129679.48   -40129.555     2743.664   -42873.219    5.9126523   0.96309371 
    2700    221.25644   -962.51032    129882.91   -40178.528    2752.8508   -42931.379    6.1498655   0.96158529 
    2800    220.00049   -918.60188    130073.43   -40185.652    2737.2244   -42922.877    6.3048237   0.96017678 
    2900    221.38094   -1033.5492     130221.5   -40267.658    2754.3998   -43022.057    6.4807722   0.95908502 
    3000    218.12919   -856.14462     130246.2   -40316.024    2713.9419   -43029.966    6.7452396   0.95890314 
    3100     216.5363   -967.41844    130412.12   -40310.957    2694.1232    -43005.08    6.9716249   0.95768316 
    3200    216.71642   -1093.2525     130392.4   -40367.793    2696.3643   -43064.157    7.1415467   0.95782796 
    3300    218.91523   -688.70259    130641.37   -40383.823    2723.7217   -43107.545    7.1654897   0.95600261 
    3400    221.10681   -1014.2576    130865.81   -40455.761    2750.9891    -43206.75    7.4071685     0.954363 
    3500    216.26309   -672.36974    131236.25    -40490.63     2690.724   -43181.354    7.5593334   0.95166915 
    3600    215.29782   -814.38954    131448.84   -40535.863    2678.7142   -43214.577    7.7815465   0.95013001 
    3700     211.9677   -795.54884    131462.76   -40623.519    2637.2811     -43260.8    7.9622944   0.95002946 
    3800    214.75388   -823.36846    131598.61    -40592.26    2671.9465   -43264.206    8.2274565   0.94904875 
    3900    213.71939   -1028.2663     131811.1   -40632.141    2659.0756   -43291.217    8.3768779   0.94751879 
    4000     213.2043   -996.22525    132193.48   -40632.677    2652.6668   -43285.344    8.4854376   0.94477802 
    4100    217.59698   -973.95954    132125.41   -40628.209    2707.3201   -43335.529    8.5396766   0.94526475 
    4200     213.1472   -984.70922    132048.61   -40643.234    2651.9564    -43295.19     8.707591   0.94581454 
    4300    212.87842   -835.48791    132058.41   -40638.078    2648.6123   -43286.691    8.7796102   0.94574429 
    4400    217.64196   -802.23742    132270.49   -40632.266    2707.8797   -43340.146    8.9027013    0.9442279 
    4500    216.02753   -858.33935     132162.9   -40652.533    2687.7932   -43340.326    9.0548985   0.94499659 
    4600    214.98122    -841.2971    132285.38   -40724.676    2674.7751   -43399.451    9.2719375   0.94412162 
    4700    218.06824   -943.61445    132505.12    -40667.63    2713.1835   -43380.814    9.3427382   0.94255596 
    4800    214.70384   -921.87781       132404   -40741.051     2671.324   -43412.375    9.3384364   0.94327581 
    4900    219.35571   -854.31208    132465.85   -40638.562     2729.202   -43367.764    9.5500908   0.94283537 
    5000    218.26935   -1004.2714    132513.16   -40608.906    2715.6857   -43324.592     9.695172   0.94249877 
    5100    220.47838   -1059.3268    132783.39   -40691.833    2743.1702   -43435.003    9.7468689   0.94058065 
    5200    216.07371    -1020.303    132772.33   -40767.693    2688.3678   -43456.061    9.7799884   0.94065903 
    5300    217.12316   -973.08228    132888.64   -40749.088    2701.4248   -43450.513     9.889188   0.93983572 
    5400    216.13166   -1030.6384    133051.05   -40786.986    2689.0888   -43476.075    9.9444537   0.93868851 
    5500    214.13524   -845.74612    133065.97   -40789.945    2664.2495   -43454.195    9.9816898   0.93858325 
    5600    214.07783    -783.0809    133345.99   -40793.281    2663.5352   -43456.816    10.084515   0.93661229 
    5700    214.95542   -902.37518    133418.39   -40786.559     2674.454   -43461.013    10.248906   0.93610401 
    5800    214.46637   -818.73702    133576.45   -40823.031    2668.3693     -43491.4    10.375013   0.93499634 
    5900    214.38468   -874.23497    133727.39   -40873.247     2667.353     -43540.6    10.452113   0.93394102 
    6000    215.52507   -868.08633    133736.93   -40884.958    2681.5417   -43566.499    10.562044   0.93387434 
    6100     217.9225   -990.74411     133855.5   -40840.998    2711.3702   -43552.368    10.735416   0.93304712 
    6200    211.26834   -904.50462    133751.18   -40922.448    2628.5797   -43551.027    10.821084    0.9337749 
    6300    216.29077   -1034.0153    133821.69   -40898.376    2691.0683   -43589.445    10.990265   0.93328286 
    6400    216.97935   -949.85017    133855.15   -40894.925    2699.6356    -43594.56    10.928107   0.93304958 
    6500    216.74034   -910.37425    133717.03   -40860.856    2696.6619   -43557.518    11.007423   0.93401338 
    6600     215.0775   -1030.3492       133809   -40943.453     2675.973   -43619.426    11.042797   0.93337141 
    6700     212.2369   -944.47926    133697.99   -41018.274    2640.6305   -43658.904    11.289746   0.93414635 
    6800    211.81853   -783.31317    133928.38   -40938.281    2635.4253   -43573.706    11.502577   0.93253942 
    6900    218.96143   -857.73778     133998.2   -40877.876    2724.2965   -43602.172    11.525866    0.9320535 
    7000    215.61114   -1163.7639    134103.66   -40875.511    2682.6125   -43558.123    11.660635    0.9313205 
    7100    213.14913   -884.52525    133996.51   -40904.186    2651.9804   -43556.167     11.53992   0.93206527 
    7200    213.89646   -991.99371    134158.62   -40967.063    2661.2787   -43628.342    11.637782   0.93093897 
    7300    213.79505   -872.40169    134119.49   -41036.608    2660.0169   -43696.625     11.82774   0.93121057 
    7400    215.71631   -1003.6524    134231.14   -41074.066    2683.9209   -43757.987    11.938948   0.93043602 
    7500    215.98596   -931.97265    134354.45   -41053.033     2687.276   -43740.309    12.016152   0.92958212 
    7600    209.21177   -883.97047     134420.4    -41137.36    2602.9921   -43740.353    11.970961   0.92912605 
    7700    214.12009   -942.19924    134589.25   -41027.545    2664.0609   -43691.606    11.959704   0.92796041 
    7800    214.48215   -936.62922    134566.64   -40994.756    2668.5658   -43663.322    11.991721   0.92811626 
    7900    209.36587   -974.51736    134643.62   -41059.072    2604.9095   -43663.981     11.97092   0.92758565 
    8000    213.37352   -1132.4355    134633.66   -41037.797    2654.7723   -43692.569    11.929282   0.92765427 
    8100    212.90525   -860.33386    134548.21   -41101.689     2648.946   -43750.635    12.132895    0.9282434 
    8200    210.38905   -857.46605    134721.02   -41126.463    2617.6397   -43744.102    12.266706   0.92705271 
    8300     210.6053   -1001.4693    134865.45   -41119.527    2620.3303   -43739.858    12.262747   0.92605993 
    8400    214.80467   -948.40046    134685.66   -41078.349    2672.5785   -43750.928    12.440993   0.92729612 
    8500    214.23439   -1011.7421    134622.92   -41019.319    2665.4831   -43684.802    12.420503   0.92772825 
    8600    214.85879   -921.22092    134847.98   -41036.105    2673.2519   -43709.357    12.426871   0.92617995 
    8700    215.66368   -944.88427    134806.85   -41021.445    2683.2662   -43704.711    12.574322   0.92646248 
    8800    211.10171   -1038.7894    134705.74   -41051.686    2626.5066   -43678.193    12.532564   0.92715789 
    8900    212.79318   -790.53223    134751.77     -41130.3    2647.5517   -43777.852    12.468969   0.92684116 
    9000     212.7999   -1016.7551    134912.22   -41085.835    2647.6354    -43733.47    12.552848    0.9257389 
    9100    215.22316   -838.92825    134974.89   -41160.323    2677.7853   -43838.109    12.576216   0.92530906 
    9200     215.4752   -943.25481    134951.84   -41071.881    2680.9211   -43752.802    12.700631   0.92546711 
    9300    217.32144   -961.99665    134936.04    -41124.59    2703.8919   -43828.482    12.878219   0.92557547 
    9400    218.43075   -931.24728    135029.76   -41103.334    2717.6938   -43821.028    12.783988   0.92493305 
    9500    212.82428   -900.03513    134958.72    -41122.63    2647.9387   -43770.569    12.902996   0.92541992 
    9600    215.67224   -950.89776    135030.99   -41092.704    2683.3726   -43776.076    13.056075   0.92492468 
    9700    215.66882   -939.71856    134929.66   -41015.115    2683.3301   -43698.445    13.039593   0.92561924 
    9800    213.15069   -1053.0014    134863.78   -41102.647    2651.9998   -43754.647    12.999703   0.92607138 
    9900     210.6779   -1007.3458    134595.48   -41178.915    2621.2336   -43800.148    12.992436   0.92791743 
   10000    209.61784   -959.45879    134454.91   -41184.338    2608.0445   -43792.382    13.039501   0.92888758 
   10100     210.4879   -865.40628    134481.11   -41142.141    2618.8696   -43761.011    13.055257    0.9287066 
   10200    214.19566   -923.37637    134527.87    -41178.53    2665.0013   -43843.531    13.217621   0.92838376 
   10300    215.15305   -933.32345    134655.87   -41169.877    2676.9129    -43846.79    13.230639   0.92750126 
   10400    218.82154    -889.2618     134606.7   -41118.689     2722.556   -43841.245    13.201642   0.92784007 
   10500    216.18465   -900.27724    134606.08   -41101.761     2689.748   -43791.509    13.225417   0.92784436 
   10600    219.99482   -998.13664    134494.15   -41032.651    2737.1537   -43769.805     13.32571   0.92861653 
   10700     220.0477   -1000.6908    134488.22   -41016.159    2737.8118   -43753.971    13.338075   0.92865744 
   10800    221.61716   -966.70233    134627.89   -41003.681    2757.3388    -43761.02    13.227492   0.92769407 
   10900    213.10242   -874.31339    134430.07   -41021.729    2651.3993   -43673.128    13.330796   0.92905919 
   11000    218.41701    -1067.582    134584.56   -41012.915    2717.5229   -43730.438    13.414816   0.92799268 
   11100    216.61997   -976.58191    134538.71   -41059.176    2695.1642   -43754.341    13.400866   0.92830894 
   11200    215.12619   -991.28268    134600.21   -41049.769    2676.5788   -43726.347    13.698373   0.92788479 
   11300    215.66863   -962.19245    134537.91   -41053.713    2683.3278   -43737.041    13.865618   0.92831451 
   11400    217.24328   -1043.8845    134524.85   -41068.419    2702.9194   -43771.338    13.727959   0.92840461 
   11500    212.67199    -846.1832    134536.04   -41110.851    2646.0439   -43756.895    13.631366   0.92832739 
   11600    212.85363   -1031.0603     134631.1   -41119.173    2648.3039   -43767.477    13.785525   0.92767194 
   11700    218.97472    -879.6404    134719.87   -41031.875    2724.4618   -43756.337    13.923429   0.92706062 
   11800    217.35308   -987.21023    134749.34   -41114.889    2704.2855   -43819.174    13.893555   0.92685791 
   11900    212.26595   -965.27588    134632.76   -41124.137     2640.992   -43765.129     14.08961   0.92766047 
   12000    207.82348    -1012.858    134658.75   -41125.289    2585.7192   -43711.008    14.042742   0.92748143 
   12100    216.29508   -1135.3624    134561.02   -41067.172     2691.122   -43758.294    14.157462   0.92815504 
   12200    216.22016   -992.77373     134488.2   -41053.604    2690.1898   -43743.793     14.15489   0.92865764 
   12300    216.75221   -954.92247    134441.63   -41065.624    2696.8095   -43762.433    14.177949    0.9289793 
   12400    217.52578   -837.99249    134450.42   -41054.974    2706.4343   -43761.408    14.261138   0.92891856 
   12500    213.24049   -963.35665    134540.86   -41153.679    2653.1171   -43806.796    14.347796   0.92829413 
   12600    211.69398   -937.72274    134595.82   -41070.859    2633.8756   -43704.735    14.301762   0.92791509 
   12700    213.46674    -919.7087    134641.77     -41043.5    2655.9321   -43699.433    14.377471   0.92759843 
   12800    212.60711   -1000.4441    134484.41   -41020.388    2645.2366   -43665.625     14.31473   0.92868376 
   12900    210.72122   -992.71817    134484.01   -41073.367    2621.7726    -43695.14    14.498729   0.92868653 
   13000    219.55582   -856.08154    134490.05   -41017.763    2731.6918   -43749.455     14.46951   0.92864484 
   13100    218.70418   -838.66241    134443.19   -41025.774    2721.0958    -43746.87    14.530077    0.9289685 
   13200    218.98679    -807.1433    134644.06   -40947.034     2724.612   -43671.646    14.602978   0.92758261 
   13300    215.71026    -1148.569    134536.31   -41000.804    2683.8458    -43684.65    14.613706   0.92832552 
   13400    212.76443   -921.05107    134192.42   -41088.882     2647.194   -43736.076    14.682311   0.93070453 
   13500    217.58997   -882.84806    134219.22    -41123.57    2707.2329   -43830.803    14.660012   0.93051867 
   13600    212.41589   -1020.5865    134146.19   -41147.231    2642.8575   -43790.088    14.716437   0.93102522 
   13700    214.01028   -1007.8184    134130.59   -41140.591    2662.6947   -43803.285    14.639472   0.93113356 
   13800    213.88436   -956.10212    134316.26   -41048.011    2661.1281   -43709.139    14.840664   0.92984638 
   13900    212.06305   -948.99873    134482.48   -41080.003    2638.4675    -43718.47    14.999463   0.92869711 
   14000    217.16444   -941.07922    134425.39   -41060.899    2701.9385   -43762.837    15.007203   0.92909153 
   14100    210.45646    -967.7302    134460.85   -41055.322    2618.4784   -43673.801    15.060073   0.92884653 
   14200    212.90532    -945.6282    134461.39     -41093.8     2648.947   -43742.747    15.126968   0.92884279 
   14300     213.5222    -896.7223    134621.21   -41155.334    2656.6221   -43811.956    15.160284   0.92774004 
   14400    211.80879   -948.73919     134731.5   -41127.655     2635.304   -43762.959    15.130429   0.92698063 
   14500    217.62103   -917.21774    134708.57   -41073.761    2707.6193    -43781.38    15.061818   0.92713843 
   14600    214.50424   -915.90701    134881.05   -41071.997    2668.8406   -43740.837    15.238164   0.92595285 
   14700    209.81088   -1049.5065    134789.89   -41129.769    2610.4462   -43740.215    15.345719   0.92657906 
   14800    211.53525   -880.69869    134773.79   -41166.925    2631.9007   -43798.826     15.40019   0.92668977 
   14900    212.08561   -958.87808    134788.34   -41245.935    2638.7482   -43884.683    15.356443   0.92658972 
   15000    211.25542    -944.2214    134804.51   -41251.266    2628.4191   -43879.685      15.4588   0.92647856 
   15100    206.89533   -874.72401    134788.58   -41285.054    2574.1712   -43859.225    15.584294    0.9265881 
   15200    212.29888   -956.82933    134638.68   -41212.222    2641.4017   -43853.624    15.559595   0.92761969 
   15300    212.64011   -923.19833    134729.34   -41212.979    2645.6472   -43858.626    15.646832   0.92699547 
   15400    212.48642   -773.78164    134634.42    -41207.46     2643.735   -43851.195     15.74427   0.92764904 
   15500    215.78619   -1026.0746    134766.22   -41194.922    2684.7905   -43879.713    15.833685    0.9267418 
   15600    213.26732   -842.32395    134647.13   -41132.837     2653.451   -43786.288    15.822564   0.92756149 
   15700    209.42131     -890.341    134500.86   -41213.795    2605.5992   -43819.394    15.698649   0.92857022 
   15800     213.9134   -893.29644    134523.74   -41215.903    2661.4894   -43877.393    15.638148   0.92841231 
   15900      212.369   -863.68157       134463   -41253.939    2642.2741   -43896.213    15.761879   0.92883169 
   16000    215.02661   -815.31925    134522.69   -41195.057    2675.3398   -43870.397    15.981276   0.92841952 
   16100    218.08151   -901.07773    134643.58   -41147.256    2713.3486   -43860.605    15.958078   0.92758596 
   16200    214.01122   -884.86861    134590.06   -41201.894    2662.7065     -43864.6    16.046674   0.92795476 
   16300    210.64985   -850.29316    134566.22   -41220.454    2620.8847   -43841.338     16.06711   0.92811921 
   16400    216.99743   -880.62751    134800.73   -41119.962    2699.8606   -43819.822    16.156501   0.92650458 
   16500    216.97497   -1000.8164    134690.37   -41121.396    2699.5812   -43820.977    16.236243   0.92726368 
   16600    217.05941   -908.17521    134726.85   -41107.369    2700.6318   -43808.001     16.31448    0.9270126 
   16700    218.59514   -798.77122    134819.41   -41153.169    2719.7391   -43872.908      16.2183   0.92637616 
   16800    214.13269   -968.96525    134938.07   -41139.796    2664.2178   -43804.014    16.482791   0.92556155 
   16900    216.54086   -1066.1195    134914.44   -41107.956    2694.1799   -43802.136    16.427564   0.92572367 
   17000    217.69506   -1044.1726    134885.99   -41135.303    2708.5404   -43843.844    16.344045   0.92591891 
   17100    219.98278   -914.59642    134944.58   -41064.761     2737.004   -43801.765    16.523097   0.92551692 
   17200    215.17494   -942.93841    134864.64   -41081.263    2677.1853   -43758.449    16.434424   0.92606554 
   17300    215.80499   -947.08907    135056.71   -41139.235    2685.0243   -43824.259    16.467846   0.92474848 
   17400    216.29784    -1152.325    134894.58   -41156.437    2691.1563   -43847.593     16.60137   0.92585994 
   17500    217.17899   -863.73183    134857.12   -41143.056    2702.1195   -43845.176    16.723545   0.92611714 
   17600    217.76049   -930.30251    134895.86   -41119.629    2709.3545   -43828.983    16.742101   0.92585119 
   17700    216.95777   -1022.9855    135015.34   -41146.498    2699.3671   -43845.865    16.750183   0.92503187 
   17800    214.48294   -1004.1497     135071.7   -41143.471    2668.5755   -43812.046    16.728384    0.9246459 
   17900    216.99017   -962.22093    135039.63   -41102.958    2699.7702   -43802.729    16.744568   0.92486546 
   18000    220.01411   -963.45324    135044.38   -41057.755    2737.3938   -43795.149    16.900325   0.92483294 
   18100    212.98154   -813.58191    135031.63   -41159.754    2649.8953   -43809.649    16.989315    0.9249203 
   18200    219.53623   -879.86256    134881.29   -41165.468     2731.448   -43896.916     16.96708   0.92595122 
   18300    220.07985   -796.37996    135191.44   -41074.779    2738.2118   -43812.991    17.114562   0.92382692 
   18400    216.29808   -967.14502    135265.25   -41134.987    2691.1593   -43826.146     17.02581   0.92332283 
   18500    217.80152   -897.52251    135137.71   -41111.437     2709.865   -43821.302    17.141793   0.92419423 
   18600    217.37468   -883.46119    135083.76   -41178.289    2704.5542   -43882.844     17.05162   0.92456331 
   18700    219.23765   -938.54148    135108.28   -41155.661    2727.7332   -43883.394    17.100444   0.92439555 
   18800    215.20057   -914.43506    135146.45   -41128.845    2677.5043   -43806.349     17.18334   0.92413445 
   18900     213.0175   -1007.0423    135063.36    -41177.88    2650.3427   -43828.223    17.209386   0.92470296 
   19000     216.5891   -907.63969    134924.98   -41162.469    2694.7802    -43857.25    17.222329   0.92565137 
   19100    215.06998   -874.69954    135038.39   -41224.708    2675.8794   -43900.588     17.26367   0.92487398 
   19200     218.2415   -847.31216    135110.78   -41199.887    2715.3391   -43915.226     17.19661   0.92437846 
   19300    222.26846   -877.46486    135175.38    -41147.97    2765.4422   -43913.412    17.273656   0.92393665 
   19400    216.95934   -1005.4724    135174.75   -41158.465    2699.3867   -43857.852    17.252966   0.92394099 
   19500    216.08529   -1005.0171    135299.15   -41161.382    2688.5118   -43849.894    17.208877   0.92309146 
   19600    210.90788   -956.36846     135071.9   -41186.746     2624.095   -43810.841    17.356925   0.92464454 
   19700    217.99935   -1094.0568    135256.96   -41160.289    2712.3263   -43872.615    17.524207   0.92337942 
   19800     214.2471   -945.65405    135195.37   -41185.716    2665.6413   -43851.357    17.383498   0.92380009 
   19900    215.44419    -933.3367    135205.19   -41180.325    2680.5353   -43860.861    17.458508   0.92373296 
   20000    217.04995   -915.07204    135218.13   -41225.422    2700.5141   -43925.936    17.347119   0.92364454 
   20100    215.75928   -1140.0888    135127.12   -41194.188    2684.4556   -43878.644    17.594767   0.92426662 
   20200     211.3286   -933.62879    135073.63   -41249.833    2629.3296   -43879.163    17.664318   0.92463267 
   20300    213.35643   -947.27295    134917.89   -41288.022    2654.5596   -43942.582    17.824932       0.9257 
   20400    216.49009   -912.30618    135097.53    -41276.56    2693.5483   -43970.109    18.002042    0.9244691 
   20500    212.54383   -955.35062    135033.27   -41240.911    2644.4493    -43885.36    17.957138     0.924909 
   20600    216.67527   -877.85711    135051.73   -41269.498    2695.8523   -43965.351    17.782368   0.92478261 
   20700    218.67041   -945.18303    135086.11   -41209.524    2720.6757   -43930.199    17.828519   0.92454722 
   20800     208.9984   -998.18304    135112.18    -41212.11    2600.3374   -43812.447     17.90055   0.92436882 
   20900    213.67347   -1052.6086    134874.13   -41248.025    2658.5042   -43906.529    17.959031   0.92600035 
   21000    213.15741   -984.18672    134990.71   -41333.191    2652.0834   -43985.274    18.046483   0.92520065 
   21100    210.65332   -1004.5501     135124.4   -41343.775    2620.9278   -43964.703    18.069659   0.92428525 
   21200    207.99118   -793.18642    135162.97   -41303.894    2587.8057     -43891.7    18.248785    0.9240215 
   21300    214.13778   -935.28328    135110.18   -41308.036    2664.2811   -43972.317    18.246028   0.92438256 
   21400    211.43696   -1044.5878    135127.29   -41284.681    2630.6777   -43915.359    18.174499   0.92426549 
   21500    212.48388   -976.00097    135034.02   -41268.336    2643.7034   -43912.039     18.25275    0.9249039 
   21600    215.02699   -948.77825    135101.81   -41211.136    2675.3445   -43886.481    18.314465   0.92443977 
   21700    216.42079   -983.32211    135134.68   -41193.692     2692.686   -43886.378    18.418139   0.92421497 
   21800    217.50103   -956.65683    135236.59   -41183.791    2706.1264   -43889.918    18.433829   0.92351851 
   21900     215.7777   -886.08718    135045.36   -41216.389    2684.6849   -43901.073     18.53561   0.92482624 
   22000    212.19135    -1015.963    135105.48   -41248.403    2640.0637   -43888.466    18.571429   0.92441467 
   22100    220.77478   -977.29833     135284.1   -41190.511     2746.858   -43937.369    18.534918   0.92319419 
   22200    215.32618   -906.40541    135311.19   -41212.184     2679.067   -43891.251     18.59905   0.92300934 
   22300     212.6835   -990.75132    135320.62   -41191.754    2646.1871   -43837.941    18.672161   0.92294498 
   22400    218.45184   -1043.4495    135217.26   -41169.723    2717.9562    -43887.68    18.706645    0.9236505 
   22500    216.48903   -883.49058    135095.63   -41179.149    2693.5351   -43872.684    18.732866   0.92448211 
   22600    221.61436   -927.39969    135316.09   -41150.157     2757.304   -43907.461    18.849168    0.9229759 
   22700    213.13555   -926.14551    135312.47    -41162.83    2651.8115   -43814.641    18.814657   0.92300061 
   22800    219.20345   -923.83746    135302.54   -41158.365    2727.3077   -43885.673    18.815475   0.92306834 
   22900    218.62288   -940.88819     135284.1   -41223.469    2720.0843   -43943.554    18.898663   0.92319419 
   23000    217.07981     -910.788    135205.81   -41214.194    2700.8855   -43915.079    19.032184   0.92372873 
   23100    214.51482   -996.03095    135220.82   -41315.884    2668.9722   -43984.856     19.02259   0.92362618 
   23200    214.74926   -929.29191    135331.94   -41261.445    2671.8891   -43933.334    19.003134   0.92286781 
   23300    211.24216   -886.76712    135272.17   -41315.678    2628.2541   -43943.932    19.014127   0.92327557 
   23400    215.21587   -916.60837    135258.93    -41253.39    2677.6946   -43931.084    19.000503   0.92336599 
   23500    215.57294   -1077.1492    135333.37   -41298.703    2682.1372    -43980.84     18.92383   0.92285807 
   23600    216.25944   -840.39223    135224.22   -41281.797    2690.6786   -43972.475     18.88659     0.923603 
   23700    212.49003   -1075.9821    135203.36   -41321.827      2643.78   -43965.607    18.974345   0.92374547 
   23800    212.19957   -791.54039     135251.5   -41371.274    2640.1661    -44011.44    19.045827   0.92341665 
   23900    213.15639   -1110.9984    135248.05    -41388.71    2652.0707   -44040.781    18.949625   0.92344026 
   24000    213.73454    -959.6142    135133.78   -41312.128     2659.264   -43971.393    19.012209    0.9242211 
   24100     215.4943   -856.21935    134976.51   -41302.676    2681.1587   -43983.835    19.116546   0.92529798 
   24200    214.61163   -844.34412    135054.39   -41352.932    2670.1767   -44023.109    19.040235   0.92476442 
   24300    214.11206   -846.26971    135185.98   -41313.266    2663.9611   -43977.227    19.157521   0.92386421 
   24400    211.23859   -969.73241    135159.36   -41355.435    2628.2097   -43983.645    19.107495    0.9240462 
   24500     215.8598   -987.44545    135137.81   -41314.823    2685.7063   -44000.529    19.177007   0.92419353 
   24600    209.04317   -950.79762    135217.61   -41301.828    2600.8945   -43902.723      19.1265    0.9236481 
   24700    212.63622   -974.94852     135239.7   -41327.886    2645.5988   -43973.484    19.233635   0.92349723 
   24800    213.25171   -855.25552    135245.79   -41327.149    2653.2566   -43980.405    19.239746   0.92345564 
   24900    213.16272   -871.67851    135274.02    -41281.02    2652.1495   -43933.169    19.372045   0.92326293 
   25000    219.60808   -748.57402    135352.42   -41267.737    2732.3421   -44000.079    19.441931    0.9227282 
   25100    217.26415    -942.6682    135392.66   -41276.219    2703.1791   -43979.398    19.378739   0.92245393 
   25200    213.87758   -887.87657    135315.94   -41323.432    2661.0437   -43984.476    19.373739   0.92297696 
   25300    213.78949   -1026.8488    135182.25   -41331.479    2659.9477   -43991.427    19.398371   0.92388974 
   25400    217.92149   -802.37281    135315.99   -41319.606    2711.3577   -44030.964    19.453555   0.92297658 
   25500    215.41769   -1055.9791     135601.6   -41283.956    2680.2056   -43964.161    19.543487   0.92103261 
   25600    215.08934   -968.30992    135557.12   -41367.918    2676.1203   -44044.038    19.470155    0.9213348 
   25700    212.73429   -955.06302    135491.93   -41397.994     2646.819   -44044.813    19.524759   0.92177807 
   25800    214.55523   -968.67035    135462.42    -41396.51    2669.4749   -44065.985     19.52557   0.92197888 
   25900    214.28001   -985.06489    135401.08   -41353.736    2666.0507   -44019.786    19.580836    0.9223966 
   26000    217.11562   -998.44162    135370.95   -41287.207     2701.331   -43988.538     19.77974   0.92260184 
   26100    214.35328   -922.81522    135326.86   -41364.168    2666.9623   -44031.131     19.69171   0.92290247 
   26200    219.90784   -1001.8169    135407.09   -41362.421    2736.0716   -44098.492    19.602787   0.92235564 
   26300     209.7562    -938.6908    135397.01    -41340.58    2609.7659   -43950.346    19.766128   0.92242428 
   26400    218.05528   -789.93905    135454.29   -41329.694    2713.0223   -44042.716    19.889796   0.92203423 
   26500    215.18776   -1016.9616    135313.13   -41390.917    2677.3449   -44068.261    19.786181   0.92299607 
   26600    214.02792   -965.63923    135283.36   -41456.841    2662.9142   -44119.755    19.690835   0.92319923 
   26700    214.14628    -894.9462    135216.43   -41469.044    2664.3868   -44133.431    19.758418   0.92365615 
   26800    214.00435   -841.02784    135466.71    -41394.99     2662.621   -44057.611    19.750079   0.92194966 
   26900    212.13958   -1055.6023    135480.73   -41392.265    2639.4197   -44031.684    19.713253   0.92185431 
   27000    214.84803   -996.44238    135285.88   -41433.937    2673.1179   -44107.055    19.847748   0.92318198 
   27100    214.55746   -929.21872    135323.54   -41433.054    2669.5027   -44102.557    19.776518   0.92292507 
   27200     215.5225   -871.40986    135369.66   -41443.331    2681.5096   -44124.841    19.849945   0.92261069 
   27300    211.68859   -1047.6407    135326.84   -41472.054    2633.8085   -44105.862     20.00691   0.92290258 
   27400    214.49153   -1012.5699    135282.72   -41406.803    2668.6824   -44075.485    19.993162   0.92320361 
   27500    215.08677   -967.72775    135268.34   -41353.828    2676.0884   -44029.916     19.96302   0.92330174 
   27600    213.94133   -790.61245     135285.7   -41394.374    2661.8369   -44056.211    19.873908   0.92318322 
   27700    214.26539   -1027.9499    135394.04   -41395.047    2665.8688   -44060.916    19.878809    0.9224445 
   27800    220.98352   -823.82798     135359.3   -41332.772    2749.4551   -44082.227    19.914768   0.92268126 
   27900    216.59234   -761.40046    135539.53   -41358.577    2694.8204   -44053.398     20.01362   0.92145435 
   28000    213.10839   -911.93431    135589.69   -41394.557    2651.4735   -44046.031    20.144385   0.92111351 
   28100     216.7626   -945.04631     135463.8   -41381.673    2696.9389   -44078.612    20.064388   0.92196946 
   28200    217.35573   -970.37372    135489.55   -41418.887    2704.3185   -44123.206    20.101352   0.92179429 
   28300    218.59238   -1016.1838    135682.27    -41414.05    2719.7048   -44133.754    20.211906   0.92048498 
   28400    210.79484   -970.99481       135656   -41444.151    2622.6886   -44066.839    20.164029   0.92066326 
   28500    214.12023   -1023.0169    135562.28   -41469.665    2664.0627   -44133.728    20.187919   0.92129972 
   28600    216.35577   -965.50902    135619.11   -41422.034    2691.8771   -44113.911    20.118171   0.92091363 
   28700    211.24069   -1032.4066    135565.62   -41429.182    2628.2358   -44057.418    20.257318   0.92127699 
   28800    216.30543   -946.83375    135699.16   -41383.444    2691.2508   -44074.694    20.268301   0.92037039 
   28900    215.70226    -804.3229     135723.5   -41342.516    2683.7462   -44026.262    20.451231   0.92020533 
   29000    212.37504   -938.71492    135784.71   -41415.877    2642.3492   -44058.226    20.355643   0.91979051 
   29100    213.22258   -904.68855    135795.21   -41359.518    2652.8943   -44012.413    20.221261   0.91971938 
   29200    216.17844    -1027.294    135673.83   -41338.703    2689.6708   -44028.374    20.301466   0.92054221 
   29300    213.81543   -922.50045    135854.13   -41388.443    2660.2704   -44048.714    20.387471   0.91932055 
   29400    213.80104   -900.60576     135703.8   -41439.835    2660.0915   -44099.927     20.42819   0.92033892 
   29500     212.3409   -979.66333     135686.8   -41472.649    2641.9245   -44114.574    20.435251   0.92045423 
   29600     218.0429   -991.98485    135916.86   -41390.761    2712.8682   -44103.629     20.54342   0.91889625 
   29700    214.08666    -872.7135    136006.98   -41436.047     2663.645   -44099.692    20.511772   0.91828738 
   29800    210.33017   -983.16406    135859.33   -41412.824    2616.9072   -44029.731    20.538677   0.91928533 
   29900    213.88948   -892.36327     136004.4   -41436.398    2661.1918    -44097.59    20.688274   0.91830479 
   30000    215.55119   -855.84021    135862.61   -41423.128    2681.8666   -44104.995    20.625489   0.91926315 
   30100    210.39242   -1035.1762    135714.17    -41424.67    2617.6817   -44042.351    20.611561    0.9202686 
   30200    212.03168   -1022.5342    135815.61   -41438.061    2638.0772   -44076.138    20.617754    0.9195813 
   30300    215.11114   -891.65466    135775.99   -41418.103    2676.3916   -44094.494    20.820261   0.91984961 
   30400    214.46564   -901.58483    135927.31   -41392.824    2668.3603   -44061.185    20.849704   0.91882558 
   30500    212.61268   -975.94918    135939.17   -41395.724    2645.3059    -44041.03    20.830608   0.91874544 
   30600    217.58552   -827.92698    135840.95   -41393.422    2707.1775     -44100.6    20.862205    0.9194097 
   30700    216.69287   -989.91195    135864.25   -41411.727    2696.0713   -44107.798    20.849872   0.91925208 
   30800    217.86381   -879.35061    135806.07   -41353.758      2710.64   -44064.398    20.934661   0.91964588 
   30900    211.47371   -1002.5391    135913.83   -41467.775     2631.135    -44098.91    21.078069    0.9189167 
   31000    211.00289   -996.65946    135820.27   -41499.939    2625.2771   -44125.216    21.084666   0.91954975 
   31100    211.78591   -829.34835    135914.47   -41496.884    2635.0193   -44131.903    21.050532   0.91891243 
   31200    211.83996   -1003.8648    135858.17   -41495.467    2635.6918   -44131.158    21.083668   0.91929321 
   31300    213.30664   -905.82492    135959.53   -41446.007    2653.9401   -44099.947    21.076134   0.91860787 
   31400    209.51351   -1048.0622    135714.04   -41405.083    2606.7464    -44011.83    21.092889   0.92026947 
   31500    213.69098   -955.37936    135720.19   -41441.397     2658.722   -44100.119    21.309522   0.92022779 
   31600    217.42225   -990.02815     135840.7   -41371.246    2705.1462   -44076.392    21.390315   0.91941142 
   31700    216.42927   -921.26907    135916.96   -41408.457    2692.7916   -44101.249    21.365401   0.91889558 
   31800     216.0502    -991.3783    135915.37   -41357.387    2688.0752   -44045.462    21.299834   0.91890628 
   31900     215.8613   -1063.1067    135878.72   -41339.479     2685.725   -44025.204    21.219806   0.91915415 
   32000    216.17195    -977.9178    135851.06   -41342.265      2689.59   -44031.855    21.350452    0.9193413 
   32100    217.56044   -964.92707    135795.05   -41363.908    2706.8655   -44070.774    21.406877   0.91972052 
   32200     216.7781   -929.74767    135848.16   -41357.324    2697.1317   -44054.456     21.41254   0.91936091 
   32300    216.00905   -883.46194     135846.6   -41344.048    2687.5633   -44031.612    21.433502   0.91937149 
   32400    215.59442   -975.32436    135670.38   -41413.006    2682.4044    -44095.41     21.40793   0.92056563 
   32500    215.21807   -838.35057    135712.05   -41414.854     2677.722   -44092.576    21.332074   0.92028297 
   32600    218.62137   -908.09877    135817.97   -41362.248    2720.0655   -44082.313    21.260371    0.9195653 
   32700    214.77669   -1009.1894    135941.59   -41435.708    2672.2304   -44107.938    21.403685   0.91872907 
   32800    214.09606   -1076.1848    135794.61   -41472.453    2663.7621   -44136.215    21.491541   0.91972349 
   32900    212.63074   -933.67475    135904.29   -41466.177    2645.5306   -44111.708     21.60119   0.91898125 
   33000    212.56112   -902.10543    135852.46   -41517.072    2644.6645   -44161.737    21.522999   0.91933185 
   33100    214.51076   -942.71009    135875.06    -41447.05    2668.9217   -44115.972     21.53212    0.9191789 
   33200    214.17104   -817.65864     135720.4   -41490.957    2664.6949   -44155.652    21.491136   0.92022635 
   33300    215.27259   -884.38574    135992.54    -41424.41    2678.4003    -44102.81    21.653573   0.91838485 
   33400    213.71642   -841.24023    136057.95   -41515.288    2659.0385   -44174.327    21.617786   0.91794336 
   33500    215.03225   -983.00481    135922.02   -41484.052      2675.41   -44159.462    21.569589   0.91886134 
   33600    215.04068   -1000.0227    135905.64   -41451.839    2675.5149   -44127.354    21.653509   0.91897213 
   33700    213.96567    -894.4599    135960.31   -41447.094    2662.1398   -44109.234    21.827239   0.91860254 
   33800    217.68608   -864.73997    136093.17    -41452.26    2708.4287   -44160.689    21.803113   0.91770582 
   33900    215.31807   -837.18304    136094.77   -41463.059    2678.9662   -44142.025    21.704497   0.91769504 
   34000    214.01173   -854.03267       136125   -41424.454    2662.7128   -44087.166    21.797993   0.91749119 
   34100    215.26755   -959.98168    136200.55   -41455.502    2678.3375    -44133.84     21.83274   0.91698226 
   34200    213.35982   -1036.8665    136007.61   -41473.205    2654.6017   -44127.807    21.847831   0.91828314 
   34300    213.58413   -870.36201    136070.91    -41521.38    2657.3926   -44178.773    21.891052   0.91785591 
   34400    216.52656   -884.49224    136115.43   -41457.257     2694.002   -44151.259    21.789855   0.91755571 
   34500    212.21315   -989.25029    135948.19    -41482.72     2640.335   -44123.055    21.775691   0.91868447 
   34600    217.80633   -966.33012    135852.86   -41472.792    2709.9249   -44182.717    21.973703   0.91932913 
   34700    209.74482   -984.98941     135924.1   -41543.971    2609.6244   -44153.595    22.097602   0.91884731 
   34800    212.21954   -874.40568    135952.13   -41522.799    2640.4146   -44163.213    22.169042   0.91865785 
   34900    210.55869   -904.48431    135885.85   -41535.376    2619.7504   -44155.126    22.072698   0.91910592 
   35000    211.03092   -984.56506    135855.07   -41610.989    2625.6259   -44236.615     22.00525   0.91931417 
   35100    212.94995   -855.57552    136007.94   -41531.764    2649.5022   -44181.266    22.173621   0.91828091 
   35200    215.22064   -1005.8143    135829.38   -41543.159     2677.754   -44220.913    22.156179   0.91948802 
   35300    215.55593   -876.91042    136053.98   -41526.116    2681.9256   -44208.042     22.20028   0.91797013 
   35400    213.16734   -991.27687    135976.42   -41548.805    2652.2069   -44201.012    22.148139   0.91849372 
   35500    218.19695   -954.68486    135935.23   -41453.708    2714.7849   -44168.493    22.169482   0.91877208 
   35600    214.09648    -1023.753    135985.72   -41508.113    2663.7672    -44171.88    22.201654   0.91843091 
   35700    214.02741   -977.80162     135839.1   -41474.506    2662.9079   -44137.414    22.324509   0.91942226 
   35800    215.73233   -859.50694    135935.93   -41517.117    2684.1203   -44201.237    22.281775   0.91876735 
   35900    219.28625   -833.26033    135957.58   -41472.347    2728.3379   -44200.684    22.157511   0.91862104 
   36000    217.48507   -968.56188    136043.67   -41435.475    2705.9278   -44141.403    22.196753   0.91803973 
   36100    218.32831   -880.09496    135986.76   -41458.964    2716.4193   -44175.383    22.480587    0.9184239 
   36200    217.54951   -917.59344    135962.25   -41496.544    2706.7295   -44203.273    22.341808   0.91858948 
   36300     214.3039   -830.39719    136026.89   -41544.683    2666.3479   -44211.031    22.345923   0.91815299 
   36400    216.31429   -1012.0236    135990.61   -41477.292     2691.361   -44168.653    22.380369    0.9183979 
   36500    216.09257   -930.30475    136017.96   -41455.642    2688.6024   -44144.245    22.447674   0.91821323 
   36600    207.00558   -1020.8847     136024.6   -41572.385    2575.5429   -44147.928    22.540325    0.9181684 
   36700    214.67637   -977.04302    136025.79   -41514.669    2670.9822   -44185.651    22.557445    0.9181604 
   36800    216.36676   -848.18008    136017.96   -41506.863    2692.0139   -44198.877    22.467906   0.91821322 
   36900    211.07718   -972.82052    135976.47   -41527.336    2626.2014   -44153.537    22.485987   0.91849338 
   37000     216.6554   -885.36781    136000.02   -41463.992     2695.605   -44159.597    22.569416   0.91833435 
   37100     211.1648   -941.67076    135896.03   -41448.847    2627.2916   -44076.139    22.539008   0.91903708 
   37200    215.97346   -1091.6642    135912.44   -41500.008    2687.1204   -44187.128     22.51953    0.9189261 
   37300    210.61257   -796.77975    135996.51   -41517.669    2620.4207   -44138.089    22.460079   0.91835804 
   37400    211.70647   -880.17652    136113.89   -41555.279     2634.031    -44189.31    22.722735   0.91756607 
   37500    214.59113   -971.59975     135969.6   -41563.175    2669.9216   -44233.097    22.624797   0.91853984 
   37600    215.32338   -855.71791    135892.16   -41513.883    2679.0323   -44192.915    22.709893   0.91906327 
   37700    213.71562   -939.11128    136116.82   -41522.172    2659.0286   -44181.201    22.714038   0.91754638 
   37800    209.67521   -951.23592    136040.08   -41627.764    2608.7582   -44236.522    22.657614   0.91806392 
   37900    214.12351   -1098.2338    136052.36   -41598.634    2664.1035   -44262.737    22.693607   0.91798107 
   38000    213.44813   -874.81696    136109.06   -41567.384    2655.7005   -44223.084    22.748286   0.91759864 
   38100    213.88805   -961.60399    136222.52   -41525.557    2661.1739   -44186.731    22.688335   0.91683441 
   38200    212.11444   -919.10297    136121.43   -41545.861    2639.1069   -44184.968    22.744546   0.91751526 
   38300    216.92609   -960.04811    135941.96   -41481.465     2698.973   -44180.438    22.643666   0.91872656 
   38400    213.79684   -915.29428    136032.75   -41534.909    2660.0392   -44194.948    22.625242   0.91811339 
   38500    213.84066   -854.48294    135906.72   -41551.601    2660.5843   -44212.185    22.872515   0.91896482 
   38600    213.36992   -1099.6385    136106.49    -41501.73    2654.7275   -44156.458    22.962586   0.91761596 
   38700    215.34146   -887.39691    136072.35   -41501.681    2679.2571   -44180.938    22.965272   0.91784624 
   38800    213.70107   -710.41146    136151.11   -41534.777    2658.8476   -44193.625    22.862031   0.91731526 
   38900    212.18851   -1068.8913    136140.16   -41487.008    2640.0285   -44127.036     22.90346   0.91738904 
   39000    214.31778   -832.74857    136025.31   -41514.744    2666.5206   -44181.265    23.026431   0.91816361 
   39100    215.68569   -1041.8323    136114.57   -41473.261      2683.54   -44156.801     22.95772   0.91756153 
   39200     209.4046   -938.53782    136162.94   -41495.809    2605.3913     -44101.2    22.979684   0.91723558 
   39300    216.19668   -820.18849    136144.94   -41494.789    2689.8977   -44184.687    23.042146   0.91735683 
   39400    214.96798   -898.23983    136240.89   -41466.935    2674.6104   -44141.546    23.083828   0.91671076 
   39500    215.83961   -1004.4286    136237.92   -41449.749    2685.4551   -44135.204    22.912481   0.91673075 
   39600    215.04289   -901.25444    136318.62   -41508.737    2675.5423   -44184.279    23.055906   0.91618808 
   39700    219.41923   -1057.2264    136200.74   -41468.049    2729.9924   -44198.041    23.123439   0.91698101 
   39800    213.67614   -983.63446    136063.91   -41527.834    2658.5374   -44186.372    23.020043   0.91790317 
   39900    215.43462   -963.69612    136165.67    -41565.93    2680.4163   -44246.346    23.064749   0.91721715 
   40000    210.22239   -1011.4696    136297.74   -41598.855    2615.5661   -44214.421       23.128   0.91632838 
   40100    218.26249   -963.66902    136264.65   -41497.833    2715.6003   -44213.434    23.239651   0.91655093 
   40200    214.94649   -891.29439    136238.02   -41513.336    2674.3429   -44187.679    23.253111   0.91673006 
   40300    215.22401   -1082.1482    136192.02   -41500.779    2677.7958   -44178.575    23.104111   0.91703972 
   40400    219.19471   -1022.8989    136396.66   -41412.467     2727.199   -44139.666    23.112636   0.91566385 
   40500    217.47205   -988.72646    136342.79   -41434.546    2705.7657   -44140.312    23.063779   0.91602565 
   40600    213.81108    -867.7637    136223.59   -41461.501    2660.2163   -44121.717    23.129821   0.91682716 
   40700    216.41724   -979.08605    136310.82   -41498.165     2692.642   -44190.807    23.282165   0.91624046 
   40800    217.44611   -885.52325    136308.42   -41546.017     2705.443    -44251.46    23.297824    0.9162566 
   40900    211.78487   -937.70978    136236.68   -41571.903    2635.0064   -44206.909    23.289822   0.91673907 
   41000    215.75729   -920.49068    136325.77   -41484.667    2684.4309   -44169.098    23.465126   0.91613997 
   41100    216.09799   -871.98609    136377.54   -41461.121    2688.6698   -44149.791    23.502656   0.91579224 
   41200    219.50643   -1080.7019    136423.02   -41483.073    2731.0773   -44214.151    23.544984   0.91548692 
   41300    208.33028   -1070.6127    136151.37   -41642.785    2592.0248    -44234.81    23.491135   0.91731354 
   41400    214.78069   -995.53281    136266.87   -41600.538    2672.2801   -44272.818    23.487692   0.91653602 
   41500     211.0834   -904.87671    136331.45   -41604.182    2626.2788   -44230.461    23.502947   0.91610183 
   41600    215.62369   -939.97729    136324.35   -41571.491    2682.7686    -44254.26    23.501121   0.91614955 
   41700    215.47121   -887.14671     136338.1   -41552.466    2680.8715   -44233.338    23.489515   0.91605713 
   41800    209.95532   -1011.0364     136394.1   -41575.455    2612.2434   -44187.698    23.397976   0.91568107 
   41900    215.94665   -967.35336    136438.08   -41549.004    2686.7869    -44235.79    23.335542   0.91538588 
   42000    217.44669   -1109.5083    136314.36   -41545.055    2705.4503   -44250.505     23.50519    0.9162167 
   42100    214.27058   -1110.3031    136250.04   -41543.684    2665.9333   -44209.617    23.482299   0.91664922 
   42200    216.39896   -863.68685    136100.23   -41500.748    2692.4145   -44193.163    23.395456   0.91765821 
   42300    215.28454   -862.82616    136029.58   -41477.083    2678.5489   -44155.632    23.390151   0.91813478 
   42400    213.59281   -982.45818    136123.61   -41512.114    2657.5006   -44169.614    23.506124   0.91750057 
   42500    219.53815   -889.20205    136230.68    -41518.09    2731.4719   -44249.562    23.566654   0.91677949 
   42600    215.62196   -912.90294    136416.64   -41522.299    2682.7471   -44205.046    23.692044   0.91552975 
   42700    216.25876   -1010.2005     136302.7   -41541.512    2690.6701   -44232.182     23.66749   0.91629505 
   42800    220.11138   -959.55445    136260.67   -41494.422     2738.604   -44233.026    23.583882   0.91657771 
   42900    214.11523   -1079.6339    136235.95   -41559.401    2664.0006   -44223.401    23.629426   0.91674403 
   43000    212.57353   -927.03169    136291.45    -41578.86    2644.8188   -44223.678    23.517471   0.91637068 
   43100    217.50815   -1025.1306    136241.84   -41560.195    2706.2149    -44266.41    23.539109   0.91670437 
   43200    220.01576   -822.96356    136200.91   -41522.843    2737.4144   -44260.258    23.662485   0.91697986 
   43300    215.46567   -932.12952    136196.13   -41528.791    2680.8026   -44209.594    23.578527   0.91701205 
   43400    217.19279    -1044.385    136206.45   -41479.885    2702.2913   -44182.176    23.710515   0.91694257 
   43500    219.45444    -851.1415     136277.5   -41491.471    2730.4304   -44221.901    23.696613   0.91646447 
   43600    216.96157   -995.31319    136168.62   -41398.414    2699.4145   -44097.829     23.75711   0.91719728 
   43700     219.1352   -916.16875    136030.43   -41433.946    2726.4585   -44160.404    23.728147   0.91812907 
   43800    218.12003    -967.8677    136090.57   -41445.195    2713.8278   -44159.022    23.721309   0.91772333 
   43900    218.63816    -942.1045    136071.82   -41491.446    2720.2744   -44211.721    23.798367   0.91784978 
   44000    216.64882   -850.67038    136098.06   -41519.095    2695.5232   -44214.618    23.870364   0.91767285 
   44100    215.89416   -879.92102    136026.66   -41536.338    2686.1338   -44222.472    23.827454   0.91815453 
   44200    211.84774   -912.46128    136111.97   -41564.664    2635.7887   -44200.453    23.801542   0.91757902 
   44300    215.30681   -869.03548    136232.17   -41564.473    2678.8261   -44243.299    23.758547   0.91676947 
   44400    217.20319   -913.19343    136199.34    -41525.95    2702.4206    -44228.37    23.860152   0.91699043 
   44500    213.84109    -1059.584    136235.85   -41546.215    2660.5897   -44206.805     23.91997   0.91674467 
   44600    209.75378   -997.62121    136246.93   -41599.742    2609.7358   -44209.477    23.996487   0.91667014 
   44700    215.68484   -916.66292    136175.24   -41580.502    2683.5295   -44264.031    23.808184    0.9171527 
   44800    211.98907   -977.29171    136156.34   -41551.274     2637.547   -44188.821    23.780531   0.91728006 
   44900    216.53134   -1075.7748    136118.47   -41508.653    2694.0615   -44202.715    23.828624   0.91753526 
   45000    216.02054    -1033.669    136217.89   -41517.484    2687.7062    -44205.19    23.978791   0.91686554 
   45100    217.36909   -947.59014    136137.28   -41472.006    2704.4847    -44176.49    23.914398   0.91740844 
   45200    214.59646   -952.92743    136046.39   -41537.441     2669.988   -44207.429    23.831959   0.91802132 
   45300     215.5712   -982.32407    135929.59   -41553.116    2682.1155   -44235.232    23.857483    0.9188102 
   45400    215.96688   -919.32543    135987.03   -41530.493    2687.0386   -44217.532    24.100764   0.91842208 
   45500    214.01091   -911.99859    135947.56   -41543.073    2662.7026   -44205.776    24.075262    0.9186887 
   45600     217.6183   -1013.2647    135969.17   -41538.281    2707.5854   -44245.866    24.032242   0.91854273 
   45700    215.45725   -1040.8914    136179.99   -41550.027    2680.6978   -44230.724    24.099724   0.91712073 
   45800    217.61867   -984.01232    136182.48   -41508.047      2707.59   -44215.637     24.17022   0.91710396 
   45900    219.22329   -1060.5551    136121.21   -41460.079    2727.5545   -44187.633    24.085804   0.91751678 
   46000    218.05187   -977.60926    136011.27   -41446.861    2712.9798    -44159.84    24.055657    0.9182584 
   46100    220.28381   -1029.4446    136026.26    -41408.37    2740.7494    -44149.12    23.956449   0.91815719 
   46200    221.15502   -957.54617    136090.44   -41399.704    2751.5889   -44151.293    24.056698   0.91772417 
   46300     219.5704    -893.5543    136066.53    -41413.58    2731.8733   -44145.453    24.221663   0.91788548 
   46400    218.55957   -872.82044    135991.08   -41450.713    2719.2965    -44170.01    24.328929   0.91839473 
   46500    219.28927   -924.00896    135960.52   -41467.441    2728.3754   -44195.817     24.32178   0.91860117 
   46600    220.51461   -883.70281    136087.09   -41451.391     2743.621   -44195.012    24.167243   0.91774682 
   46700    215.18053   -1047.9146    136158.03   -41536.248    2677.2549   -44213.503    24.173385   0.91726867 
   46800    217.11018   -1029.8503    136211.81   -41578.523    2701.2634   -44279.786    24.347923   0.91690646 
   46900    222.10698   -847.36082    136084.68   -41509.343    2763.4331   -44272.776    24.418331   0.91776304 
   47000    214.38671   -940.33215     136101.5   -41484.392    2667.3782    -44151.77    24.195676   0.91764963 
   47100    216.62427   -961.42189    136095.43   -41462.398    2695.2178   -44157.616    24.341173   0.91769056 
   47200    215.08634   -936.62615    136121.12   -41520.859     2676.083   -44196.942    24.268815   0.91751736 
   47300    214.83651   -951.08782    136114.68    -41551.94    2672.9747   -44224.915    24.342739   0.91756078 
   47400    219.87886   -876.52023    136146.45   -41514.018     2735.711   -44249.729    24.219124   0.91734664 
   47500    216.38719   -916.67793    136060.25   -41453.105     2692.268   -44145.373     24.20706   0.91792785 
   47600    222.71276   -849.28653    136114.99   -41428.905    2770.9701   -44199.875    24.321866   0.91755871 
   47700    214.49316   -1016.7037    136089.46   -41479.677    2668.7026    -44148.38    24.365798   0.91773078 
   47800    214.78795   -957.51314    136127.66   -41479.019    2672.3704   -44151.389    24.229936   0.91747328 
   47900    216.91493   -941.79511    136248.71   -41571.285    2698.8341   -44270.119    24.155674   0.91665815 
   48000    212.34279   -932.92817    136085.68   -41593.121     2641.948   -44235.069    24.122704   0.91775632 
   48100     214.4007   -1009.9623    136065.82   -41559.073    2667.5523   -44226.626    24.172421   0.91789025 
   48200    212.47516   -978.36973    136106.08   -41580.259    2643.5949   -44223.854     24.22372   0.91761877 
   48300    216.42497   -912.33136    136129.16   -41570.784    2692.7381   -44263.522     24.20506    0.9174632 
   48400     218.6322   -901.30134    136264.88   -41486.292    2720.2003   -44206.492    24.416856   0.91654938 
   48500    213.69015   -981.73586    136231.01   -41550.076    2658.7117   -44208.788     24.21011   0.91677723 
   48600    215.47755   -936.50433    136163.19   -41558.759    2680.9504   -44239.709    24.264882   0.91723389 
   48700    216.40349   -892.04321    136156.65   -41527.985    2692.4708   -44220.455    24.318815   0.91727794 
   48800    215.89501   -1057.1792    136209.06   -41551.253    2686.1444   -44237.397    24.303566   0.91692501 
   48900    213.86196   -976.84792    136236.62   -41552.787    2660.8493   -44213.637     24.38368   0.91673953 
   49000    211.79279    -1013.659    136309.97   -41579.873    2635.1049   -44214.978    24.514042   0.91624621 
   49100    218.57007   -838.40006    136279.38   -41585.664    2719.4271   -44305.091    24.329812   0.91645184 
   49200    212.64258   -1075.1694    136302.85   -41601.749    2645.6779   -44247.427    24.344539   0.91629407 
   49300    216.13352   -1015.0467    136356.68   -41542.326    2689.1119   -44231.437    24.323164   0.91593233 
   49400     213.4137    -1048.104     136268.3   -41524.672    2655.2721   -44179.944    24.396023   0.91652637 
   49500    221.85188    -900.1023    136240.04   -41534.482    2760.2592   -44294.741     24.27212   0.91671652 
   49600    213.45089   -994.24664    136158.17   -41531.837    2655.7349   -44187.572    24.361511   0.91726772 
   49700    215.46917   -945.91644    136192.85   -41546.137    2680.8461   -44226.983    24.410814   0.91703411 
   49800    217.87413   -884.32972    136356.01   -41596.395    2710.7684   -44307.163    24.423133    0.9159368 
   49900     221.7603   -905.20582    136346.22   -41487.438    2759.1198   -44246.558    24.473181    0.9160026 
   50000    218.70367   -863.86066    136613.86   -41526.273    2721.0894   -44247.362    24.544463   0.91420803 
   50100    214.80783   -1143.0792    136435.87   -41540.978    2672.6178   -44213.596    24.667706   0.91540068 
   50200    213.28469   -938.06659    136310.99   -41591.529     2653.667   -44245.196    24.515378   0.91623931 
   50300    218.93264   -872.41808    136294.38   -41566.978    2723.9383   -44290.916    24.460009   0.91635101 
   50400    213.87589   -883.99943    136232.96    -41588.51    2661.0227   -44249.533    24.525418   0.91676415 
   50500    214.92232   -887.53904    136185.62   -41621.762    2674.0422   -44295.804    24.490438    0.9170828 
   50600     213.8547   -959.18442    136276.57    -41632.55     2660.759   -44293.309    24.413191   0.91647076 
   50700    213.28056   -977.03986    136144.81    -41642.35    2653.6156   -44295.966    24.412647   0.91735771 
   50800    214.90203   -886.56843    136248.27   -41639.222    2673.7898   -44313.011    24.416692   0.91666109 
   50900    214.57413   -1136.5229    136062.18   -41549.605    2669.7102   -44219.315    24.435308   0.91791483 
   51000    209.69546   -881.05879    136004.04   -41564.177    2609.0101   -44173.187    24.469388   0.91830722 
   51100    213.07095   -918.40003    136108.28   -41592.762    2651.0078    -44243.77    24.553371   0.91760389 
   51200    215.18122   -1072.9624    136148.19    -41566.72    2677.2635   -44243.984     24.58512   0.91733497 
   51300    210.91209   -981.38541    136163.65   -41630.156    2624.1474   -44254.304    24.642715   0.91723081 
   51400    210.37658    -937.8282    136199.91   -41626.236    2617.4846   -44243.721    24.326353   0.91698662 
   51500    210.30667   -980.99184    136198.78   -41626.703    2616.6148   -44243.318    24.300111   0.91699419 
   51600     214.1772   -964.40956    136192.66   -41575.288    2664.7715    -44240.06    24.495469   0.91703539 
   51700    214.65039   -933.99615    136362.72   -41566.831     2670.659    -44237.49    24.629083   0.91589175 
   51800    213.56208   -977.67903    136418.07   -41614.942    2657.1183    -44272.06    24.757931   0.91552018 
   51900    210.81116   -975.01844    136139.66   -41661.566    2622.8916   -44284.457    24.570203   0.91739242 
   52000    209.88598   -1010.0275    136168.36   -41684.102    2611.3806   -44295.483    24.557388   0.91719908 
   52100    211.02614   -1110.1565    136034.08   -41626.612    2625.5664   -44252.178    24.577061   0.91810442 
   52200    214.27227   -989.43679    135959.57   -41639.561    2665.9544   -44305.515    24.684501   0.91860756 
   52300    213.41996   -934.69805    136104.66   -41613.043      2655.35   -44268.393    24.683518   0.91762829 
   52400    211.22621   -996.18494    136014.31   -41555.094    2628.0556    -44183.15    24.582382    0.9182379 
   52500    215.07308   -934.18571       136048   -41543.372     2675.918    -44219.29    24.816309   0.91801049 
   52600    214.20285   -941.23829    136115.73   -41558.632    2665.0907   -44223.722    24.666581   0.91755367 
   52700    213.03894   -938.65686    136049.13   -41575.939    2650.6094   -44226.548     24.71712   0.91800283 
   52800    217.26168   -974.25604    136099.73   -41529.431    2703.1483    -44232.58    24.871475   0.91766159 
   52900    219.42715   -883.20065    136086.53   -41525.468    2730.0909   -44255.559    24.897078   0.91775055 
   53000    213.19115   -1095.4833    135967.18   -41501.847    2652.5033   -44154.351    24.905843   0.91855615 
   53100    218.28687   -878.05444     136107.5    -41546.77    2715.9036   -44262.674    24.908776    0.9176092 
   53200    214.43592   -923.31717    136209.14    -41533.66    2667.9906   -44201.651    24.892017   0.91692449 
   53300    216.79736   -996.31529    136248.74   -41526.541    2697.3713   -44223.912    25.024141   0.91665798 
   53400    213.66014   -1007.6383    136076.86   -41602.966    2658.3384   -44261.304    24.868361   0.91781581 
   53500    217.33377   -1021.1715    136073.11     -41612.3    2704.0453   -44316.345    24.846008   0.91784111 
   53600    212.72047   -944.34179    136006.98   -41613.181    2646.6471   -44259.829    24.900103   0.91828738 
   53700    210.13914   -934.56567    136084.17   -41638.779    2614.5304   -44253.309    25.088675   0.91776652 
   53800    216.53965   -886.50318    136000.55   -41510.789     2694.165   -44204.954    25.076143   0.91833076 
   53900    213.89176   -1049.0546     136061.7   -41559.393    2661.2201   -44220.613    25.239482   0.91791808 
   54000     215.5051   -851.47928    136027.51   -41525.267    2681.2931    -44206.56    25.241736   0.91814877 
   54100     212.0473   -888.30799    136082.57   -41540.372    2638.2716   -44178.644    25.116206    0.9177773 
   54200    215.19408   -962.02495    136322.37   -41517.817    2677.4234    -44195.24    25.180155   0.91616285 
   54300    214.54528   -1030.3045     136394.7   -41500.018    2669.3511   -44169.369    25.326946     0.915677 
   54400     214.5264   -979.87501    136293.36   -41536.371    2669.1162   -44205.488    25.392499   0.91635784 
   54500    213.23417   -851.14908    136318.89   -41534.935    2653.0385   -44187.973    25.261707   0.91618626 
   54600     221.1831   -968.40731    136299.51   -41447.519    2751.9383   -44199.457    25.330301   0.91631651 
   54700    218.64488   -933.75748    136374.02   -41466.202     2720.358    -44186.56    25.451614   0.91581584 
   54800    209.92193   -938.69665    136455.19   -41547.176    2611.8279   -44159.003     25.50633   0.91527111 
   54900    213.11097   -1008.2238     136370.8   -41582.933    2651.5056   -44234.439    25.410862   0.91583751 
   55000    211.51162   -864.15493    136482.65   -41640.647    2631.6066   -44272.253    25.439435   0.91508694 
   55100    214.20365   -973.43281    136371.15   -41606.422    2665.1007   -44271.523    25.377484   0.91583513 
   55200     214.5052   -923.04093    136414.74   -41614.673    2668.8524   -44283.525    25.504499    0.9155425 
   55300    213.13007   -957.69984    136461.92   -41568.813    2651.7432   -44220.556    25.530965   0.91522598 
   55400    215.21366   -954.38717    136375.88    -41550.17    2677.6671   -44227.837    25.532132   0.91580339 
   55500    215.28698   -999.06948    136356.34   -41493.593    2678.5794   -44172.172    25.544623   0.91593462 
   55600    214.07039   -1028.3473    136430.07   -41535.935    2663.4426   -44199.377    25.528318   0.91543962 
   55700    215.06559   -964.01139    136338.76   -41536.346    2675.8248   -44212.171    25.684376   0.91605274 
   55800     216.1634   -856.39593    136499.55   -41534.346    2689.4836   -44223.829    25.519181   0.91497363 
   55900    218.33275   -843.49899    136546.01   -41505.511    2716.4745   -44221.986    25.500482    0.9146623 
   56000    220.80736   -818.49316    136600.18   -41510.091    2747.2633   -44257.355    25.704986   0.91429961 
   56100    213.38117   -1036.9535    136630.95   -41490.275    2654.8674   -44145.142    25.764691   0.91409374 
   56200    221.62598   -996.60307    136598.67   -41506.825    2757.4485   -44264.273    25.740811    0.9143097 
   56300    215.86865   -985.66829    136468.58   -41532.411    2685.8164   -44218.227    25.660616   0.91518132 
   56400    214.21405   -979.58108    136413.88   -41509.602    2665.2301   -44174.832    25.808701   0.91554828 
   56500      210.657   -925.13109    136439.54   -41590.346    2620.9735    -44211.32    25.888988    0.9153761 
   56600    213.27144   -925.70017    136424.02   -41595.764    2653.5021   -44249.266    25.788907   0.91548022 
   56700    213.45341   -938.69724    136375.15   -41626.976    2655.7662   -44282.742    25.717933    0.9158083 
   56800    214.28921   -1033.9368    136244.38   -41565.566    2666.1652   -44231.731    25.675092   0.91668728 
   56900    218.23217   -900.52438    136355.36   -41561.479    2715.2231   -44276.702    25.766996   0.91594123 
   57000    217.78385   -854.68147    136460.73    -41516.36    2709.6452   -44226.006    25.733303   0.91523393 
   57100    213.93757   -1047.7813    136432.83   -41583.847    2661.7901   -44245.637    25.773656   0.91542107 
   57200    213.55928   -959.37576     136511.5   -41634.954    2657.0835   -44292.037    25.861914   0.91489355 
   57300    209.50553   -957.60912    136529.68   -41680.271    2606.6471   -44286.918    25.968438   0.91477171 
   57400     212.6898   -940.96943    136594.76    -41696.56    2646.2655   -44342.825    25.989598   0.91433588 
   57500    210.77545   -872.84588    136607.01   -41742.033    2622.4473    -44364.48    26.082177   0.91425392 
   57600    211.92164   -1017.2711    136654.72   -41693.463    2636.7081   -44330.171    26.086208   0.91393468 
   57700    210.02081    -1078.926    136478.27   -41740.136    2613.0581   -44353.194     26.06863   0.91511629 
   57800    211.98846   -842.60917    136464.47   -41761.816    2637.5395   -44399.356    26.210139   0.91520884 
   57900    211.49191   -1037.0723    136458.84   -41718.776    2631.3614   -44350.137    26.184337   0.91524662 
   58000     212.5203   -958.77268    136422.64   -41714.816    2644.1565   -44358.972    26.178598   0.91548946 
   58100    210.04914   -1022.8792    136449.05   -41648.315    2613.4106   -44261.726    26.197939   0.91531229 
   58200    218.19145   -982.38674    136463.98    -41597.82    2714.7164   -44312.536    26.147696   0.91521216 
   58300    218.57547   -862.13479    136395.89   -41540.591    2719.4944   -44260.085    26.264517   0.91566904 
   58400    217.48902   -906.98757    136336.14   -41543.062    2705.9769   -44249.039    26.296113   0.91607035 
   58500    217.76777   -996.02481    136259.47   -41546.156    2709.4451   -44255.601    26.214536   0.91658574 
   58600    216.61414   -924.16459    136300.03   -41506.356    2695.0917   -44201.448    26.112918   0.91631299 
   58700    221.24084   -927.36123       136439   -41514.132    2752.6566   -44266.789    26.248888    0.9153797 
   58800     213.1917   -938.94799    136273.97   -41563.903      2652.51   -44216.413    26.385688   0.91648823 
   58900    215.25115   -1007.0724    136245.09   -41593.218    2678.1336   -44271.351    26.415747    0.9166825 
   59000     217.4231   -954.23903    136340.49   -41575.999    2705.1568   -44281.156     26.35742   0.91604109 
   59100    214.92726   -906.22352    136412.66   -41577.436    2674.1038   -44251.539    26.410986   0.91555646 
   59200    216.98769   -1003.4011     136373.6   -41585.062    2699.7394   -44284.801    26.531973   0.91581868 
   59300    214.60704   -952.98523     136388.6   -41581.767    2670.1196   -44251.887    26.469804   0.91571794 
   59400    212.92776     -1006.39     136332.2   -41630.679    2649.2261   -44279.905     26.45788   0.91609679 
   59500    212.75211   -937.88502    136328.66   -41595.612    2647.0407   -44242.652    26.522521   0.91612057 
   59600    215.79597   -1029.7179    136279.15   -41576.601    2684.9122   -44261.513     26.41306    0.9164534 
   59700    212.06985     -1010.32    136237.86    -41601.77    2638.5521   -44240.322    26.565153   0.91673116 
   59800    213.13564   -993.87172    136170.52   -41598.716    2651.8126   -44250.528    26.655425   0.91718453 
   59900    216.50554    -904.7635    136182.78   -41570.102    2693.7405   -44263.843    26.617244   0.91710196 
   60000    210.59096   -896.64897    136263.25   -41607.425    2620.1519   -44227.577    26.566555   0.91656034 
   60100    218.27523   -864.19563    136357.57   -41570.234    2715.7588   -44285.992    26.887746   0.91592633 
   60200    214.74527   -909.43724    136499.85   -41555.937    2671.8394   -44227.777    26.825038    0.9149716 
   60300    214.80582   -1023.9356    136484.91   -41525.709    2672.5927   -44198.301    26.780589   0.91507176 
   60400    216.87426   -955.41505    136463.64   -41479.375    2698.3281   -44177.703    26.801945    0.9152144 
   60500    216.44314   -956.00798    136376.96   -41515.332    2692.9642   -44208.296    26.691374   0.91579613 
   60600    213.80452   -863.69586    136397.75   -41556.779    2660.1347   -44216.914    26.698751   0.91565652 
   60700    217.35611   -928.70923     136433.7   -41569.594    2704.3232   -44273.917    26.779286   0.91541523 
   60800    216.67852   -1004.6156    136203.03   -41531.837    2695.8928    -44227.73    26.691144   0.91696556 
   60900    216.15409   -900.38605    136289.25   -41523.405    2689.3678   -44212.772    26.775195   0.91638551 
   61000    214.45663   -987.17682    136280.74   -41564.721    2668.2482   -44232.969    26.840417   0.91644274 
   61100    212.79323    -881.5724    136255.92   -41602.993    2647.5524   -44250.545    26.917631   0.91660966 
   61200    210.37133   -908.14727    136400.09   -41598.296    2617.4192   -44215.715    26.920028   0.91564082 
   61300    212.58541   -875.47282    136539.64   -41586.108    2644.9666   -44231.074    27.031597   0.91470499 
   61400    212.10373   -924.87823    136489.58   -41625.589    2638.9737   -44264.563    27.027814    0.9150405 
   61500    212.28171   -1018.3979    136520.16   -41625.446    2641.1881   -44266.634    27.092268   0.91483554 
   61600    213.52892   -881.57985    136606.41   -41586.056    2656.7057   -44242.761    27.013035   0.91425791 
   61700    211.28178    -1014.021    136656.62   -41667.544     2628.747   -44296.291    27.043849     0.913922 
   61800    206.77754    -969.0345    136421.31    -41740.17    2572.7057   -44312.876    27.019728   0.91549837 
   61900    212.25524    -1043.191    136364.09   -41691.184    2640.8587   -44332.043    26.991328   0.91588252 
   62000    210.28741   -940.77597    136468.46   -41632.398    2616.3752   -44248.773    27.054939   0.91518212 
   62100    214.12682   -929.94514    136518.39   -41664.596    2664.1447   -44328.741     27.01598   0.91484737 
   62200    215.20954   -970.19106    136530.43    -41615.58    2677.6158   -44293.196     27.17039   0.91476672 
   62300    212.22339   -923.56695    136598.85   -41646.314    2640.4624   -44286.777    27.069727   0.91430851 
   62400    215.49842   -826.96385    136612.67   -41585.846      2681.21   -44267.056    27.095515     0.914216 
   62500    214.98664   -1098.1855    136728.98   -41603.642    2674.8425   -44278.484    27.083766   0.91343835 
   62600    212.79054    -1005.224    136563.98   -41602.691    2647.5189    -44250.21    27.042829   0.91454196 
   62700    214.96426   -1055.3033    136485.26   -41632.021    2674.5641   -44306.585    27.112116   0.91506944 
   62800    212.40632   -917.62608     136273.9   -41619.677    2642.7384   -44262.416    27.105041    0.9164887 
   62900    215.22275   -945.79476    136458.97   -41552.325    2677.7802   -44230.105    27.019114   0.91524576 
   63000    216.03184   -946.30786    136480.44   -41514.413    2687.8468   -44202.259    27.084073   0.91510179 
   63100    219.49588    -950.7882       136530   -41501.863    2730.9461   -44232.809    27.149602   0.91476956 
   63200    213.24093   -936.80114    136512.58   -41534.145    2653.1225   -44187.268    27.146189   0.91488634 
   63300    217.99329   -829.24415    136599.63   -41568.337     2712.251   -44280.588    27.214498    0.9143033 
   63400    219.73853   -1003.6134    136596.43   -41493.727    2733.9651   -44227.692    27.249642   0.91432469 
   63500    215.57597   -776.20562    136704.15   -41578.137    2682.1749   -44260.312    27.284677   0.91360427 
   63600    216.39681    -1026.655    136668.33   -41578.801    2692.3877   -44271.189    27.252503   0.91384369 
   63700    217.49802   -1056.5277    136486.34   -41593.999    2706.0889   -44300.088    27.293513   0.91506223 
   63800    212.50623   -995.88137    136370.57   -41693.816    2643.9816   -44337.798    27.148167   0.91583906 
   63900     212.4691   -768.79105    136523.47   -41673.845    2643.5195   -44317.365    27.338619   0.91481336 
   64000    214.19973   -1055.1973    136456.93    -41663.54    2665.0519   -44328.592      27.3235   0.91525944 
   64100    214.17248   -958.08592    136512.08   -41580.112    2664.7129   -44244.825    27.242457   0.91488964 
   64200    216.91027   -737.13717    136617.57   -41571.631    2698.7761   -44270.407    27.415979   0.91418325 
   64300    218.11692   -864.07275    136663.87   -41477.245    2713.7892   -44191.034    27.491975    0.9138735 
   64400    215.06387   -1049.2415    136451.69   -41505.587    2675.8034    -44181.39    27.465062   0.91529458 
   64500    219.24154   -969.45404    136529.71   -41505.968    2727.7816   -44233.749    27.457816   0.91477153 
   64600    216.47437   -1102.8543    136538.48   -41565.393    2693.3527   -44258.746    27.512844   0.91471279 
   64700     215.2534    -826.8183    136448.98   -41589.431    2678.1615   -44267.592     27.36683   0.91531274 
   64800    212.48562    -938.7381    136588.95   -41613.139     2643.725   -44256.864    27.416438   0.91437476 
   64900    215.69572   -763.78769    136546.86    -41604.39    2683.6649   -44288.055    27.611897   0.91465663 
   65000    219.30567   -961.95601    136605.96   -41581.921    2728.5794     -44310.5    27.567371   0.91426092 
   65100    213.85493   -994.11369    136719.19   -41607.857    2660.7619   -44268.618    27.548593   0.91350375 
   65200    220.30766   -984.96267    136594.94   -41600.367    2741.0461   -44341.413    27.406996   0.91433466 
   65300    218.63163   -903.29787    136585.78    -41611.42    2720.1931   -44331.613    27.480927   0.91439598 
   65400    218.97926   -842.05644    136908.02   -41546.161    2724.5183   -44270.679    27.579683   0.91224377 
   65500    215.71623   -999.45903    136725.59   -41614.875      2683.92   -44298.795    27.583108   0.91346097 
   65600    212.59131   -945.75407    136699.67   -41646.758      2645.04   -44291.798    27.585203   0.91363417 
   65700    214.07526   -859.28606    136784.93   -41690.035    2663.5032   -44353.539    27.506789   0.91306467 
   65800    214.10656   -941.11105    136682.01   -41694.478    2663.8927   -44358.371    27.549286   0.91375221 
   65900    213.51938   -1008.1043    136660.04   -41656.917     2656.587   -44313.504     27.56258   0.91389914 
   66000    213.73653   -910.44772    136856.49   -41558.722    2659.2887   -44218.011    27.621986   0.91258725 
   66100    222.22358   -959.44212    136774.37   -41522.518    2764.8839   -44287.401    27.567209   0.91313517 
   66200    220.09811   -875.14708    136746.16    -41500.85    2738.4389   -44239.289    27.523245   0.91332355 
   66300    218.10059   -964.23545    136666.08   -41546.416    2713.5859   -44260.002    27.579413   0.91385875 
   66400    214.46956   -1093.9628     136565.8   -41593.215    2668.4091   -44261.624    27.602832   0.91452978 
   66500    214.83484   -1008.4244    136344.05   -41615.071    2672.9538   -44288.025    27.440061   0.91601718 
   66600    213.65378   -888.68069    136382.12   -41635.691    2658.2592    -44293.95    27.628098   0.91576145 
   66700     214.5052   -831.52256     136439.7   -41651.347    2668.8525   -44320.199    27.709929   0.91537501 
   66800    218.06285    -861.0563    136363.28   -41597.212    2713.1164   -44310.328    27.509218   0.91588799 
[...]
   84600    207.63855   -898.78384    136708.68   -41803.408    2583.4183   -44386.826    29.649314     0.913574 
   84700    211.88491     -967.226    136752.48   -41811.575     2636.251   -44447.826    29.622777   0.91328134 
   84800    211.75705   -853.04849    136718.42   -41781.762    2634.6602   -44416.422    29.593489   0.91350889 
   84900    210.98645   -943.47367    136760.63   -41768.444    2625.0725   -44393.517    29.577175   0.91322693 
   85000    215.30483   -981.51037    136906.15   -41710.195    2678.8014   -44388.996     29.60791   0.91225628 
   85100    212.95823   -1022.8927    136880.05   -41716.512    2649.6052   -44366.117    29.760687    0.9124302 
   85200    214.88867   -928.13068    136835.36   -41727.592    2673.6235   -44401.215    29.804587   0.91272822 
   85300    211.85893   -1027.6017    136878.38   -41766.659    2635.9278   -44402.587    29.598063   0.91244132 
   85400    210.08438   -934.79706    136664.07   -41744.233     2613.849   -44358.082    29.684843   0.91387217 
   85500    220.11214   -909.48586    136701.93   -41706.509    2738.6135   -44445.123    29.677683   0.91361908 
   85600    216.11539   -955.13563    136816.38   -41679.424    2688.8863    -44368.31    29.762268   0.91285484 
   85700    215.36028   -937.65893    136731.04   -41714.431    2679.4914   -44393.923    29.750797   0.91342459 
   85800    213.52279   -913.53101    136971.28   -41716.522    2656.6294   -44373.152    29.841742    0.9118225 
   85900    216.28784   -1022.1936    136860.54   -41624.737    2691.0319   -44315.769    29.747244   0.91256028 
   86000    217.39643   -924.40239    136814.66    -41680.02    2704.8249   -44384.845    29.913711    0.9128663 
   86100    214.01916   -934.60822    136764.71   -41674.002    2662.8052   -44336.807    29.925793   0.91319968 
   86200    217.04481   -978.14083    136803.55   -41644.912      2700.45   -44345.362    29.991143   0.91294042 
   86300    213.57755   -952.19801    136937.56   -41670.993    2657.3107   -44328.304    29.906068   0.91204699 
   86400    216.55549   -944.46523    136858.72    -41681.33     2694.362   -44375.692    29.802278   0.91257242 
   86500    220.07691    -1075.564    136852.29   -41667.141    2738.1751   -44405.316    29.931705   0.91261531 
   86600    217.83643   -864.88373    136701.38   -41616.865    2710.2993   -44327.165    29.926625   0.91362273 
   86700    217.54089   -893.32759    136548.04    -41605.88    2706.6223   -44312.502     29.87131   0.91464875 
   86800    217.48095   -885.51392    136875.69   -41675.139    2705.8765   -44381.015    29.888539   0.91245928 
   86900    218.65449   -896.67386    136660.78   -41653.428    2720.4775   -44373.905    29.848646    0.9138942 
   87000     216.5721   -1051.1956    136691.24   -41660.081    2694.5687    -44354.65    29.911231   0.91369054 
   87100    213.52343   -983.05999    136706.54   -41694.387    2656.6374   -44351.025    30.039346   0.91358826 
   87200    217.25094   -933.58828    136743.61   -41688.244    2703.0147   -44391.259    29.987078   0.91334063 
   87300     218.9061   -818.15748    136815.22   -41686.841     2723.608   -44410.449    30.027874   0.91286254 
   87400    213.67448   -908.51399    136814.46   -41706.639    2658.5168   -44365.156     30.16499   0.91286765 
   87500    216.45093   -955.64668    136907.54   -41719.145     2693.061   -44412.206    30.211688   0.91224697 
   87600    212.00615   -945.18874    136685.81    -41721.89    2637.7596    -44359.65    30.141674    0.9137268 
   87700    215.47561    -871.6898    136797.34    -41728.85    2680.9262   -44409.776    30.002068   0.91298186 
   87800    212.90092   -879.79152     136810.4   -41704.506    2648.8922   -44353.398    30.012296   0.91289474 
   87900    212.37358   -809.26403    136929.65    -41724.25    2642.3311   -44366.581    30.195409    0.9120997 
   88000    212.48165   -1032.1576     136981.5   -41749.519    2643.6757   -44393.195    30.186279   0.91175447 
   88100    216.52758   -887.21749    136844.36    -41690.23    2694.0148   -44384.245    30.223338   0.91266818 
   88200    214.52008   -923.19156    136871.74   -41669.114    2669.0376   -44338.152    30.183199   0.91248557 
   88300    216.07943   -1108.8294    136774.23    -41714.04    2688.4389   -44402.478    30.108092   0.91313611 
   88400    208.41354   -1018.5418    136632.45   -41808.334    2593.0606   -44401.394    30.106992   0.91408368 
   88500    216.28831   -896.45225    136681.69   -41711.418    2691.0378   -44402.456    30.096993   0.91375434 
   88600    216.79725   -922.41807    136731.17   -41669.215      2697.37   -44366.585    30.157484   0.91342373 
   88700    219.81249   -958.93146    136787.83   -41650.392    2734.8853   -44385.277    30.260449   0.91304536 
   88800    221.74115   -921.71408    136722.81   -41598.804    2758.8814   -44357.686    30.252387   0.91347957 
   88900     216.5788   -986.39312    136649.35   -41651.984     2694.652   -44346.637    30.203631    0.9139706 
   89000    218.19318   -986.01041     136789.7   -41629.216    2714.7379   -44343.954    30.321164   0.91303288 
   89100    215.99532   -1005.4604    136729.42   -41739.887    2687.3924   -44427.279    30.380021   0.91343542 
   89200    217.30394   -1028.5273    136727.51   -41769.743    2703.6742   -44473.417    30.326154   0.91344816 
   89300    212.50362   -957.53545    136857.43   -41776.923     2643.949   -44420.872    30.406942   0.91258103 
   89400    208.67983   -979.36757    136850.89   -41791.944    2596.3738   -44388.318    30.273098   0.91262461 
   89500    213.93826   -962.83653     136873.2   -41818.894    2661.7987   -44480.692    30.312769   0.91247585 
   89600    212.33803   -924.37365    136879.72   -41860.198    2641.8888   -44502.086    30.471482   0.91243242 
   89700    209.12461   -1069.4128    136696.98   -41827.399    2601.9077   -44429.306     30.35395   0.91365216 
   89800    213.98706   -906.87014    136672.39   -41784.657    2662.4058   -44447.063    30.378428   0.91381654 
   89900     212.6376   -942.04081    136607.97   -41845.174     2645.616    -44490.79    30.416247   0.91424747 
   90000    218.89641   -981.16451    136712.15    -41768.75    2723.4875   -44492.238     30.29742   0.91355081 
   90100    215.97093   -1026.0019    136673.12   -41777.804    2687.0889   -44464.893    30.352387   0.91381165 
   90200    213.84624   -910.04819    136619.44   -41805.374    2660.6538   -44466.028    30.298095   0.91417071 
   90300    212.51216   -742.79579    136744.81   -41812.791    2644.0553   -44456.846    30.479552   0.91333261 
   90400    211.34597   -884.20415    136754.62   -41804.561    2629.5457   -44434.107    30.367268   0.91326709 
   90500    213.76162   -972.59867    136654.31   -41769.349    2659.6009    -44428.95    30.206165   0.91393746 
   90600    218.13305   -1032.1984    136799.87   -41676.887    2713.9899   -44390.876    30.367355   0.91296496 
   90700    219.32706   -927.17773    136827.36   -41679.516    2728.8456   -44408.361    30.370066   0.91278155 
   90800    219.50054   -939.42244    136827.72    -41723.34     2731.004   -44454.344    30.572951   0.91277913 
   90900    212.72732   -993.11672    136679.82   -41817.687    2646.7322    -44464.42    30.519124    0.9137669 
   91000    211.27313   -961.16718    136738.59   -41821.475    2628.6394   -44450.114    30.481141    0.9133741 
   91100    214.50475   -936.38295    136713.62   -41805.751    2668.8469   -44474.598    30.448615   0.91354097 
   91200     212.1408   -809.58284    136724.57   -41761.766    2639.4349     -44401.2    30.444184   0.91346777 
   91300    214.65615   -940.62057    136734.11   -41663.425    2670.7306   -44334.156    30.430885   0.91340408 
   91400    214.34373   -903.79987    136740.78   -41640.104    2666.8436   -44306.947    30.349188   0.91335953 
   91500    220.42173   -1031.4631    136809.62   -41651.314    2742.4654    -44393.78    30.373603   0.91289993 
   91600    212.36302   -883.73263    136848.92   -41689.802    2642.1997   -44332.002    30.585713   0.91263775 
   91700    210.20444   -928.21774    136789.89   -41756.203    2615.3429   -44371.546    30.701125   0.91303156 
   91800    216.02263   -939.18278    136816.71   -41722.154    2687.7322   -44409.886    30.619059   0.91285261 
   91900    213.88838    -860.7258    136757.67   -41731.867     2661.178   -44393.045    30.412347   0.91324669 
   92000    212.46228   -995.10377    136856.01   -41735.253    2643.4347   -44378.688    30.510546   0.91259048 
   92100     212.6521   -916.23113    136850.07   -41786.631    2645.7964   -44432.428    30.640146   0.91263011 
   92200    213.27577   -998.56765    136811.61   -41729.217    2653.5561   -44382.773    30.661695   0.91288661 
   92300    214.83174   -995.95397    136722.91   -41648.933    2672.9152   -44321.848    30.736806   0.91347886 
   92400      215.769   -986.33665    136754.35   -41655.792    2684.5766   -44340.369    30.768537   0.91326889 
   92500    216.70776    -985.8147    136880.07   -41706.388    2696.2565   -44402.644    30.611124   0.91243005 
   92600    219.93022   -966.62927    136869.91   -41687.378      2736.35   -44423.728    30.479932   0.91249779 
   92700    220.81763   -917.43097    136888.81   -41674.141    2747.3911   -44421.532    30.728921   0.91237179 
   92800    213.86127   -850.75657    136807.31   -41717.633    2660.8407   -44378.473    30.686296   0.91291532 
   92900    213.28578   -852.09943    136756.66   -41675.665    2653.6806   -44329.346    30.686062   0.91325343 
   93000    216.08172   -823.93035    136774.56    -41712.24    2688.4674   -44400.708    30.665318   0.91313396 
   93100    217.97257   -989.25788    136803.99   -41657.502    2711.9932   -44369.495    30.763481    0.9129375 
   93200    217.09592    -816.8232    136817.89   -41683.418    2701.0859   -44384.504    30.723921   0.91284476 
   93300    220.02663   -1032.5104    136760.03   -41703.416    2737.5495   -44440.966    30.765355   0.91323097 
   93400    214.64374    -875.3137    136765.81   -41737.039    2670.5762   -44407.615    30.631556   0.91319237 
   93500    215.79629   -902.80507     136896.1   -41780.813    2684.9161   -44465.729    30.579788   0.91232322 
   93600    208.91344   -1050.1672    136733.61   -41852.458    2599.2804   -44451.738    30.869614   0.91340738 
   93700    210.95798   -840.32828    136975.26   -41802.987    2624.7183   -44427.706    31.009107   0.91179597 
   93800    210.84156   -1044.3739    137011.59   -41766.695    2623.2698   -44389.965    30.902306   0.91155419 
   93900    211.81166   -1010.4701    136813.29   -41746.456    2635.3398   -44381.796    30.849648    0.9128754 
   94000    214.97288    -981.0728    136819.22   -41749.325    2674.6714   -44423.996    30.899114    0.9128359 
   94100    210.76835   -1076.6395    136905.66   -41749.428     2622.359   -44371.787    30.875404   0.91225951 
   94200    213.80106   -979.64354    136879.58   -41748.221    2660.0916   -44408.312    30.871522   0.91243335 
   94300    215.50915   -976.45208     136857.2   -41698.272    2681.3436   -44379.615    30.922537   0.91258254 
   94400    217.47038   -1039.6398    136800.91   -41687.731     2705.745   -44393.476    30.892157   0.91295802 
   94500    217.83117   -910.03932    136738.64   -41630.209    2710.2339   -44340.442    31.117757   0.91337379 
   94600    217.11625   -1013.4343    136582.31   -41683.464    2701.3389   -44384.803    30.964135   0.91441924 
   94700    214.65604   -991.18988    136667.84   -41729.203    2670.7292   -44399.933    30.880262   0.91384695 
   94800    215.36693   -1060.4649    136576.78   -41725.628     2679.574   -44405.202    30.941442   0.91445627 
   94900    216.91615    -872.3691    136434.27   -41696.258    2698.8493   -44395.107    31.004843   0.91541142 
   95000    217.40469    -855.7682     136582.8   -41677.895    2704.9277   -44382.823     30.97176   0.91441596 
   95100    218.31435   -934.92281     136438.9    -41679.73    2716.2455   -44395.976    30.971747    0.9153804 
   95200    212.94949   -876.08572    136568.32   -41690.734    2649.4965    -44340.23    31.039589   0.91451293 
   95300    215.37839   -933.93784    136505.75   -41590.367    2679.7167   -44270.083    30.847698   0.91493211 
   95400    215.17907   -930.92559    136600.97   -41643.729    2677.2367   -44320.966    31.010302   0.91429431 
   95500    214.03627   -896.61145    136321.37   -41655.153    2663.0181   -44318.171    31.037338   0.91616957 
   95600    218.45929   -976.32193    136340.47   -41641.103    2718.0489   -44359.151    30.948522   0.91604124 
   95700    216.69266   -1073.5572    136320.28   -41700.073    2696.0686   -44396.141    30.911061   0.91617689 
   95800    215.91334   -1028.1308    136398.84   -41735.403    2686.3725   -44421.776    30.962407   0.91564923 
   95900    216.31944   -1005.9139    136508.01   -41682.448    2691.4251   -44373.874     31.00783   0.91491695 
   96000    213.66245   -1022.0635    136526.33   -41758.749    2658.3671   -44417.116    31.146119   0.91479416 
   96100    214.97656   -1052.9398    136423.75   -41709.167    2674.7172   -44383.885     30.98007   0.91548205 
   96200     212.3375   -1087.0793    136398.39   -41762.198    2641.8822    -44404.08    31.096673   0.91565221 
   96300    214.99439   -1046.3683    136445.18   -41710.432    2674.9389   -44385.371    31.186091   0.91533822 
   96400    219.74115   -957.57239    136400.82   -41685.632    2733.9977    -44419.63     31.18647   0.91563595 
   96500    213.97186   -934.83443    136461.33    -41719.01    2662.2168   -44381.227    31.105404   0.91522993 
   96600    218.60169   -909.62414    136369.54   -41716.933    2719.8206   -44436.754    31.202801   0.91584598 
   96700    211.60755   -926.63022    136322.29   -41801.735    2632.8002   -44434.536    31.312139   0.91616341 
   96800    208.85521   -914.87372    136252.84   -41849.818    2598.5559   -44448.374    31.317037    0.9166304 
   96900    209.91509   -897.22012    136235.09   -41780.558    2611.7428   -44392.301    31.213507   0.91674981 
   97000    212.63671    -877.6715    136330.76   -41778.775    2645.6049    -44424.38    31.272667   0.91610648 
   97100    210.52393   -942.00075    136181.35    -41782.91     2619.318   -44402.228    31.208834   0.91711157 
   97200     211.0647   -1094.3879    136147.56   -41796.571    2626.0462   -44422.617    31.225165   0.91733921 
   97300    213.00662   -1026.3823    136042.64   -41785.912    2650.2073   -44436.119    31.222497   0.91804666 
   97400    211.21269   -982.75322    135985.92   -41791.662    2627.8875   -44419.549    31.271614    0.9184296 
   97500    215.81369   -847.36067    136039.23   -41696.948    2685.1326   -44382.081     31.13933   0.91806968 
   97600    214.18194   -929.53262    136118.23   -41756.173    2664.8305   -44421.004    31.180568   0.91753683 
   97700    220.31845   -944.86355    136160.26   -41688.344    2741.1804   -44429.525    31.337726   0.91725364 
   97800    212.89554   -1002.2629    136138.47   -41668.433    2648.8252   -44317.258    31.189096   0.91740042 
   97900    217.06144   -905.33229    136296.19   -41632.666     2700.657   -44333.323    31.323357   0.91633882 
   98000    216.05038   -1008.3951    136237.55   -41652.006    2688.0775   -44340.084    31.359425   0.91673323 
   98100    213.06539   -910.37829    136261.27   -41731.024    2650.9386   -44381.963    31.407046   0.91657369 
   98200    216.01193    -883.9254    136268.42   -41712.388     2687.599   -44399.987    31.305943   0.91652559 
   98300    215.43937   -761.83201    136457.49   -41732.638    2680.4753   -44413.113    31.308222   0.91525569 
   98400    210.91732   -1009.4831    136607.01   -41745.524    2624.2125   -44369.737      31.4275   0.91425387 
   98500      212.485   -907.89256    136425.84   -41748.438    2643.7173   -44392.155    31.280102   0.91546803 
   98600    215.15763   -929.95767     136543.1   -41773.697    2676.9699   -44450.667    31.349002   0.91468183 
   98700    214.30261   -864.93326    136701.71   -41830.291    2666.3318   -44496.623    31.424809   0.91362052 
   98800    211.79072   -1014.9997    136694.09   -41804.218    2635.0792   -44439.297    31.492769   0.91367146 
   98900    211.27209   -1137.7286    136609.37   -41819.492    2628.6265   -44448.118     31.45956   0.91423812 
   99000    209.76268   -1081.5773    136575.62   -41865.563    2609.8465   -44475.409    31.539186   0.91446405 
   99100    212.49143   -950.47802    136421.53   -41790.081    2643.7974   -44433.878    31.318742    0.9154969 
   99200    211.14718   -906.90036     136361.2   -41785.887    2627.0723   -44412.959    31.418661   0.91590195 
   99300    212.09825   -987.10595    136301.29   -41733.689    2638.9055   -44372.595    31.607804   0.91630455 
   99400      214.639   -995.83756    136300.56   -41702.398    2670.5172   -44372.915    31.600392   0.91630944 
   99500    222.48634   -876.61216    136393.86   -41574.785    2768.1531   -44342.938    31.475956   0.91568265 
   99600    216.28701   -889.84169    136267.48     -41590.3    2691.0215   -44281.321    31.492807    0.9165319 
   99700    216.83938   -997.26445     136256.5   -41605.331    2697.8942   -44303.225    31.365968   0.91660575 
   99800    215.88515   -1000.1124    136146.58   -41634.606    2686.0216   -44320.628    31.363109   0.91734579 
   99900    215.07061   -916.66433    136118.93   -41693.799    2675.8873   -44369.686    31.438571    0.9175321 
  100000    217.64184    -914.7119    136276.88   -41707.076    2707.8783   -44414.955    31.388642   0.91646865 
  100100    221.18728   -844.50003    136304.71   -41644.401    2751.9903   -44396.391    31.520352   0.91628158 
  100200    219.38936    -987.3371    136452.24   -41650.907    2729.6208   -44380.528    31.523294   0.91529088 
  100300    220.45393   -925.26663    136325.48   -41642.306     2742.866   -44385.172    31.455185   0.91614198 
  100400    216.17149   -943.78063    136395.13    -41692.57    2689.5843   -44382.155    31.357651   0.91567416 
  100500    218.95506   -975.84803    136414.82   -41621.558    2724.2172   -44345.775    31.534233   0.91554197 
  100600    212.81173   -901.82586    136370.36   -41699.229    2647.7825   -44347.011    31.633592   0.91584042 
  100630    217.34274   -992.05145    136334.86   -41682.965    2704.1569   -44387.122    31.600329   0.91607893 
Loop time of 69.1509 on 6 procs for 100000 steps with 4175 atoms

Performance: 624.721 ns/day, 0.038 hours/ns, 1446.113 timesteps/s
98.3% CPU use with 6 MPI tasks x no OpenMP threads

MPI task timing breakdown:
Section |  min time  |  avg time  |  max time  |%varavg| %total
---------------------------------------------------------------
Pair    | 54.54      | 55.658     | 57.145     |  11.1 | 80.49
Neigh   | 4.8149     | 4.8571     | 4.903      |   1.4 |  7.02
Comm    | 4.5687     | 6.0456     | 7.1794     |  33.9 |  8.74
Output  | 0.15876    | 0.15954    | 0.16304    |   0.4 |  0.23
Modify  | 1.7533     | 1.7576     | 1.7627     |   0.2 |  2.54
Other   |            | 0.673      |            |       |  0.97

Nlocal:        695.833 ave         706 max         678 min
Histogram: 1 0 0 0 0 1 1 2 0 1
Nghost:        1449.67 ave        1482 max        1429 min
Histogram: 1 0 1 2 1 0 0 0 0 1
Neighs:        0.00000 ave           0 max           0 min
Histogram: 6 0 0 0 0 0 0 0 0 0
FullNghs:      18637.7 ave       19065 max       18145 min
Histogram: 1 0 0 0 2 1 0 1 0 1

Total # of neighbors = 111826
Ave neighs/atom = 26.784671
Neighbor list builds = 5304
Dangerous builds = 0

undump              1
unfix               2
unfix               3
unfix               4


################################################
#######         Run Simulation         #########
################################################

reset_timestep      0
log                 log.run_${NAME}
log                 log.run_liquid_density_MLmW
