
# Create simulation box of size 50 x 50 x 50 Angstrom
#
lattice	            sc 1
Lattice spacing in x,y,z = 1.0000000 1.0000000 1.0000000
region 	            all block 0 50 0 50 0 50 units box
create_box          1 all
Created orthogonal box = (0.0000000 0.0000000 0.0000000) to (50.000000 50.000000 50.000000)
  1 by 2 by 3 MPI processor grid

# fill box with 4169 randomly distributed atoms
#
create_atoms        1 random 4169 63782 all
Created 4169 atoms
  create_atoms CPU = 0.001 seconds
mass                1 18.015

# Define potential
#
pair_style          sw
pair_coeff          * * ML_mW.sw mW
Reading sw potential file ML_mW.sw with DATE: 2019-02-27

# Run minimization
#
minimize            1.0e-8 1.0e-8 10000 1000
WARNING: Using 'neigh_modify every 1 delay 0 check yes' setting during minimization (../min.cpp:187)
Neighbor list info ...
  update every 1 steps, delay 0 steps, check yes
  max neighbors/atom: 2000, page size: 100000
  master list distance cutoff = 6.0032907
  ghost atom cutoff = 6.0032907
  binsize = 3.0016454, bins = 17 17 17
  1 neighbor lists, perpetual/occasional/extra = 1 0 0
  (1) pair sw, perpetual
      attributes: full, newton on
      pair build: full/bin/atomonly
      stencil: full/bin/3d
      bin: standard
Per MPI rank memory allocation (min/avg/max) = 4.255 | 4.258 | 4.261 Mbytes
Step Temp E_pair E_mol TotEng Press 
       0            0    7783778.6            0    7783778.6    5891538.7 
     630            0   -45100.671            0   -45100.671   -33.645425 
Loop time of 1.24323 on 6 procs for 630 steps with 4169 atoms

98.6% CPU use with 6 MPI tasks x no OpenMP threads

Minimization stats:
  Stopping criterion = max force evaluations
  Energy initial, next-to-last, final = 
       7783778.6045464  -45100.6138394717  -45100.6714481628
  Force two-norm initial, final = 2.0191929e+08 1.9154294
  Force max component initial, final = 1.0948746e+08 0.55224559
  Final line search alpha, max atom move = 0.074060414 0.040899537
  Iterations, force evaluations = 630 1001

MPI task timing breakdown:
Section |  min time  |  avg time  |  max time  |%varavg| %total
---------------------------------------------------------------
Pair    | 0.8891     | 1.0075     | 1.0764     |   6.7 | 81.04
Neigh   | 0.023613   | 0.024708   | 0.02613    |   0.5 |  1.99
Comm    | 0.11879    | 0.18776    | 0.30767    |  15.8 | 15.10
Output  | 0          | 0          | 0          |   0.0 |  0.00
Modify  | 0          | 0          | 0          |   0.0 |  0.00
Other   |            | 0.02323    |            |       |  1.87

Nlocal:        694.833 ave         711 max         678 min
Histogram: 1 2 0 0 0 0 0 1 0 2
Nghost:        1484.33 ave        1523 max        1464 min
Histogram: 2 1 0 1 0 1 0 0 0 1
Neighs:        0.00000 ave           0 max           0 min
Histogram: 6 0 0 0 0 0 0 0 0 0
FullNghs:      19864.7 ave       20554 max       18883 min
Histogram: 1 0 0 2 0 0 0 0 1 2

Total # of neighbors = 119188
Ave neighs/atom = 28.589110
Neighbor list builds = 26
Dangerous builds = 0

# Add velocity/set timestep
#
velocity            all create ${TEMP} 120598 rot yes dist gaussian
velocity            all create 219 120598 rot yes dist gaussian
timestep            5.0

# Define output
#
compute	            1 all msd
thermo	            100
thermo_style        custom step temp press vol etotal ke pe c_1[4] density

# Neighbor lists
#
neigh_modify        delay 0 every 1 check yes

# Set fixes
#
fix                 1 all momentum 10 linear 1 1 1 rescale
fix                 2 all nve
fix                 3 all temp/csvr ${TEMP} ${TEMP} 500.0 928347
fix                 3 all temp/csvr 219 ${TEMP} 500.0 928347
fix                 3 all temp/csvr 219 219 500.0 928347
fix                 4 all press/berendsen iso ${PRES} ${PRES} 1000.0 modulus 20000
fix                 4 all press/berendsen iso -500 ${PRES} 1000.0 modulus 20000
fix                 4 all press/berendsen iso -500 -500 1000.0 modulus 20000

# Run 0.5 ns equilibration
#
dump                1 all custom 1000 eq.${NAME}.dump id type x y z vx vy vz
dump                1 all custom 1000 eq.liquid_219K_500atm_ML.dump id type x y z vx vy vz
run                 100000
Per MPI rank memory allocation (min/avg/max) = 3.506 | 3.508 | 3.511 Mbytes
Step Temp Press Volume TotEng KinEng PotEng c_1[4] Density 
     630          219    961.36806       125000   -42379.812    2720.8596   -45100.671 2.1849767e-33   0.99771203 
     700    139.05009    -74.63192    126050.63   -41528.552    1727.5605   -43256.113   0.23945862   0.98939614 
     800    171.10428   -292.13019    126394.82   -40747.699    2125.8023   -42873.501   0.55736196   0.98670187 
     900    190.34778   -451.65366    126752.82   -40299.148     2364.884   -42664.032   0.98427355   0.98391501 
    1000    205.03865   -520.31094    126691.55   -40021.586    2547.4035    -42568.99    1.3933461   0.98439086 
    1100    211.11075   -440.26515    126907.58   -39842.953    2622.8435   -42465.797    1.8265495   0.98271518 
    1200    210.45536   -393.70326     126848.5   -39885.721    2614.7008   -42500.422    2.1146661   0.98317285 
    1300    212.19823   -500.59702    126727.24   -39874.442    2636.3542   -42510.796    2.4472223   0.98411365 
    1400    212.39504   -475.97975    126827.31     -39894.1    2638.7994   -42532.899    2.8158374   0.98333714 
    1500    220.08194   -389.97308    126865.63   -39864.056    2734.3016   -42598.358    3.1598286   0.98304013 
    1600    221.57605   -380.16123    126849.63   -39797.853    2752.8645   -42550.717    3.5382823   0.98316411 
    1700    218.28211    -344.7395    126948.48    -39840.29    2711.9405    -42552.23    3.8561491   0.98239854 
    1800    215.70755   -503.05929    127024.61   -39925.427    2679.9542   -42605.382    4.0666629   0.98180978 
    1900    218.26282   -317.69752    127303.67   -39913.994    2711.7008   -42625.695    4.3732149   0.97965756 
    2000    220.25748   -565.96107    127635.08   -39892.319    2736.4825   -42628.801    4.6796275   0.97711386 
    2100    222.15956   -402.81373    127787.26   -39851.868     2760.114   -42611.982    4.9472467   0.97595023 
    2200    219.72893   -413.31709    127953.24   -39878.152    2729.9158   -42608.067    5.2656484   0.97468425 
    2300    222.45672   -418.16074    128145.03   -39880.472    2763.8059   -42644.278    5.5117492   0.97322543 
    2400    219.30861   -554.09324    128089.48   -39915.113    2724.6938   -42639.806    5.7133448   0.97364749 
    2500    222.69105   -519.22394    128158.12   -39888.262    2766.7172   -42654.979    6.0910924   0.97312604 
    2600    224.33458   -411.49456    128347.22   -39834.785    2787.1365   -42621.921    6.4439281   0.97169227 
    2700    223.07868   -369.81018    128429.49   -39861.647    2771.5331    -42633.18    6.5960342   0.97106981 
    2800    221.55803    -368.5017    128807.31   -39868.633    2752.6406   -42621.274    6.9240109   0.96822146 
    2900    226.05935   -470.99284    128946.66   -39970.119    2808.5651   -42778.684    7.1866576   0.96717513 
    3000    221.51284   -665.22858    128924.02   -40017.943    2752.0791   -42770.022     7.406358   0.96734497 
    3100    221.63873   -478.21739    129258.52   -40016.295    2753.6432   -42769.939    7.5886205   0.96484163 
    3200     220.3613    -450.6857    129312.76   -40095.121    2737.7724   -42832.893    7.7297624   0.96443696 
    3300    224.34649   -492.89295    129354.54    -40111.57    2787.2845   -42898.855    7.9433312   0.96412542 
    3400    220.06902    -510.8193    129276.29   -40171.999     2734.141    -42906.14    8.3463395   0.96470902 
    3500    217.40493   -432.21596    129301.32   -40213.001    2701.0424   -42914.044     8.598562   0.96452228 
    3600     216.3194   -426.83632    129410.25   -40262.777    2687.5558   -42950.333    8.7050116   0.96371041 
    3700    216.34588   -561.53965    129523.44     -40330.5    2687.8847   -43018.385    8.8654416   0.96286822 
    3800    219.98497   -386.82568    129404.43   -40291.583    2733.0969    -43024.68    9.0256438   0.96375372 
    3900    216.71867   -419.81997    129492.27   -40324.317    2692.5163   -43016.833    9.1908294   0.96309996 
    4000    218.66911   -514.55755    129548.78   -40327.565    2716.7486   -43044.313     9.383127   0.96267986 
    4100    218.27705   -574.86614    129577.26   -40317.554    2711.8777   -43029.431    9.5328136   0.96246831 
    4200     217.4649   -488.22919    129505.58   -40339.361    2701.7874   -43041.149     9.643959   0.96300103 
    4300     216.6548   -369.50206    129484.48   -40329.826    2691.7228   -43021.549    9.7904078   0.96315794 
    4400    224.89033   -553.40232    129666.16    -40335.65    2794.0412   -43129.692     10.00967   0.96180841 
    4500      218.321   -558.66333    129738.82   -40357.258    2712.4237   -43069.682    10.141623   0.96126972 
    4600    220.30156   -644.82959    129713.44    -40419.94    2737.0302    -43156.97    10.335131   0.96145784 
    4700    220.36159   -385.51005    129933.58   -40347.772     2737.776   -43085.548    10.509089   0.95982892 
    4800     216.5173     -478.094    129978.06   -40403.599    2690.0144   -43093.613    10.720581    0.9595004 
    4900    220.44616   -669.42362    129803.11   -40287.017    2738.8267   -43025.843    10.913107   0.96079368 
    5000    224.31309   -606.90843    129923.49   -40245.279    2786.8695   -43032.148    11.056502   0.95990346 
    5100    218.81972   -448.87378    129934.05   -40316.543    2718.6198   -43035.163       11.271   0.95982541 
    5200    216.72398   -620.91405    129903.16   -40359.709    2692.5822   -43052.291    11.459581   0.96005362 
    5300    221.46477   -696.81958    129897.07   -40337.599    2751.4819   -43089.081    11.594755   0.96009865 
    5400    219.53761   -497.19713    129990.88   -40389.572    2727.5388    -43117.11    11.836452   0.95940578 
    5500    220.12326   -576.94019    129874.59   -40388.068     2734.815   -43122.883    11.942192   0.96026484 
    5600    220.10898   -578.11876    129922.36   -40393.774    2734.6375   -43128.412    12.102465   0.95991175 
    5700    218.16105   -625.70766    130005.06   -40395.662    2710.4364   -43106.098    12.262756   0.95930114 
    5800     217.4791   -463.76584    129854.27   -40431.758    2701.9638   -43133.722    12.531007   0.96041509 
    5900    214.16654   -444.39102    130156.36   -40467.054    2660.8086   -43127.862    12.706643   0.95818598 
    6000    214.12384    -473.7025    130228.68   -40469.724    2660.2781   -43130.002    12.764719   0.95765389 
    6100    219.46245   -390.16199    130284.51   -40419.277     2726.605   -43145.882     12.96569   0.95724356 
    6200    220.75246   -576.38666    130160.81   -40493.382    2742.6322   -43236.014    13.086515   0.95815328 
    6300    213.03515   -529.34426    130206.76   -40463.641    2646.7522   -43110.393    13.134751   0.95781511 
    6400    221.81954   -482.57059     130310.5   -40438.053    2755.8896   -43193.942    13.116753   0.95705262 
    6500    221.05678   -488.75132    130391.47    -40381.06     2746.413   -43127.473    13.360119   0.95645833 
    6600    218.32514   -559.42003    130600.49   -40460.973    2712.4751   -43173.448     13.51339   0.95492756 
    6700    214.68926    -551.9795    130538.71   -40533.772    2667.3028   -43201.075    13.621221   0.95537945 
    6800     220.5515   -454.23155    130516.98   -40460.694    2740.1354   -43200.829    13.749063   0.95553854 
    6900    219.28467   -540.96725    130509.24   -40419.859    2724.3963   -43144.256    13.841091   0.95559523 
    7000    221.40712   -509.62083    130469.53   -40411.143    2750.7656   -43161.908    14.056546   0.95588604 
    7100    218.01138   -577.92129    130503.31    -40442.08    2708.5769   -43150.657    14.155249   0.95563859 
    7200    218.78446   -522.97911    130456.84   -40505.983    2718.1817   -43224.165    14.260454   0.95597904 
    7300    214.84328   -473.04036       130509   -40576.966    2669.2164   -43246.183    14.474787   0.95559697 
    7400    215.27125   -606.03294    130429.78   -40613.353    2674.5335   -43287.887    14.564428   0.95617734 
    7500     213.5784   -338.17527     130183.1   -40583.644    2653.5015   -43237.145     14.63502   0.95798918 
    7600    213.99489   -416.85046    130388.31   -40657.116     2658.676   -43315.792    14.730647    0.9564815 
    7700    216.24038   -406.06631    130583.05   -40549.785     2686.574   -43236.359    14.926528   0.95505509 
    7800    220.76685   -443.96787    130789.37   -40524.994    2742.8109   -43267.805     14.98643   0.95354847 
    7900    217.33236   -548.08586    130759.84   -40600.328    2700.1407   -43300.469    15.032624   0.95376383 
    8000    219.46467   -619.13965    130595.02   -40580.833    2726.6326   -43307.466    15.254807   0.95496752 
    8100    213.34854    -532.4065    130717.62   -40651.686    2650.6458   -43302.332    15.324849   0.95407186 
    8200    213.25707   -349.79429     130641.9   -40669.725    2649.5093   -43319.234    15.519671   0.95462481 
    8300    219.75396   -418.05111    130711.36   -40652.298    2730.2267   -43382.525    15.547665   0.95411756 
    8400    220.20557   -656.66328    130999.47   -40615.659    2735.8376   -43351.497    15.824527   0.95201916 
    8500    219.87498   -720.71889    131090.37   -40551.288    2731.7303   -43283.019     15.95654   0.95135901 
    8600    221.60852   -543.73825    131117.99   -40561.988    2753.2678   -43315.255    16.028425   0.95115857 
    8700    219.75662   -486.35919    131117.15   -40539.005    2730.2598   -43269.265    16.110788    0.9511647 
    8800    219.43577   -638.88819    131142.29   -40581.072    2726.2736   -43307.345     16.13677   0.95098236 
    8900    214.79909   -507.39236    131035.68   -40649.398    2668.6674   -43318.065    16.219538    0.9517561 
    9000    216.45297   -539.16258    131021.58    -40603.54    2689.2152   -43292.755    16.471264   0.95185848 
    9100    215.70103   -393.29141    130939.24   -40663.758    2679.8731   -43343.631    16.480102   0.95245706 
    9200    222.00392   -422.05849    131243.42   -40573.024    2758.1804   -43331.205    16.704717   0.95024955 
    9300    219.56627   -634.60364    131284.29   -40634.754    2727.8949   -43362.649    16.688282   0.94995378 
    9400    220.20365   -628.31616    131342.58   -40607.403    2735.8137   -43343.217    16.648285   0.94953213 
    9500    217.01622   -632.43584    131310.49   -40627.517    2696.2131    -43323.73    16.709382   0.94976417 
    9600    214.89575   -406.15479    131399.93   -40587.702    2669.8683    -43257.57    16.795861   0.94911776 
    9700    221.10938   -481.82541    131255.23   -40530.663    2747.0666    -43277.73    16.850449   0.95016408 
    9800    218.36628   -463.59601    131129.41    -40613.74    2712.9862   -43326.726    17.113239   0.95107577 
    9900    215.35248   -428.19989    131232.59   -40675.904    2675.5427   -43351.447     17.32444   0.95032802 
   10000    214.87516   -598.20174    131131.81   -40678.306    2669.6125   -43347.918    17.450109   0.95105833 
   10100    218.05811   -560.00805    131014.29   -40642.009    2709.1575   -43351.167    17.648997   0.95191146 
   10200    215.91394   -406.54141    131175.62   -40686.602    2682.5183   -43369.121    17.831941   0.95074074 
   10300    216.18335   -368.76307    131316.03   -40676.049    2685.8655   -43361.914    17.931752   0.94972412 
   10400    218.96031   -555.95704    131423.24   -40627.245    2720.3665   -43347.612    18.022333    0.9489494 
   10500    221.77951   -526.16637    131416.26   -40605.681    2755.3922   -43361.074    18.175138   0.94899979 
   10600     222.6349   -470.69665    131393.28   -40544.911    2766.0196    -43310.93    18.347064   0.94916574 
   10700    222.62504   -586.70474    131329.49   -40544.643    2765.8972    -43310.54    18.504632    0.9496268 
   10800    221.46729   -566.28983    131408.93   -40550.163    2751.5132   -43301.677     18.79348   0.94905276 
   10900    218.61835   -489.10478    131380.14   -40597.627    2716.1179   -43313.745    19.094121   0.94926072 
   11000    223.09534   -467.03296    131168.19   -40593.687    2771.7401   -43365.427    19.117545   0.95079456 
   11100    220.94151   -450.55536    131289.67   -40649.517    2744.9809   -43394.498    19.053285   0.94991482 
   11200    217.55939   -499.34628    131383.15   -40649.733    2702.9614   -43352.694    19.076648   0.94923892 
   11300    220.53522   -366.81124    131471.12   -40653.866    2739.9332   -43393.799    19.215821   0.94860379 
   11400    218.77602    -318.9034    131512.84   -40678.127    2718.0768   -43396.204    19.287741   0.94830288 
   11500    217.06192   -269.95058    131674.42   -40701.197    2696.7809   -43397.978    19.498058   0.94713921 
   11600    217.82189   -553.55234    131649.73   -40711.769    2706.2227   -43417.992    19.609762   0.94731679 
   11700    223.93724   -570.27226    131629.08   -40604.838       2782.2   -43387.038    19.612596   0.94746542 
   11800    218.65899   -583.15398     131479.9   -40667.232    2716.6228   -43383.855    19.736108   0.94854043 
   11900    218.99993   -623.47851    131438.04   -40662.033    2720.8586   -43382.892    19.908395    0.9488425 
   12000    217.38793   -600.65876    131338.88   -40664.954    2700.8312   -43365.785    19.919331   0.94955888 
   12100    220.93721   -364.37067    131366.72   -40612.851    2744.9275   -43357.778    19.947004   0.94935766 
   12200     220.1994   -546.44018    131441.23   -40612.968    2735.7609   -43348.728    19.972502   0.94881951 
   12300    217.94401   -267.94852    131511.81   -40613.761    2707.7399     -43321.5    20.092584   0.94831026 
   12400    219.81242   -516.25874    131351.34   -40605.132    2730.9531   -43336.085    20.262727   0.94946887 
   12500    218.77075    -499.2187    131318.62   -40692.168    2718.0113    -43410.18    20.266394    0.9497054 
   12600    223.05692   -396.81115     131452.4   -40613.882    2771.2628   -43385.145     20.39442   0.94873888 
   12700    219.97347   -601.59306    131354.89   -40601.847     2732.954   -43334.801    20.603687   0.94944319 
   12800    217.50541   -563.53861    131443.38   -40565.273    2702.2908   -43267.563    20.775123   0.94880396 
   12900    222.03237   -512.89452    131189.12   -40616.387    2758.5338   -43374.921    20.674932   0.95064292 
   13000    223.94683   -537.74981    131337.41   -40568.452    2782.3191   -43350.771    20.754438   0.94956952 
   13100    223.18331   -538.75213    131416.88    -40583.23    2772.8331   -43356.063    20.856551    0.9489953 
   13200     222.1637   -395.80852    131536.28   -40512.219    2760.1655   -43272.385    20.871097    0.9481339 
   13300    221.67495    -439.4787    131842.16   -40553.452    2754.0932   -43307.545    21.098078    0.9459342 
   13400    218.27187   -609.72952    131754.34    -40647.86    2711.8132   -43359.674    21.304806   0.94656469 
   13500    219.26423   -371.19211    131712.04   -40682.893    2724.1423   -43407.036    21.510483    0.9468687 
   13600    219.06616   -433.36792    131563.52   -40732.476    2721.6815   -43454.157    21.491978   0.94793759 
   13700    217.26064   -388.55912     131652.6    -40739.25    2699.2497   -43438.499    21.500277   0.94729619 
   13800    222.04457   -365.81273    131719.89   -40653.413    2758.6854   -43412.098    21.539954   0.94681225 
   13900    220.54066   -440.77641     131707.5   -40689.279    2740.0008   -43429.279    21.850617   0.94690133 
   14000     217.0643    -447.5933    131806.95   -40669.721    2696.8104   -43366.532    21.968634   0.94618683 
   14100    219.88406   -514.88156    131629.06   -40690.463    2731.8431   -43422.306    22.148789   0.94746561 
   14200    218.32588   -457.29454    131572.42   -40727.549    2712.4842   -43440.033    22.142216   0.94787345 
   14300      217.379   -385.24533    131660.49   -40780.145    2700.7203   -43480.865    22.152434   0.94723943 
   14400    218.43568   -290.05736    131777.03   -40746.216    2713.8485   -43460.065    22.365487   0.94640166 
   14500    214.13262   -616.67245    131840.17   -40687.556    2660.3872   -43347.943    22.481812   0.94594847 
   14600    218.97866   -514.98794    131653.27   -40684.919    2720.5945   -43405.514    22.681509   0.94729136 
   14700    218.59106   -532.88087    131651.96   -40734.724    2715.7789   -43450.503    22.783229   0.94730078 
   14800    213.81259    -574.8606    131499.98   -40779.403    2656.4111   -43435.814    22.815123   0.94839564 
   14900    214.48842   -400.33748    131652.73   -40842.621    2664.8076   -43507.429    22.949266    0.9472952 
   15000    214.35592   -463.66449     131691.8   -40847.412    2663.1614   -43510.573    22.877888   0.94701416 
   15100    210.27511   -459.51568    131720.23   -40878.441    2612.4614   -43490.903    22.817438   0.94680983 
   15200    216.66795   -415.83482    131546.47   -40807.884    2691.8862    -43499.77    23.042112    0.9480604 
   15300    219.67735   -391.23181    131763.65   -40816.408    2729.2749   -43545.683     23.10775   0.94649779 
   15400    218.47541   -423.75653    131887.88   -40816.713     2714.342   -43531.055    23.313277   0.94560623 
   15500    218.12207   -732.09655    132212.66   -40801.371    2709.9521   -43511.323     23.30635   0.94328337 
   15600    221.57965   -359.36389    132032.33    -40746.48    2752.9092   -43499.389    23.394872   0.94457172 
   15700    213.74853   -493.76594    132054.26   -40845.685    2655.6152     -43501.3    23.546099   0.94441483 
   15800    219.45982   -402.85121     132041.2    -40860.26    2726.5723   -43586.833    23.576859   0.94450827 
   15900    214.66458    -470.9061    132002.52   -40899.102    2666.9962   -43566.098    23.484545   0.94478504 
   16000    217.08092   -435.25453    132035.54   -40832.621    2697.0169   -43529.638    23.579041   0.94454875 
   16100    221.46913   -358.40034    132382.51   -40777.006    2751.5361   -43528.542    23.611139   0.94207311 
   16200     220.5978   -419.66413    132466.29   -40840.777    2740.7107   -43581.488    23.918347   0.94147731 
   16300    215.72078   -576.61026    132561.97   -40869.416    2680.1185   -43549.534    24.029226   0.94079774 
   16400    219.25373   -500.41108    132492.05   -40766.883    2724.0119   -43490.895    24.276798   0.94129423 
   16500    224.48325   -593.43882    132429.78   -40752.257    2788.9835    -43541.24    24.245025   0.94173684 
   16600    221.64303   -410.57583    132365.57   -40724.249    2753.6966   -43477.945    24.205261    0.9421937 
   16700    220.83593   -503.42051    132387.03   -40752.873    2743.6691   -43496.542    24.048814   0.94204092 
   16800    220.55536   -397.77403    132111.54   -40764.999    2740.1834   -43505.183     24.31855   0.94400539 
   16900    223.44618   -369.22018    132189.55   -40739.154     2776.099   -43515.253    24.220014   0.94344826 
   17000    220.14459    -618.1368    132285.16   -40768.869      2735.08   -43503.949    24.434722    0.9427664 
   17100    223.45165   -353.30899    132095.13   -40699.273    2776.1669    -43475.44    24.588517   0.94412266 
   17200    223.09543   -618.67917    131980.03   -40719.714    2771.7412   -43491.455    24.555255   0.94494598 
   17300    217.21689    -463.4566     131988.2   -40773.342    2698.7062   -43472.049    24.466477   0.94488751 
   17400    217.68009   -569.05542    132015.89   -40795.026    2704.4609   -43499.487    24.575362   0.94468937 
   17500    221.99508   -633.27416    132027.01   -40783.722    2758.0705   -43541.793    24.645211   0.94460974 
   17600    221.15257   -471.16767    131860.13    -40758.52    2747.6032   -43506.123    24.889499   0.94580528 
   17700     219.0267   -575.59369    131931.74   -40778.863    2721.1913   -43500.055     24.94095   0.94529188 
   17800     216.6841    -545.3399    131865.78   -40787.878    2692.0868   -43479.964     25.01061   0.94576475 
   17900    219.11091   -553.29742     131966.7   -40758.994    2722.2375   -43481.232    24.897191   0.94504145 
   18000    219.59091   -408.36409    131892.96   -40697.927     2728.201   -43426.129    25.027144   0.94556982 
   18100    220.12656   -635.98313     131875.1   -40796.293    2734.8559   -43531.149    25.273523   0.94569788 
   18200     214.7945   -508.97537    131814.39   -40793.191    2668.6103   -43461.801    25.305605   0.94613347 
   18300    224.46921   -520.38598    131800.22   -40688.143    2788.8091   -43476.952    25.335164    0.9462352 
   18400    221.93462   -476.76081    131715.98   -40734.801    2757.3193    -43492.12    25.418706   0.94684036 
   18500    219.06814   -610.50028    131702.38   -40692.751    2721.7061   -43414.458    25.313096    0.9469381 
   18600     218.6571   -581.56564    131684.83   -40750.526    2716.5994   -43467.125    25.346292   0.94706434 
   18700    221.14603   -387.84192    131801.22   -40717.265    2747.5219   -43464.787    25.404415     0.946228 
   18800    222.42281   -444.57799    131671.26   -40698.587    2763.3846   -43461.972    25.554757   0.94716191 
   18900    224.36956   -541.03132    131620.23   -40749.813     2787.571   -43537.384    25.811808   0.94752915 
   19000    222.13267   -481.33041    131579.14   -40732.856    2759.7799   -43492.636    26.140296   0.94782502 
   19100    218.31288   -475.48162    131668.29   -40796.269    2712.3227   -43508.592     26.19173   0.94718329 
   19200    221.45742   -563.76973    131891.61   -40783.215    2751.3905   -43534.605    26.194112   0.94557954 
   19300     223.4665   -394.29437    131820.11   -40725.216    2776.3514   -43501.568    26.157545    0.9460924 
   19400    221.80214   -504.93063    131801.38   -40739.614    2755.6734   -43495.287    26.293243   0.94622681 
   19500    218.84307   -357.32544    131835.95   -40723.443    2718.9099   -43442.352    26.449216    0.9459787 
   19600    220.91745   -557.11808    131828.74   -40745.625    2744.6819   -43490.307    26.504043   0.94603044 
   19700    224.20304   -477.03176    131901.54   -40730.443    2785.5022   -43515.945    26.626425   0.94550835 
   19800    220.39053    -427.5557    132102.46   -40760.253    2738.1356   -43498.389     26.76513   0.94407027 
   19900    222.45085   -505.40597    132091.86   -40783.486     2763.733   -43547.219    26.838209   0.94414603 
   20000     218.0585   -542.88042    132100.21   -40824.839    2709.1624   -43534.002    26.744144   0.94408635 
   20100    219.04531   -512.38348    132204.77   -40788.246    2721.4225   -43509.668    26.881511   0.94333963 
   20200    215.82556   -455.73613    132274.39   -40832.762    2681.4202   -43514.183    26.941919   0.94284315 
   20300    215.75025    -541.4494    132211.97   -40866.907    2680.4846   -43547.392    27.083605    0.9432883 
   20400     220.6788   -452.33026    132097.99   -40868.551    2741.7171   -43610.268    27.290639   0.94410223 
   20500    219.25488   -378.24297    132295.39   -40840.712    2724.0263   -43564.738    27.336771   0.94269349 
   20600     219.9998   -359.49816    132314.86   -40884.292    2733.2811   -43617.573    27.316704   0.94255476 
   20700     218.6874   -493.29591    132456.33   -40822.655    2716.9758   -43539.631    27.427882   0.94154805 
   20800    217.66347   -502.35364    132258.47   -40821.125    2704.2545   -43525.379    27.648657   0.94295665 
   20900    220.70758   -595.16146    132351.22    -40853.34    2742.0745   -43595.414    27.817766   0.94229585 
   21000    217.58249   -408.86359    132309.14   -40947.218    2703.2485   -43650.467    27.933465   0.94259556 
   21100     214.5016   -550.27057    132364.85   -40970.069    2664.9713    -43635.04    28.080891   0.94219883 
   21200    217.87196   -424.91884    132344.27   -40949.008    2706.8448   -43655.853    28.010629    0.9423453 
   21300    215.11389   -406.18374    132354.65    -40956.77    2672.5785   -43629.349    28.135199   0.94227144 
   21400    217.67008   -389.72288    132283.12   -40936.898    2704.3366   -43641.235    27.983939   0.94278092 
   21500     220.9995   -492.70067    132254.46    -40927.69    2745.7014   -43673.392    28.095724   0.94298524 
   21600    217.75607   -453.96228    132253.88   -40875.615     2705.405    -43581.02    28.148011   0.94298934 
   21700    217.02781   -580.68974    132157.84   -40850.433    2696.3571    -43546.79    28.277395   0.94367464 
   21800    221.94757    -428.2569    132348.29   -40849.069    2757.4803    -43606.55    28.209256    0.9423167 
   21900    218.40366   -424.24593    132211.14   -40863.286    2713.4507   -43576.737    28.199103   0.94329418 
   22000    219.33205   -524.52316    132179.27   -40911.329    2724.9849   -43636.314    28.304589   0.94352163 
   22100    220.19864   -482.48556     132270.9   -40851.318    2735.7515   -43587.069    28.395086   0.94286807 
   22200    221.65614   -288.96214    132379.99   -40882.152    2753.8595   -43636.011    28.335805   0.94209105 
   22300    219.04883   -362.06278    132746.13    -40859.18    2721.4662   -43580.646    28.375565   0.93949256 
   22400     219.8366   -602.60389    132589.62   -40830.657    2731.2535   -43561.911    28.487711   0.94060156 
   22500    218.72065   -475.53871    132466.37   -40837.331    2717.3889    -43554.72    28.596772    0.9414767 
   22600    219.12625    -398.2586    132563.25   -40794.911     2722.428   -43517.339    28.824815   0.94078867 
   22700    217.72067   -541.03097    132574.46   -40799.733    2704.9651   -43504.698    28.785163   0.94070909 
   22800    224.40126   -574.92843    132429.71   -40785.036    2787.9649   -43573.001    28.915663   0.94173732 
   22900    221.75293   -499.26341     132433.2   -40835.885     2755.062   -43590.947    29.128923    0.9417125 
   23000    219.32984   -568.50114    132245.75   -40822.099    2724.9575   -43547.056    29.046427   0.94304732 
   23100     213.0303   -487.56251    132194.47   -40930.229    2646.6919    -43576.92    29.263578   0.94341316 
   23200    218.53595   -454.19288    132138.25   -40878.256    2715.0943   -43593.351    29.232897   0.94381458 
   23300    217.86572   -389.57707    132131.69   -40920.295    2706.7672   -43627.062    29.214239   0.94386141 
   23400    221.03893   -479.17712     132300.6   -40852.849    2746.1912    -43599.04    29.300575   0.94265635 
   23500    220.55086   -490.78891    132499.15   -40893.572    2740.1275   -43633.699    29.315417   0.94124378 
   23600    217.33038   -450.86177    132454.51   -40885.103    2700.1162   -43585.219    29.196331   0.94156101 
   23700    218.10565   -368.30289    132632.81   -40925.909    2709.7481   -43635.657    29.119916   0.94029526 
   23800    216.37482   -431.03284    132808.48   -40985.389    2688.2443   -43673.633    29.188859   0.93905149 
   23900    217.04944   -645.84353    132762.99    -41002.83    2696.6258   -43699.455    29.290948   0.93937326 
   24000    217.73014   -402.84348    132842.17   -40918.165    2705.0828   -43623.248    29.394645   0.93881337 
   24100    218.19633   -554.74004    132739.44   -40922.336    2710.8748   -43633.211    29.475513   0.93953994 
   24200    218.80709   -453.76187     132541.9   -40990.372    2718.4628   -43708.835    29.537358   0.94094019 
   24300    213.19775   -665.94968    132494.38   -40956.236    2648.7723   -43605.009    29.498015   0.94127767 
   24400     217.6991   -446.40485    132506.79   -40991.426    2704.6972   -43696.123    29.403525   0.94118952 
   24500    220.23608   -591.46144    132543.66   -40949.176    2736.2167   -43685.393    29.475227   0.94092773 
   24600    217.61718   -513.40572    132565.03   -40930.804    2703.6793   -43634.483    29.469246   0.94077602 
   24700    216.67311   -614.28219    132719.82   -40956.794    2691.9502   -43648.744    29.483129   0.93967885 
   24800    220.71336   -622.86081    132762.45    -40957.49    2742.1464   -43699.636    29.748187   0.93937707 
   24900    223.76009   -449.35528    132840.14   -40911.341     2779.999    -43691.34    29.644644   0.93882768 
   25000    222.02921   -391.69913    132895.84   -40887.589    2758.4946   -43646.084    29.743333   0.93843419 
   25100    220.61672   -452.50981    133034.04   -40887.261    2740.9458   -43628.207    29.718902   0.93745935 
   25200    216.42215   -423.43842    132906.98   -40932.249    2688.8323   -43621.081    29.638207   0.93835558 
   25300    219.94176   -633.55058    132899.71    -40943.68      2732.56    -43676.24    29.755847   0.93840689 
   25400    215.98788   -369.15412    132743.14   -40936.952    2683.4369   -43620.389    29.699525   0.93951373 
   25500    220.42873   -462.61631    132697.61   -40899.207    2738.6101   -43637.817    29.802399    0.9398361 
   25600    215.57574   -527.88343    132638.31   -40961.063    2678.3165   -43639.379    29.991133   0.94025625 
   25700    218.03982   -529.96148    132625.35   -40975.713    2708.9303   -43684.643    29.983339   0.94034813 
   25800    215.33716   -459.34052    132776.27   -40945.151    2675.3524   -43620.503    29.846267   0.93927932 
   25900     220.4088   -541.30336     132794.2   -40907.784    2738.3626   -43646.146    29.952111   0.93915251 
   26000    222.39683   -534.62097     132685.1    -40846.82    2763.0618   -43609.882    29.988135   0.93992468 
   26100     214.8818   -389.98989    132566.36   -40914.487     2669.695   -43584.182    30.203744   0.94076663 
   26200    218.89312   -487.89972    132501.01   -40890.278    2719.5316   -43609.809    30.287892    0.9412306 
   26300    218.54186   -432.98046    132519.13   -40860.862    2715.1677   -43576.029    30.467765   0.94110191 
   26400    222.60766   -366.43293    132651.23   -40834.266    2765.6812   -43599.948    30.416451    0.9401647 
   26500    217.89728   -589.97087    132614.86   -40895.295    2707.1594   -43602.454      30.2078   0.94042253 
   26600    214.80514   -473.05517    132436.59   -40938.133    2668.7426   -43606.876     30.23242   0.94168839 
   26700    217.02655   -499.69977    132478.16   -40964.745    2696.3414   -43661.086     30.37763   0.94139296 
   26800    220.94439   -395.64383    132505.86   -40893.934    2745.0167    -43638.95    30.732667   0.94119613 
   26900    217.91011   -620.64787    132505.82   -40890.318    2707.3187   -43597.637    30.950398   0.94119645 
   27000    218.07855   -682.54608     132475.7   -40924.151    2709.4114   -43633.563     30.90987   0.94141043 
   27100    215.28075    -351.2398     132316.7   -40928.637    2674.6516   -43603.289    30.849969   0.94254166 
   27200    215.40547   -381.19961    132528.09   -40938.965    2676.2011   -43615.166    31.059278   0.94103827 
   27300    215.51632    -570.1505    132624.48   -40965.525    2677.5782   -43643.103    30.965851   0.94035434 
   27400     218.6359   -587.88806    132574.44   -40916.384     2716.336    -43632.72    31.024319   0.94070923 
   27500    220.41562   -367.87206     132573.4   -40862.815    2738.4472   -43601.262    31.220036   0.94071661 
   27600    218.62752   -580.66026    132619.96   -40892.024    2716.2319   -43608.256    31.207286   0.94038638 
   27700    221.21896   -352.51527    132741.54   -40891.525     2748.428   -43639.953    31.339679   0.93952505 
   27800    222.05215   -479.92396     133009.1    -40823.32    2758.7795     -43582.1     31.54736   0.93763511 
   27900    220.80516   -564.91577    132839.07   -40851.583     2743.287    -43594.87    31.696569   0.93883524 
   28000    220.81276   -550.10139    132954.44   -40883.369    2743.3813    -43626.75    31.643854   0.93802058 
   28100    219.39995   -512.83826    132746.53   -40875.397    2725.8286   -43601.226    31.703796   0.93948976 
   28200    219.56336   -590.29212    132812.52   -40936.197    2727.8588   -43664.056    31.724773   0.93902297 
   28300      219.867   -432.92845    132956.84   -40929.845    2731.6312   -43661.476    31.712409   0.93800366 
   28400    216.32976   -597.60662    132916.47   -40977.997    2687.6844   -43665.681     31.80541   0.93828856 
   28500     213.7926   -432.62244    133014.66   -41004.844    2656.1627   -43661.006    31.929237   0.93759594 
   28600    215.58407    -437.0088     133157.8   -40952.482      2678.42   -43630.902    32.010347   0.93658805 
   28700    218.03219   -639.49264    133256.86   -40956.505    2708.8354   -43665.341    31.931325   0.93589184 
   28800    218.61534   -565.97476    133235.03   -40905.787    2716.0805   -43621.867    32.147671   0.93604516 
   28900     219.4687   -531.61129    133249.97   -40854.216    2726.6827   -43580.899     32.18359    0.9359402 
   29000    216.97494   -469.65368    133062.86   -40919.486    2695.7002   -43615.186    32.226443   0.93725627 
   29100    219.01253   -429.83407    132957.69   -40859.072    2721.0152   -43580.088    32.283666   0.93799764 
   29200    218.44514   -499.83899     132996.6   -40815.875     2713.966   -43529.841    32.507963   0.93772328 
   29300    215.77715   -668.42633    132916.36   -40866.688    2680.8188   -43547.507    32.641435   0.93828933 
   29400    217.20061   -580.03313    132669.83   -40904.162     2698.504   -43602.666    32.700282   0.94003286 
   29500    213.30777   -657.76614    132695.19   -40929.016    2650.1392   -43579.155    32.833956   0.93985323 
   29600     217.5605   -497.12516    132727.11   -40858.432    2702.9751   -43561.407    32.736686   0.93962721 
   29700     217.7286   -449.99494     133005.7   -40909.309    2705.0637   -43614.372    32.739539   0.93765909 
   29800    213.65975   -460.56941    132902.47   -40874.783    2654.5122   -43529.295    32.742299   0.93838743 
   29900    216.16596   -672.65963    132765.69   -40906.017    2685.6494   -43591.666    32.795003   0.93935415 
   30000    217.84041   -328.11415    132756.23    -40874.33    2706.4528   -43580.783    32.938185   0.93942113 
   30100    220.97362   -340.25759    132784.09   -40869.577    2745.3798   -43614.957    33.140389   0.93922398 
   30200    214.17391   -539.20836     132761.3   -40883.057    2660.9002   -43543.958    33.238885   0.93938523 
   30300    218.33049   -473.16993       132781   -40846.057    2712.5416   -43558.599    33.197594   0.93924585 
   30400    224.50914    -409.3762    132779.46   -40836.744    2789.3053   -43626.049    33.366072   0.93925677 
   30500    219.32852   -364.61141    133016.46   -40860.835    2724.9411   -43585.776    33.363811   0.93758327 
   30600    220.90904   -502.33946    133225.19   -40860.669    2744.5775   -43605.246    33.538172    0.9361143 
   30700    217.09513    -664.7909    132909.41   -40886.382    2697.1934   -43583.575    33.599966   0.93833839 
   30800    221.22165   -548.66441    132948.59   -40822.453    2748.4613   -43570.914     33.63802   0.93806186 
   30900    218.22537   -607.55676    133069.08   -40928.383    2711.2355   -43639.618    33.573945   0.93721246 
   31000    214.39884   -566.82359    133131.21   -40980.698    2663.6947   -43644.393     33.67083   0.93677513 
   31100    219.59603   -492.19907    133085.07   -40987.924    2728.2646   -43716.189    33.851945   0.93709991 
   31200    214.35184   -395.74324    132899.28   -40993.602    2663.1107   -43656.713    33.827534   0.93840992 
   31300    216.69512   -563.61237    132866.25   -40933.692    2692.2237   -43625.916    33.913626   0.93864318 
   31400    220.47539   -447.01507    132719.55   -40887.145    2739.1899   -43626.334    33.995443   0.93968071 
   31500    215.81279   -474.59673    132863.44    -40930.23    2681.2616   -43611.491    34.149236   0.93866307 
   31600    218.49749   -559.98666    132797.78   -40867.403    2714.6163   -43582.019    34.286788   0.93912719 
   31700    217.33754   -579.69973    132702.61   -40892.168    2700.2051   -43592.373    34.354701   0.93980072 
   31800    219.63559   -481.54949    132873.05   -40835.627    2728.7561   -43564.383    34.494004   0.93859516 
   31900    218.43079   -463.57475    132963.85   -40807.429    2713.7877   -43521.216    34.545455    0.9379542 
   32000    223.44133    -420.4633    132830.83   -40808.477    2776.0387   -43584.516    34.487817   0.93889347 
   32100    221.25251   -417.61377    132884.48    -40821.42    2748.8448   -43570.265    34.469384   0.93851443 
   32200    219.32728   -374.57149    132936.87   -40830.101    2724.9257   -43555.027    34.552039   0.93814458 
   32300    220.90311   -512.58422    133093.59   -40794.435    2744.5038   -43538.939     34.66359   0.93703992 
   32400    218.71412   -484.59316    133094.45   -40870.126    2717.3078   -43587.433    34.713531   0.93703387 
   32500    220.04802   -435.22138     133029.5   -40859.236    2733.8802   -43593.116    34.564577   0.93749132 
   32600    219.70776   -341.36686    133099.44   -40824.434    2729.6527   -43554.087    34.640592    0.9369987 
   32700    218.74747   -470.18961    133255.88   -40879.687    2717.7222   -43597.409    34.875587   0.93589872 
   32800    218.31084   -453.38423    133265.64    -40919.19    2712.2974   -43631.487    34.814929   0.93583015 
   32900    217.35778   -550.80293    133166.25   -40922.435    2700.4566   -43622.892    34.772359   0.93652862 
   33000     221.1815   -429.72856    133233.89   -40984.058    2747.9626    -43732.02    34.937427   0.93605314 
   33100    217.87738   -520.69746    133308.98     -40932.7    2706.9121   -43639.612    35.006202   0.93552591 
   33200    215.96112   -400.99357    133180.97   -40985.381    2683.1045   -43668.485    35.028852   0.93642511 
   33300    216.99148   -561.15211    133431.03   -40902.271    2695.9057   -43598.176    35.232727   0.93467014 
   33400    216.16542   -529.53952    133429.05   -40986.523    2685.6426   -43672.166    35.204659   0.93468407 
   33500    218.23271   -460.41002    133504.51   -40966.069    2711.3267   -43677.395    35.130787   0.93415576 
   33600    216.29493   -572.28529    133412.58   -40939.622    2687.2518   -43626.873    35.339099   0.93479945 
   33700    219.46043   -400.83372     133485.5   -40915.304      2726.58   -43641.884    35.300085    0.9342888 
   33800    220.89336   -515.37532    133456.22   -40934.635    2744.3827   -43679.017    35.237601   0.93449374 
   33900    218.15212   -396.08589    133447.28   -40958.328    2710.3255   -43668.653    35.314774   0.93455635 
   34000    221.50971   -370.01322    133368.48   -40924.486    2752.0402   -43676.527    35.362713   0.93510851 
   34100    218.16165   -340.56762    133438.77   -40960.627    2710.4439   -43671.071     35.58262   0.93461594 
   34200    220.27689   -396.32572    133401.56   -40948.455    2736.7237   -43685.178    35.577951   0.93487666 
   34300    217.85091   -548.37777    133328.89   -41000.812    2706.5833   -43707.396    35.613843   0.93538619 
   34400    218.81892   -584.92825    133231.03    -40922.07    2718.6098    -43640.68    35.594356   0.93607325 
   34500    216.67303   -438.28824    133139.92   -40934.973    2691.9493   -43626.922    35.757733   0.93671381 
   34600    221.94509   -376.10261     133241.5   -40914.388    2757.4494   -43671.837    35.814251   0.93599969 
   34700      214.877   -498.69226    133314.64   -40991.744    2669.6353   -43661.379    35.858403   0.93548616 
   34800    213.87649   -525.07117    133264.25   -40980.717     2657.205   -43637.922     35.91205   0.93583992 
   34900    217.60165   -554.41509    133333.65   -40993.067    2703.4864   -43696.554    36.012991   0.93535281 
   35000    217.08848   -599.23795    133377.85   -41066.329    2697.1108    -43763.44    36.108952   0.93504281 
   35100    215.76206   -449.91063     133571.9   -41004.432    2680.6313   -43685.064    36.305056   0.93368443 
   35200     218.8835   -505.81589    133473.36   -41006.307    2719.4122   -43725.719    36.374444   0.93437378 
   35300    216.52206   -433.11181    133503.81   -41004.988    2690.0735   -43695.062    36.365258   0.93416067 
   35400    214.82677   -502.02572    133638.79   -41021.945    2669.0113   -43690.956     36.42053   0.93321708 
   35500    218.98389   -371.68355    133669.44   -40941.007    2720.6594   -43661.666    36.442609   0.93300313 
   35600    218.07329   -483.04352    133712.47   -40971.944    2709.3461    -43681.29    36.496709   0.93270283 
   35700    220.62319   -493.39477    133674.55   -40955.231    2741.0261   -43696.257    36.642153   0.93296747 
   35800    219.85591   -542.85305    133576.54   -41006.128    2731.4934   -43737.622    36.626816   0.93365197 
   35900    222.15006   -568.64799    133447.91   -40973.983     2759.996   -43733.979    36.627175   0.93455193 
   36000    220.37916   -580.45398    133428.38   -40938.082    2737.9943   -43676.076    36.581114   0.93468873 
   36100    221.87144   -472.10215    133498.38   -40977.397    2756.5344   -43733.931     36.63192   0.93419861 
   36200    219.58087   -643.57407    133570.98   -41012.332    2728.0763   -43740.408    36.706914   0.93369088 
   36300    216.31912   -523.16492    133585.21   -41061.264    2687.5522   -43748.816    36.837314   0.93359141 
   36400    219.68565    -609.1686    133568.31   -41002.043    2729.3781   -43731.421    36.948003   0.93370955 
   36500    217.73902   -650.56257    133589.73   -40983.594    2705.1931   -43688.787    36.887695   0.93355981 
   36600    217.12715   -507.56661    133616.67   -41119.929    2697.5912    -43817.52    37.229019   0.93337158 
   36700    218.95835   -551.05795    133519.39   -41048.051    2720.3421   -43768.394    37.336015    0.9340516 
   36800     217.8091   -497.76956    133326.61   -41049.034    2706.0639   -43755.098     37.36623    0.9354022 
   36900    216.28314   -407.53978    133341.63    -41049.54    2687.1052   -43736.645    37.050729   0.93529684 
   37000    222.39498   -379.86623    133313.84   -40996.333    2763.0389   -43759.372    37.065566   0.93549178 
   37100    222.97758   -320.92345    133387.57   -40990.328     2770.277   -43760.605     37.19551   0.93497471 
   37200    215.13622    -612.5424    133371.59   -41030.043    2672.8559   -43702.899    37.408867   0.93508674 
   37300    212.88541   -488.57265    133180.51   -41041.792    2644.8918   -43686.684    37.466009   0.93642835 
   37400    213.51056   -374.90639    133472.81   -41085.456    2652.6587   -43738.114    37.563592   0.93437758 
   37500    216.65334   -596.81404    133370.11   -41105.978    2691.7046   -43797.683    37.536196   0.93509711 
   37600    218.51486   -423.52153    133572.58   -41069.698    2714.8321    -43784.53    37.590257   0.93367966 
   37700    219.21675   -331.72818    133566.38   -41095.282    2723.5525   -43818.835    37.619046   0.93372305 
   37800      213.747   -480.44956    133636.93    -41195.68    2655.5962   -43851.277    37.650039   0.93323007 
   37900    216.88061   -623.97646    133572.04   -41144.521    2694.5282   -43839.049    37.602871   0.93368346 
   38000     216.6732   -408.95928    133599.81   -41135.035    2691.9513   -43826.986    37.696673   0.93348937 
   38100    218.22342   -575.91979    133577.69   -41081.073    2711.2114   -43792.284    37.769439   0.93364394 
   38200     214.5168   -560.44534    133500.03   -41088.609    2665.1602   -43753.769    37.793853   0.93418706 
   38300     223.4285   -458.77022    133368.13   -41051.458    2775.8793   -43827.338    37.609268   0.93511099 
   38400    217.03337   -529.05292     133349.2   -41112.633    2696.4261   -43809.059    37.670468   0.93524371 
   38500    218.03694   -387.16007    133331.05   -41113.904    2708.8945   -43822.798    37.922542   0.93537106 
   38600    219.82786   -420.81281    133290.57   -41071.929     2731.145   -43803.074    38.001168   0.93565512 
   38700    218.73381   -553.37204    133378.23   -41068.678    2717.5524    -43786.23    37.734633   0.93504018 
   38800     214.0645   -434.95417    133363.93   -41096.637    2659.5408   -43756.178    37.763996    0.9351404 
   38900    223.94502   -482.77885    133537.55   -41037.128    2782.2965   -43819.424    37.911944    0.9339246 
   39000    221.11886   -375.73111    133588.74   -41085.049    2747.1843   -43832.233    38.131734   0.93356676 
   39100    218.03929   -545.13009    133471.96   -41044.909    2708.9237   -43753.833    37.843754   0.93438354 
   39200    219.78964   -500.22336    133455.18    -41074.66      2730.67    -43805.33    37.885309     0.934501 
   39300    215.40511   -434.91572    133449.65   -41062.918    2676.1966   -43739.114    37.994477   0.93453973 
   39400    220.81193   -602.25964     133448.3   -41036.662     2743.371   -43780.033    38.145968   0.93454921 
   39500    223.65669   -679.14419    133492.14   -41015.873    2778.7144   -43794.587    38.182129   0.93424228 
   39600    215.67818    -500.9403    133473.95   -41055.684    2679.5892   -43735.273    38.243232   0.93436961 
   39700     219.8923   -516.59498     133550.7   -41004.894    2731.9455    -43736.84    38.268784   0.93383266 
   39800    222.14044   -416.33531    133515.06    -41091.77    2759.8764   -43851.647    38.356962    0.9340819 
   39900    212.82374   -589.32831    133450.69   -41129.613    2644.1256   -43773.739    38.334494   0.93453248 
   40000     212.8394   -625.87249    133433.75    -41141.33    2644.3202    -43785.65    38.394262   0.93465114 
   40100    220.82588   -494.37062    133555.51   -41050.568    2743.5444   -43794.112    38.132641   0.93379902 
   40200    220.06177   -392.85459     133615.8   -41050.367     2734.051   -43784.418    38.283412   0.93337764 
   40300    220.13126    -612.3212    133567.91   -41049.866    2734.9144   -43784.781    38.442716   0.93371236 
   40400     218.6391   -569.53488    133432.95   -40966.142    2716.3757   -43682.518    38.477255   0.93465673 
   40500    220.84385   -391.22308    133291.14   -40964.046    2743.7676   -43707.814    38.302202   0.93565112 
   40600    216.39273   -495.25802    133346.78    -41000.05    2688.4667   -43688.517    38.494155   0.93526072 
   40700    218.47392     -533.857    133339.58   -41044.571    2714.3236   -43758.894    38.396005   0.93531121 
   40800    217.49321   -455.18871    133291.87   -41085.262    2702.1392   -43787.401    38.498838   0.93564602 
   40900    216.89828   -528.93918    133262.16   -41115.683    2694.7478   -43810.431    38.606979   0.93585461 
   41000    214.62324   -453.08546    133515.64   -41024.021    2666.4826   -43690.504    38.765226   0.93407785 
   41100     221.8653   -519.36171    133521.66   -41008.556    2756.4581   -43765.014    38.793913   0.93403572 
   41200    219.61053   -619.11576    133465.99   -41017.871    2728.4448   -43746.315    38.720297   0.93442532 
   41300    216.31984   -481.38835    133296.99   -41173.972    2687.5613   -43861.533     38.58893   0.93561007 
   41400    211.79933   -453.70481    133313.38   -41133.815    2631.3984   -43765.213    38.701631   0.93549504 
   41500    214.94533   -465.04148    133255.01     -41125.5    2670.4843   -43795.985    38.801828   0.93590479 
   41600    216.89761   -444.53672    133336.53   -41073.064    2694.7395   -43767.804    38.840951    0.9353326 
   41700    219.88148   -446.86509    133464.58   -41053.752    2731.8111   -43785.563    38.851273    0.9344352 
   41800    216.98409   -619.80235    133312.65   -41062.351    2695.8139   -43758.165    38.833812   0.93550012 
   41900    216.70672   -506.03962    133456.88    -41055.52    2692.3678   -43747.888    38.959963   0.93448914 
   42000    218.40402   -431.22977    133367.55   -41046.987    2713.4551   -43760.443    39.192203   0.93511505 
   42100    215.27521   -565.82835    133424.67    -41025.25    2674.5828   -43699.833    39.279518   0.93471473 
   42200    221.34188   -427.78571     133438.8   -40966.334    2749.9552   -43716.289    39.402494   0.93461577 
   42300    216.99205    -556.3296    133252.36   -40950.557    2695.9128    -43646.47    39.295611   0.93592341 
   42400    219.91319   -332.97238     133274.1   -40989.192    2732.2051   -43721.397    39.283316   0.93577076 
   42500     219.0261   -532.38533    133285.27   -40984.974    2721.1839   -43706.158    39.365985   0.93569233 
   42600    217.78823   -552.83766    133251.12   -40979.056    2705.8045   -43684.861    39.361085   0.93593213 
   42700    221.35143   -630.29094    133291.77    -40992.59    2750.0738   -43742.664      39.3792   0.93564668 
   42800    220.23316   -517.08938    133404.54   -40970.178    2736.1804   -43706.358    39.498849   0.93485578 
   42900    221.42657   -343.75641     133378.5   -41036.212    2751.0074   -43787.219    39.523395   0.93503827 
   43000    216.63883   -470.24981    133263.98   -41077.593    2691.5243   -43769.117    39.577628   0.93584182 
   43100    218.17308    -434.9708    133174.27    -41046.46     2710.586   -43757.046    39.647175   0.93647221 
   43200    221.12573   -428.81507    133455.45   -40992.661    2747.2697    -43739.93     39.80688   0.93449918 
   43300    220.77598   -554.06606    133383.91   -41013.843    2742.9244   -43756.767    39.535742   0.93500038 
   43400    218.90371   -361.82652    133480.67   -40990.529    2719.6632   -43710.192     39.72232   0.93432258 
   43500    222.79668   -572.16156    133446.26   -40985.343    2768.0295   -43753.373    39.676792   0.93456352 
   43600    223.09544   -318.10538    133504.13   -40923.215    2771.7414   -43694.957     39.90021   0.93415839 
   43700    223.86661   -454.64261     133545.3   -40953.643    2781.3224   -43734.966    39.855279   0.93387038 
   43800     223.9649   -504.46769     133593.3   -40961.568    2782.5436   -43744.112    39.924169   0.93353489 
   43900    217.50127   -482.80121     133673.6    -41017.73    2702.2393   -43719.969    40.104894   0.93297405 
   44000    215.12613   -549.35253    133657.89   -41041.138    2672.7305   -43713.869     40.28883   0.93308374 
   44100    220.15519   -560.01569    133685.82   -41071.505    2735.2117   -43806.717    40.346892    0.9328888 
   44200    216.64955   -603.35448    133648.36   -41111.469    2691.6575   -43803.127    40.359735   0.93315029 
   44300    218.64646     -543.033    133687.38   -41108.006    2716.4672   -43824.473     40.33552   0.93287793 
   44400    215.64419   -430.84508    133864.64   -41091.268    2679.1669   -43770.434    40.464777   0.93164261 
   44500     218.4171   -578.45666    133775.85   -41108.353    2713.6176   -43821.971    40.660445   0.93226096 
   44600    215.52122   -565.45038    133790.15   -41162.237    2677.6392   -43839.876    40.508612   0.93216134 
   44700    219.78122   -422.41158     133501.8   -41141.674    2730.5655   -43872.239    40.580168   0.93417472 
   44800    217.47961   -450.98915     133621.2   -41121.274    2701.9703   -43823.244    40.537054   0.93333993 
   44900    220.67207   -420.34548    133627.79   -41075.765    2741.6334   -43817.399    40.535762   0.93329394 
   45000    222.07041   -511.18497    133620.06   -41054.529    2759.0063   -43813.535    40.562523    0.9333479 
   45100    223.39897    -371.2444    133661.19   -41011.272    2775.5124   -43786.784    40.640703    0.9330607 
   45200    219.07301   -767.91463    133616.49   -41083.421    2721.7666   -43805.187    40.804457   0.93337283 
   45300    219.59961   -348.35391    133639.13   -41086.029    2728.3092   -43814.339    40.817423   0.93321474 
   45400    220.44499   -513.60434    133700.15   -41094.861    2738.8121   -43833.673    40.661388   0.93278882 
   45500    220.02702   -657.73128    133648.74   -41100.178    2733.6193   -43833.798    40.764365   0.93314764 
   45600    221.09597   -565.02552     133665.7   -41097.762    2746.8999   -43844.662    40.674959   0.93302922 
   45700     220.3131   -448.45695    133665.44   -41090.118    2737.1735   -43827.292    40.839268   0.93303101 
   45800    222.72115   -567.00241    133691.11   -41061.526    2767.0911   -43828.617    40.964593   0.93285188 
   45900    220.93731   -421.70442    133648.25   -40990.631    2744.9287    -43735.56    40.873405   0.93315102 
   46000    226.83247   -521.98126    133663.24   -40977.766    2818.1703   -43795.937    40.793634   0.93304639 
   46100    227.90139   -434.08367    133674.54   -40938.519    2831.4506   -43769.969    40.937017   0.93296752 
   46200    228.02674    -525.8426    133757.59   -40945.155    2833.0079   -43778.163    40.778693   0.93238825 
   46300    227.57726   -417.79524    133781.13   -40978.795    2827.4235   -43806.218    40.691854   0.93222417 
   46400    219.95171   -602.15511    133667.85   -41056.256    2732.6837   -43788.939    40.790059   0.93301423 
   46500    222.87218   -515.10898     133633.7    -41051.48    2768.9676   -43820.448    40.983468   0.93325264 
   46600     223.6166   -458.65471    133570.58   -41047.354    2778.2162    -43825.57    40.948029   0.93369366 
   46700    221.20415   -581.95486    133515.56   -41098.728     2748.244   -43846.972    41.040862   0.93407843 
   46800    217.15082   -620.98915    133435.89   -41158.803    2697.8853   -43856.689    40.913465   0.93463614 
   46900    222.40769   -686.05263    133336.51   -41094.372    2763.1968   -43857.569      40.7031   0.93533271 
   47000    221.18454   -649.08532    133353.52   -41058.753    2748.0003   -43806.753    40.850218   0.93521347 
   47100    224.87606   -430.98287    133504.75   -41047.498    2793.8639   -43841.362    40.999949   0.93415409 
   47200    220.54393   -379.31752    133483.44   -41105.349    2740.0413    -43845.39    41.165916   0.93430318 
   47300    220.02704   -430.54015    133486.12   -41122.511    2733.6195    -43856.13    41.179773   0.93428445 
   47400    218.90358   -477.57146    133430.83   -41085.308    2719.6616   -43804.969    41.231904   0.93467157 
   47500    223.83447   -317.45281    133594.18   -41021.546    2780.9231   -43802.469    41.412758   0.93352874 
   47600    220.81937   -567.42743    133735.83   -40986.794    2743.4634   -43730.257     41.53696   0.93253996 
   47700    220.32483   -428.60212    133800.29   -41019.588    2737.3193   -43756.908     41.60081   0.93209069 
   47800    220.60178   -369.29746    133817.68   -41029.962    2740.7601   -43770.723    41.486292   0.93196955 
   47900    216.86919   -467.87999     133833.8   -41104.395    2694.3863   -43798.782    41.670445   0.93185729 
   48000    218.27633   -683.35094    133829.53   -41125.596    2711.8687   -43837.465    41.658378     0.931887 
   48100    223.57761   -546.35291    133810.45   -41094.464    2777.7319   -43872.196    41.967011    0.9320199 
   48200    218.71655   -346.55704    133654.78   -41124.386     2717.338   -43841.724    41.900037   0.93310546 
   48300    215.01406   -488.83826    133706.29   -41112.285    2671.3382   -43783.624    41.897112     0.932746 
   48400    221.82207   -494.94891    133858.18   -41037.624     2755.921   -43793.545    41.911862   0.93168759 
   48500    222.73967   -613.35734    133766.79   -41117.484    2767.3213   -43884.805    41.858443   0.93232413 
   48600     218.6904   -334.39835    133570.49    -41117.46    2717.0131   -43834.473    41.884702   0.93369428 
   48700    218.45855   -475.05804    133749.92   -41101.441    2714.1326   -43815.573    41.923186   0.93244172 
   48800    222.43649   -513.53065    133854.07   -41117.509    2763.5545   -43881.064    41.846148   0.93171616 
   48900    216.29159   -466.67807    133708.28   -41097.525    2687.2102   -43784.735      41.8538   0.93273206 
   49000    222.48027   -582.92629    133592.82   -41137.301    2764.0985     -43901.4    41.991121   0.93353819 
   49100    216.65342   -280.00184    133671.84   -41133.052    2691.7056   -43824.758     42.18962   0.93298634 
   49200    216.98785   -536.73771    133596.56   -41150.661    2695.8605   -43846.521    42.326947   0.93351206 
   49300    220.72585    -364.5378    133664.55   -41100.685    2742.3015   -43842.987    42.378795   0.93303726 
   49400    224.06438    -477.7771     133761.2   -41068.269    2783.7795   -43852.049    42.105878   0.93236311 
   49500    217.96148    -474.8746    133616.12   -41109.453     2707.957    -43817.41    42.158626   0.93337545 
   49600    221.66715   -612.06075    133593.55   -41096.476    2753.9963   -43850.473    42.223404   0.93353315 
   49700    220.25043   -430.72074    133461.64    -41111.65     2736.395   -43848.045    42.348888   0.93445582 
   49800    219.06417   -482.56133    133577.08   -41153.386    2721.6569   -43875.043    42.481686    0.9336482 
   49900    223.80115   -459.91817    133633.05   -41049.886    2780.5091   -43830.395    42.400863   0.93325716 
   50000    221.66232   -392.22809    133677.35   -41073.056    2753.9363   -43826.992    42.152386   0.93294792 
   50100    218.91643   -571.77186    133883.68   -41095.451    2719.8213   -43815.272     42.18239    0.9315101 
   50200     217.2208   -572.41438    133805.21   -41145.023    2698.7547   -43843.777    42.220626   0.93205644 
   50300    217.31101   -519.92255    133848.53   -41123.753    2699.8755   -43823.629     42.39988   0.93175476 
   50400    220.91966   -451.12254    133681.16   -41147.816    2744.7095   -43892.526    42.380115   0.93292132 
   50500    213.67026   -567.80676    133783.68   -41182.769    2654.6428   -43837.412    42.585493   0.93220642 
   50600    216.74236   -549.80195    133690.57    -41194.47    2692.8106    -43887.28    42.689484   0.93285562 
   50700    215.59669   -364.32873    133736.26   -41195.394    2678.5767   -43873.971    42.462065   0.93253691 
   50800    216.48295   -437.23174    133890.24   -41184.699    2689.5877   -43874.286    42.632216    0.9314645 
   50900    219.51113   -448.19396       133809   -41120.204    2727.2098   -43847.414    42.761296   0.93202998 
   51000    218.48265   -531.74299    133867.72   -41130.182     2714.432   -43844.614    42.714218    0.9316212 
   51100     215.4143   -551.46901    133893.31   -41166.769    2676.3108    -43843.08    42.651975   0.93144312 
   51200    215.41988   -674.88936    133925.01   -41136.077    2676.3801   -43812.457    42.709065   0.93122269 
   51300    217.83913   -574.63315    133827.72   -41196.305    2706.4369   -43902.741    42.835853   0.93189965 
   51400    220.43117   -537.59615     133835.1    -41206.54    2738.6404    -43945.18    42.904014   0.93184828 
   51500    217.29667   -594.76811    133786.91   -41225.157    2699.6974   -43924.854    42.955046   0.93218392 
   51600    217.12291   -430.33768    133695.26   -41158.506    2697.5386   -43856.045    42.966695   0.93282293 
   51700    216.58307   -409.56249    133857.16   -41169.959    2690.8315    -43860.79    42.998477   0.93169467 
   51800    221.13342    -518.6169    133896.86   -41229.667    2747.3652   -43977.032    42.987819   0.93141842 
   51900    216.61657   -676.68749    133762.74   -41278.981    2691.2477   -43970.228    42.918438   0.93235234 
   52000     216.6691   -427.74057    133662.75    -41293.57    2691.9005    -43985.47    42.987041   0.93304978 
   52100    216.20699   -513.58171    133658.73    -41214.08    2686.1592   -43900.239    42.927267   0.93307787 
   52200    217.58549   -350.61027     133530.9   -41249.604    2703.2856    -43952.89    43.015853    0.9339711 
   52300    215.60988   -596.86546    133417.94   -41244.838    2678.7407   -43923.579    43.130454   0.93476185 
   52400    219.06971   -404.47583    133670.79   -41197.066    2721.7256   -43918.792    43.079271   0.93299367 
   52500    220.42827   -514.95166     133555.6   -41183.196    2738.6044   -43921.801    43.113118   0.93379838 
   52600    219.79429   -513.10579    133687.18   -41211.613    2730.7279   -43942.341    43.229894   0.93287927 
   52700    220.48567   -416.52357    133737.14   -41233.028    2739.3176   -43972.345    43.163429   0.93253084 
   52800    219.42383   -673.52174    133779.88   -41211.295    2726.1253   -43937.421    43.139775   0.93223289 
   52900    218.02468   -361.14441    133861.23   -41195.961    2708.7422   -43904.703    43.388235   0.93166636 
   53000    220.16652    -550.4387    133914.67   -41179.536    2735.3524   -43914.888    43.610896   0.93129453 
   53100     216.3149   -520.62558    133829.92   -41240.791    2687.4999   -43928.291    43.621433   0.93188435 
   53200     218.8079   -484.88094    134147.36   -41238.864    2718.4729   -43957.337    43.550886   0.92967917 
   53300       218.24   -561.74408    134027.95   -41233.364    2711.4173   -43944.782    43.529126   0.93050742 
   53400    218.58508   -569.70804    134046.21   -41302.162    2715.7046   -44017.867    43.727728   0.93038067 
   53500     215.6075   -605.51712    133945.98   -41311.631    2678.7111   -43990.342    43.776706   0.93107689 
   53600    217.19652   -455.35658    133951.17   -41298.027    2698.4531    -43996.48    43.850064   0.93104082 
   53700    212.56224    -532.0062     133813.2   -41299.095    2640.8767   -43939.972    43.677036   0.93200074 
   53800    219.95804   -558.56735    133747.15   -41178.221    2732.7623   -43910.983    43.784258     0.932461 
   53900    217.95862   -470.18157    133676.15   -41233.087    2707.9215   -43941.009    43.898461    0.9329563 
   54000    220.73074   -528.81652    133746.27   -41190.412    2742.3623   -43932.774    43.733253   0.93246714 
   54100    217.78423   -535.01203    133659.81   -41187.121    2705.7549   -43892.876    43.973622   0.93307036 
   54200    217.47959   -443.70488    133672.57   -41168.488    2701.9699   -43870.457    44.003161   0.93298125 
   54300    218.34712   -596.01101    133824.14   -41135.201    2712.7482   -43847.949    44.315211   0.93192459 
   54400    216.39119   -469.46589    133781.36   -41173.764    2688.4477   -43862.211    44.345766   0.93222255 
   54500    218.92329   -415.13313    133826.92   -41166.518    2719.9065   -43886.424    44.267227   0.93190523 
   54600    219.81901   -586.42278    133961.04   -41082.967     2731.035   -43814.002    44.282582   0.93097222 
   54700     222.7096   -574.23946    133845.39   -41098.285    2766.9477   -43865.232    44.110817   0.93177658 
   54800    221.37126   -569.88174    133899.66   -41178.466    2750.3201   -43928.786    44.110201   0.93139897 
   54900    212.14896   -554.11367    133671.62   -41220.271    2635.7421   -43856.013    44.154545   0.93298788 
   55000    217.34223   -374.63438    133752.96   -41271.211    2700.2634   -43971.474    44.307323   0.93242055 
   55100    219.73451   -613.07602    133892.08   -41228.592    2729.9852   -43958.577    44.556675   0.93145166 
   55200    221.05338   -482.60972    133989.28   -41244.706    2746.3708   -43991.077    44.586604   0.93077601 
   55300    220.80751   -424.27625    134093.24   -41209.465     2743.316   -43952.781    44.450689   0.93005437 
   55400    219.57805   -585.68076    133965.81   -41198.276    2728.0412   -43926.317    44.510666   0.93093903 
   55500    221.07616   -490.92039    133823.89   -41137.095    2746.6538   -43883.749    44.520483   0.93192627 
   55600    215.50883   -395.83802    133771.67   -41169.965    2677.4852    -43847.45    44.492768   0.93229008 
   55700    222.37693   -565.05692    133938.39   -41158.662    2762.8145   -43921.477    44.649644   0.93112966 
   55800     220.1567   -331.35951    134235.09       -41173    2735.2304    -43908.23    44.726193   0.92907153 
   55900    220.74843   -432.53123    134084.48   -41145.366     2742.582   -43887.948    44.650779   0.93011511 
   56000     220.2589   -586.27966    134013.22   -41148.154    2736.5001   -43884.654    44.631605   0.93060972 
   56100    222.32458   -376.32364    134001.44   -41124.759    2762.1642   -43886.923    44.570924   0.93069151 
   56200    220.70899   -605.84978    133895.42   -41131.482    2742.0921   -43873.574    44.749343   0.93142847 
   56300    220.04149   -438.11609     133936.4   -41159.073    2733.7991   -43892.872    44.921336   0.93114347 
   56400    221.03576   -460.13244    133968.78    -41142.63    2746.1518   -43888.782    44.930319   0.93091839 
   56500    217.43007   -480.59162     133931.5   -41230.471    2701.3547   -43931.826    44.952564   0.93117755 
   56600    213.87934   -652.61899    133924.44   -41249.812    2657.2404   -43907.052    44.966615   0.93122662 
   56700    214.81696   -422.71762    133989.54    -41282.15    2668.8894   -43951.039    44.947373   0.93077418 
   56800     219.2828    -424.5651    133959.25   -41216.561    2724.3731   -43940.934    45.200581   0.93098467 
   56900    219.21249   -484.64422     133960.1   -41192.805    2723.4996   -43916.305    45.062591   0.93097876 
   57000    222.80275   -477.06218     133882.1   -41146.096     2768.105   -43914.201     44.89074    0.9315211 
   57100    218.87225   -414.51089    134056.49   -41214.436    2719.2724   -43933.709    45.069878   0.93030931 
   57200    217.84413   -505.70522    134056.18   -41271.564    2706.4991   -43978.063     45.08257   0.93031149 
   57300    213.07113   -596.70872    133949.88   -41321.873    2647.1992   -43969.072    45.423807   0.93104978 
   57400    212.97535   -413.60662     134155.6   -41331.555    2646.0092   -43977.564    45.235043   0.92962205 
   57500    213.10821   -495.85262     134167.4   -41361.299    2647.6599   -44008.959    45.080546   0.92954027 
   57600    219.87253   -498.89624    134255.51   -41323.733    2731.6998   -44055.433    44.908393   0.92893027 
   57700    212.61683   -564.62939    134374.21    -41358.63     2641.555   -44000.185    45.208161   0.92810965 
   57800    216.84676   -546.85943     134163.1   -41372.354    2694.1076   -44066.462    45.285099    0.9295701 
   57900    214.05583   -543.98826    134124.32   -41363.223    2659.4331   -44022.656    45.499588   0.92983882 
   58000    215.42803   -441.47923     134124.7   -41340.678    2676.4814    -44017.16    45.626498   0.92983623 
   58100    217.19432   -564.95234     134214.8   -41285.374    2698.4257     -43983.8    45.455318   0.92921199 
   58200    218.73392   -643.77256    134070.21   -41233.203    2717.5538   -43950.757    45.382731   0.93021414 
   58300    216.73085   -640.24375    133923.33   -41175.651    2692.6676   -43868.319     45.38228   0.93123437 
   58400    220.59739   -353.53806    133922.45   -41173.131    2740.7055   -43913.836    45.344839   0.93124043 
   58500    221.47364   -432.77778    134055.77   -41180.017    2751.5921   -43931.609     45.53975   0.93031434 
   58600    223.50036   -551.79059     133981.9   -41137.256    2776.7721   -43914.028    45.645335   0.93082726 
   58700    214.84036   -564.55931    133915.09   -41151.234    2669.1801   -43820.414    45.656329   0.93129165 
   58800    218.49187   -539.43584    133993.31   -41192.078    2714.5465   -43906.624     45.52446   0.93074797 
   58900     217.7158   -511.83737    133969.46   -41221.289    2704.9046   -43926.194    45.709762    0.9309137 
   59000    215.38136   -424.96984    133937.49   -41209.594    2675.9015   -43885.495    45.753314   0.93113586 
   59100    215.45704   -499.32005    133818.24   -41207.047    2676.8418   -43883.889    45.961033   0.93196568 
   59200    218.57982   -423.97594    133827.66   -41189.389    2715.6392   -43905.028     46.02754   0.93190004 
   59300    219.16653   -549.61409    133984.01   -41172.982    2722.9286   -43895.911    46.069458   0.93081256 
   59400    217.93822   -621.36623    133895.43   -41223.575     2707.668   -43931.243    45.781379   0.93142837 
   59500    220.68672    -460.2011    133783.34   -41185.207    2741.8154   -43927.023     45.69545   0.93220875 
   59600    216.04056   -459.78707     133698.3   -41188.567    2684.0915   -43872.658    45.733973   0.93280171 
   59700      217.594   -509.23413    133567.73   -41203.791    2703.3914   -43907.182    45.890312   0.93371357 
   59800    218.83328   -518.32878    133607.04   -41205.816    2718.7883   -43924.605    46.163891   0.93343883 
   59900      222.246   -547.95641    133681.08    -41192.52    2761.1879   -43953.708    46.153612   0.93292184 
   60000     218.6663   -496.14649    133657.27   -41254.404    2716.7137   -43971.118    46.061008   0.93308805 
   60100    220.49437   -582.52586    133538.44   -41231.213    2739.4256   -43970.639    45.995113   0.93391836 
   60200    220.16714   -511.61943    133682.82   -41186.847    2735.3602   -43922.207    46.115078   0.93290975 
   60300    220.94612   -419.05512    133755.78   -41153.343    2745.0382   -43898.381    46.094452   0.93240085 
   60400    225.65249   -474.19964    133715.42   -41098.667    2803.5102   -43902.177    46.132685   0.93268227 
   60500    219.89171   -469.62959    133700.39   -41144.812    2731.9382   -43876.751    46.250151   0.93278714 
   60600    215.35062   -680.89741    133487.13   -41190.425    2675.5196   -43865.945    46.256936   0.93427734 
   60700    214.87114   -574.76976    133500.23   -41229.426    2669.5625   -43898.988    46.374679   0.93418568 
   60800    220.01272    -446.9426    133644.84   -41181.986    2733.4416   -43915.427    46.484479   0.93317483 
   60900    217.92003   -484.62427    133598.97   -41164.582     2707.442   -43872.024    46.266381   0.93349527 
   61000    217.44232   -472.97588    133633.88   -41218.735    2701.5069   -43920.242    46.506017   0.93325141 
   61100    220.53925   -575.87173    133609.21   -41255.805    2739.9832   -43995.788    46.524544   0.93342372 
   61200    216.21686   -400.32128    133669.75   -41248.268    2686.2818    -43934.55    46.509417   0.93300096 
   61300    218.82299   -381.56219    133723.45   -41234.034    2718.6604   -43952.695    46.567888   0.93262631 
   61400    215.44601   -541.93628    133781.89     -41267.5    2676.7047   -43944.205    46.721929    0.9322189 
   61500    216.73521   -550.59758    133830.93    -41249.86    2692.7218   -43942.582    46.942407   0.93187731 
   61600    218.28905   -484.33738    134055.39   -41202.801    2712.0267   -43914.828    46.985315   0.93031694 
   61700    216.97309   -467.91028    134061.31   -41297.973    2695.6772    -43993.65    47.112683   0.93027585 
   61800    211.58803   -544.09841    133994.25   -41364.378    2628.7731   -43993.151    47.173838   0.93074143 
   61900    214.14874   -576.96996    133937.76   -41310.931    2660.5875   -43971.519    47.349186   0.93113399 
   62000     217.0028   -549.77653    133924.73    -41279.59    2696.0463   -43975.636    47.295637   0.93122458 
   62100    213.67589   -453.64407    133945.35   -41273.721    2654.7128   -43928.433    47.452354   0.93108123 
   62200    217.98415   -481.80973    134082.48   -41214.886    2708.2386   -43923.125    47.377036   0.93012902 
   62300    216.48124   -607.01201    133911.87   -41235.683    2689.5664   -43925.249    47.245388   0.93131402 
   62400    219.40827   -524.52071    133766.24   -41175.814    2725.9319   -43901.746    47.470821   0.93232797 
   62500    218.56518   -618.58918    133693.02   -41180.801    2715.4574   -43896.258    47.523458   0.93283856 
   62600    217.80506    -409.1061    133682.26   -41191.221    2706.0136   -43897.235     47.55016   0.93291367 
   62700    217.87704   -531.33252    133811.61   -41184.129    2706.9079   -43891.036    47.588202   0.93201186 
   62800    217.37609   -525.37294    133907.71    -41193.57    2700.6841   -43894.254    47.864494   0.93134298 
   62900    220.62423   -509.23997    133789.75   -41127.238    2741.0391   -43868.277    47.760615   0.93216414 
   63000    223.53356   -422.61986    133811.76   -41089.143    2777.1846   -43866.327    47.666556    0.9320108 
   63100    220.81872   -536.44161    133743.62   -41068.784    2743.4554    -43812.24    47.822493   0.93248565 
   63200    223.67751   -532.12124    133886.26    -41103.52     2778.973   -43882.493     47.85236   0.93149221 
   63300    218.06193   -586.35319     133678.3   -41155.109     2709.205   -43864.314    47.942094   0.93294124 
   63400      224.871   -522.78446    133661.96   -41063.706     2793.801   -43857.507    47.772202   0.93305532 
   63500    219.31947   -450.60829    133748.26    -41150.28    2724.8286   -43875.109    47.784926   0.93245325 
   63600    221.56362   -416.16467    133941.93   -41157.586      2752.71   -43910.296    48.045949     0.931105 
   63700    220.74211   -452.56292    133800.06   -41167.566    2742.5036    -43910.07    48.045517   0.93209227 
   63800    215.11122   -434.97185    133754.53   -41278.337    2672.5453   -43950.883     47.97222   0.93240955 
   63900    215.23453   -483.35268    133865.33   -41263.345    2674.0773   -43937.423    48.065763   0.93163781 
   64000    218.31943   -497.88486     133774.2   -41253.124    2712.4041   -43965.528    48.146446   0.93227248 
   64100     215.2849   -523.27388    133825.16   -41166.884    2674.7031   -43841.587    48.068594   0.93191743 
   64200    221.84186   -449.30832    133789.79   -41154.037    2756.1669   -43910.204    47.936155   0.93216385 
   64300    221.55854   -489.75382    133676.68   -41071.067    2752.6469   -43823.714    47.968603   0.93295255 
   64400    217.71854   -459.11223    133813.07   -41073.499    2704.9386   -43778.438    47.912591   0.93200164 
   64500    218.07775   -470.41538    133856.62   -41062.092    2709.4015   -43771.494    48.155317   0.93169846 
   64600    223.90794   -573.16367    133760.89   -41112.572    2781.8359   -43894.407     48.08172   0.93236525 
   64700    221.24546   -465.06332    133762.46   -41142.086    2748.7572   -43890.843    48.173589    0.9323543 
   64800    220.23623   -476.50327    133878.59   -41146.838    2736.2185   -43883.057     48.20901   0.93154556 
   64900    222.37648   -459.71879    133755.74   -41113.027     2762.809   -43875.836    48.251464    0.9324011 
   65000    220.99168   -479.75638    133822.21   -41090.982    2745.6042   -43836.586     48.22963   0.93193799 
   65100     216.3102   -625.26613    133780.02   -41111.884    2687.4414   -43799.325    48.292906   0.93223188 
   65200    217.18386   -365.81577     133807.6   -41104.805    2698.2959   -43803.101    48.179838   0.93203974 
   65300    220.26723   -509.08324    133738.73   -41116.269    2736.6036   -43852.872    48.355492   0.93251971 
   65400     223.7292   -535.60053    133838.21   -41077.607    2779.6152   -43857.222    48.436898   0.93182662 
   65500    218.61331   -382.61371    133789.52   -41140.789    2716.0553   -43856.845    48.422131   0.93216569 
   65600     214.5834   -586.88753    133715.83   -41171.981    2665.9876   -43837.969    48.501018   0.93267939 
   65700    219.76874   -437.47128    133634.64   -41226.746    2730.4105   -43957.157     48.68633   0.93324607 
   65800    213.49845   -471.79947    133611.85   -41233.298    2652.5082   -43885.806    48.670691   0.93340528 
   65900    219.69206   -452.63176     133815.8    -41208.24    2729.4577   -43937.698    48.748035   0.93198263 
   66000    221.25254    -447.2273    133938.85   -41123.572    2748.8452   -43872.417    48.498736   0.93112646 
   66100    228.64079   -534.74703    133930.16   -41080.494    2840.6369   -43921.131     48.50164   0.93118686 
   66200    223.36345   -577.96461    133992.49   -41059.273    2775.0712   -43834.344    48.668062    0.9307537 
   66300    220.00892    -540.5879    133965.36   -41133.029    2733.3944   -43866.423    48.777985   0.93094221 
   66400    218.35303   -570.56268    133927.62   -41192.464    2712.8216   -43905.285    48.851642    0.9312045 
   66500    217.87457   -339.83596    133859.86   -41202.241    2706.8773   -43909.118    49.067008   0.93167585 
   66600    219.71365   -558.97316    133905.06   -41226.444     2729.726    -43956.17    49.037189   0.93136139 
   66700    218.59823   -408.66948    133917.11   -41244.681     2715.868   -43960.549    48.815461   0.93127756 
   66800    221.35471   -585.65036    134073.99   -41187.091    2750.1145   -43937.206    48.905346   0.93018792 
[...]
   84700    215.16387   -517.10799    134673.71   -41394.025    2673.1994   -44067.224    55.580284   0.92604568 
   84800    215.15523   -452.63756    134611.73    -41369.32     2673.092   -44042.412    55.405044   0.92647202 
   84900    216.17217   -587.67213    134506.39   -41345.467    2685.7266   -44031.194    55.386859   0.92719764 
   85000    217.04925   -428.32138    134643.24   -41303.931    2696.6234   -44000.555    55.570984   0.92625519 
   85100    218.09773   -600.15609    134586.15   -41292.883    2709.6498   -44002.533    55.378078    0.9266481 
   85200    223.92299   -548.13391    134462.24   -41316.931    2782.0229   -44098.954    55.338649   0.92750208 
   85300    216.45358   -568.64708    134589.82   -41342.453    2689.2228   -44031.676     55.56552   0.92662284 
   85400    221.72894   -596.88457    134697.06   -41337.066     2754.764    -44091.83    55.462983   0.92588511 
   85500     216.5736   -280.19487    134787.64   -41305.165    2690.7139   -43995.879    55.460172   0.92526293 
   85600    220.62514   -572.82415    134779.74   -41292.282    2741.0503   -44033.332    55.356586   0.92531714 
   85700    215.87385   -490.99871    134700.73   -41329.849    2682.0203   -44011.869    55.373546   0.92585987 
   85800    214.93062   -394.52752    134696.63   -41324.267    2670.3015   -43994.569    55.354626   0.92588806 
   85900    218.55948   -420.41045    134780.83   -41232.856    2715.3866   -43948.243    55.229554   0.92530967 
   86000    221.97719   -501.55993    134717.49   -41283.719    2757.8482   -44041.567    55.590218    0.9257447 
   86100    218.11454   -480.08017    134780.66   -41297.652    2709.8586   -44007.511    55.495877   0.92531081 
   86200    216.45171   -608.75114    134832.62   -41257.072    2689.1996   -43946.271    55.744703   0.92495424 
   86300    220.70533   -531.56154    134756.29   -41275.603    2742.0467    -44017.65    55.662889   0.92547815 
   86400    220.12734   -531.33541    134576.36   -41290.191    2734.8657   -44025.057    55.688814   0.92671551 
   86500    220.28835   -483.55909    134604.86   -41284.761    2736.8661   -44021.627    55.477895   0.92651931 
   86600    223.10107   -677.53436    134517.21   -41236.651    2771.8113   -44008.463    55.573812   0.92712301 
   86700    219.72982    -645.7708    134397.59   -41213.843    2729.9268    -43943.77    55.702112   0.92794822 
   86800    216.79551   -594.51991    134394.21   -41272.045     2693.471   -43965.516    55.838716   0.92797154 
   86900    221.82058   -454.30183    134471.66   -41251.266    2755.9025   -44007.169    55.856645   0.92743705 
   87000    219.52528    -469.5572    134643.91   -41251.905    2727.3856   -43979.291    55.915435   0.92625061 
   87100    215.50536    -520.9437    134661.29   -41273.825    2677.4421   -43951.267    55.912479    0.9261311 
   87200    218.39432   -594.96733    134502.83   -41290.802    2713.3346   -44004.137    55.934468   0.92722212 
   87300    217.30843    -401.6267     134552.7   -41285.316    2699.8435   -43985.159    55.965813   0.92687846 
   87400    218.04407   -482.99191    134504.27   -41300.709    2708.9831   -44009.692    55.953635   0.92721226 
   87500    216.50103   -426.87785    134524.65   -41308.544    2689.8123   -43998.356    56.260495   0.92707175 
   87600    211.81848   -444.70685     134382.9   -41298.112    2631.6362   -43929.748    56.049246   0.92804962 
   87700    221.09188   -518.50079    134346.51   -41315.028    2746.8491   -44061.878    56.036459   0.92830102 
   87800    217.08589   -695.66874    134230.92   -41287.749    2697.0787   -43984.828    55.922931   0.92910044 
   87900    217.92758   -464.53366    134252.93   -41312.624    2707.5358    -44020.16    56.254298   0.92894811 
   88000    214.81963   -535.03756     134284.9   -41316.509    2668.9226   -43985.432    56.157828   0.92872692 
   88100    215.51013   -504.40108    134267.77   -41257.899    2677.5013     -43935.4    56.033701   0.92884542 
   88200     226.3969   -342.37475     134464.3   -41225.392    2812.7588   -44038.151    56.364529   0.92748783 
   88300    222.35771   -464.53978    134247.05   -41275.522    2762.5758   -44038.098    56.111707   0.92898881 
   88400    217.62623   -423.14194    134428.35   -41366.945    2703.7918   -44070.737    56.300016   0.92773586 
   88500     221.7529   -477.76767     134627.7   -41292.926    2755.0616   -44047.988      56.4245   0.92636216 
   88600    217.91973    -517.9222     134569.4   -41241.447    2707.4382   -43948.885    56.406225   0.92676346 
   88700    218.80024   -484.63879     134482.5   -41214.401    2718.3778   -43932.779    56.641895   0.92736233 
   88800    223.62741   -407.21077    134601.18   -41171.448    2778.3506   -43949.798    56.734888   0.92654468 
   88900    219.83306   -506.04928    134501.99    -41211.07    2731.2095    -43942.28    56.539005   0.92722795 
   89000    222.74249   -480.51871    134694.41    -41196.36    2767.3563   -43963.716    56.376374   0.92590336 
   89100    214.77872   -487.02748    134671.03   -41283.373    2668.4143   -43951.787    56.450521   0.92606409 
   89200    218.31736   -458.90904    134717.28   -41318.295    2712.3784   -44030.674    56.451419   0.92574616 
   89300    216.58352   -482.15491    134729.27   -41344.118    2690.8372   -44034.955    56.661085   0.92566376 
   89400     215.8802   -590.08731    134644.09   -41375.929    2682.0991   -44058.028    56.626091    0.9262494 
   89500    217.45452   -431.31673    134516.77   -41398.995    2701.6585   -44100.653    56.751618   0.92712605 
   89600    210.95438   -517.53136    134572.04   -41437.841    2620.9007   -44058.741     56.60525   0.92674529 
   89700    213.78566    -434.5635    134659.88   -41387.352    2656.0765   -44043.429    56.715155   0.92614076 
   89800    215.56038   -378.21179    134713.39   -41339.047    2678.1257   -44017.173    56.614566   0.92577291 
   89900    217.12916   -536.27343    134476.94   -41408.529    2697.6162   -44106.145    56.578308   0.92740069 
   90000    216.81833   -588.39779    134521.43   -41307.329    2693.7544   -44001.083    56.780469   0.92709394 
   90100    213.22655   -452.52218    134521.93    -41298.12    2649.1302    -43947.25    56.802237   0.92709051 
   90200    215.77122   -548.40245    134433.29   -41353.732    2680.7452   -44034.478    56.971693   0.92770182 
   90300    219.38062   -363.56272    134333.15   -41362.294    2725.5884   -44087.882    56.924234   0.92839339 
   90400     217.5531   -545.28318    134388.04   -41349.834    2702.8833   -44052.717    56.670127   0.92801417 
   90500    221.82076   -437.13555    134493.17   -41308.607    2755.9048   -44064.511    56.880972   0.92728874 
   90600    221.29755   -469.99781    134479.79   -41223.308    2749.4043   -43972.712    56.817795   0.92738098 
   90700    219.81513   -472.01526    134450.35   -41227.499    2730.9868   -43958.485    56.974793   0.92758406 
   90800    220.69221   -605.46588    134500.35   -41261.469    2741.8836   -44003.353    57.204986   0.92723924 
   90900    218.12682   -506.03057    134605.93   -41346.383    2710.0111   -44056.394    57.192043   0.92651197 
   91000    217.38091   -568.22597    134496.51   -41378.753     2700.744   -44079.497    57.048896   0.92726569 
   91100    212.97065   -460.60408    134461.68   -41347.691    2645.9509   -43993.642     57.03707   0.92750593 
   91200    215.97954   -506.28771    134501.41   -41317.553    2683.3333   -44000.886    57.145121   0.92723193 
   91300    221.79249    -557.3415     134437.8   -41217.526    2755.5535    -43973.08    57.097581   0.92767068 
   91400    223.59647   -408.25459    134539.02   -41192.859    2777.9662   -43970.826    57.111237   0.92697272 
   91500    218.77481   -500.40313    134504.57   -41198.081    2718.0617   -43916.143    57.109868   0.92721018 
   91600    217.33261   -416.36719    134501.03   -41245.221    2700.1439   -43945.365    57.362973   0.92723453 
   91700    214.78661   -397.63534    134530.92   -41315.573    2668.5124   -43984.085    57.288786   0.92702853 
   91800    217.17237     -468.215    134538.18   -41283.917    2698.1531   -43982.071    57.483672    0.9269785 
   91900    217.08074   -423.99223    134564.24    -41289.58    2697.0147   -43986.595     57.42225   0.92679898 
   92000    222.31046   -521.66116    134694.21   -41281.176    2761.9887   -44043.164     57.24805   0.92590471 
   92100    218.76437   -469.75951    134757.25   -41335.745    2717.9321   -44053.677    57.445272    0.9254716 
   92200    222.80443   -597.92263    134567.81   -41278.169    2768.1259   -44046.295    57.406567    0.9267744 
   92300    220.90595   -507.83325     134560.6   -41196.386    2744.5391   -43940.925    57.687067   0.92682407 
   92400    221.77009   -536.53123    134482.76   -41195.391    2755.2752   -43950.667    57.404009   0.92736051 
   92500    219.40784   -664.57762    134448.15   -41234.864    2725.9266    -43960.79     57.36287   0.92759924 
   92600    216.11184   -484.63224    134407.27   -41226.773    2684.9771    -43911.75    57.390772   0.92788138 
   92700    221.50288   -553.70565    134325.09   -41215.489    2751.9554   -43967.444    57.535055   0.92844904 
   92800    219.87121   -472.56421    134441.01       -41246    2731.6835   -43977.684    57.483306   0.92764852 
   92900    223.14503   -416.09235    134400.42   -41206.369    2772.3575   -43978.726    57.420628   0.92792869 
   93000    217.77698   -613.87305    134310.22   -41246.633    2705.6647   -43952.298    57.499594   0.92855184 
   93100    219.38503   -567.97083    134440.28   -41175.948    2725.6432   -43901.591    57.448203   0.92765353 
   93200    221.13084   -538.97265    134217.35   -41200.977    2747.3332    -43948.31    57.230157   0.92919434 
   93300     220.9953   -584.67733    134231.79   -41216.305    2745.6492   -43961.955    57.613227    0.9290944 
   93400    215.05019   -493.34015    134285.15   -41240.038    2671.7871   -43911.825    57.389637   0.92872521 
   93500     214.0031   -366.04516    134302.11   -41285.315     2658.778   -43944.093    57.627956   0.92860796 
   93600    218.57666   -629.91895    134062.68   -41350.414       2715.6   -44066.014    57.422767   0.93026639 
   93700    214.03733   -413.52523    134172.16   -41323.364    2659.2032   -43982.568    57.438173   0.92950734 
   93800    217.63402   -533.80849    134135.36   -41281.234    2703.8886   -43985.123    57.768394   0.92976235 
   93900    220.77691   -362.16758    134267.35   -41271.035    2742.9359   -44013.971     57.98551   0.92884835 
   94000    218.17318   -537.30296    134348.45   -41287.796    2710.5872   -43998.383    57.975894   0.92828764 
   94100    215.36089   -507.46905    134084.78   -41292.361    2675.6472   -43968.008    57.974117   0.93011306 
   94200    220.16515   -353.45285    133967.04   -41279.011    2735.3354   -44014.346     57.74744   0.93093047 
   94300    216.90962   -494.54432    134008.23   -41223.386    2694.8887   -43918.275    57.729962   0.93064435 
   94400    223.58733   -479.64526    133942.86   -41214.545    2777.8527   -43992.397    57.564673   0.93109853 
   94500    217.04197   -387.26585    134121.58   -41170.262     2696.533   -43866.795    58.008686   0.92985784 
   94600     224.1994   -537.27241    134080.37   -41225.081     2785.457   -44010.538    58.108819   0.93014361 
   94700    221.79927   -518.85073    134185.95   -41250.638    2755.6377   -44006.276    58.186849   0.92941178 
   94800    221.64963   -563.46878    134358.64   -41234.538    2753.7786   -43988.316    58.293412   0.92821724 
   94900    221.40398   -509.16076    134263.83   -41209.239    2750.7267   -43959.966    58.320184   0.92887268 
   95000    221.75559   -556.93011    134441.11   -41202.971    2755.0951   -43958.066    58.218551   0.92764779 
   95100    223.62094   -409.55497    134359.04    -41204.92    2778.2702    -43983.19    58.227582   0.92821446 
   95200    222.62286   -579.58649    134166.35   -41214.018    2765.8701   -43979.888    58.259387   0.92954753 
   95300    227.45054   -375.88897    134249.61   -41121.019    2825.8492   -43946.868    58.393819   0.92897104 
   95400    220.20786   -621.06728    134202.35   -41207.121    2735.8661   -43942.987    58.617978   0.92929823 
   95500     217.4852   -458.02507    134391.51   -41195.792    2702.0397   -43897.832    58.606732   0.92799019 
   95600    224.93915   -549.32008    134467.88   -41213.031    2794.6476   -44007.679    58.578237   0.92746313 
   95700    220.73855   -504.15223    134469.63   -41289.474    2742.4594   -44031.934    58.595739   0.92745111 
   95800    216.63449   -536.14767    134249.34   -41353.203    2691.4704   -44044.673    58.279222    0.9289729 
   95900    218.02522   -380.14776    134249.57   -41304.513    2708.7489   -44013.262    58.336636   0.92897135 
   96000    221.53357   -508.30763    134359.35   -41371.547    2752.3367   -44123.883    58.426388   0.92821233 
   96100    218.94005   -494.07828    134182.32   -41331.983    2720.1148   -44052.098     58.50355   0.92943694 
   96200    218.40493   -468.49462    134073.68   -41353.106    2713.4664   -44066.572    58.467072   0.93019003 
   96300    220.49017   -464.75295     134225.9   -41299.689    2739.3735   -44039.062    58.576262   0.92913519 
   96400    219.91328   -518.40226    134353.74   -41266.794    2732.2062   -43999.001    58.480724   0.92825109 
   96500    218.93232   -543.61364    134354.49   -41320.922    2720.0187   -44040.941    58.514443   0.92824591 
   96600    217.22074   -497.89593    134290.17   -41309.301     2698.754   -44008.055    58.286187   0.92869051 
   96700     216.3763   -565.21235    134353.39   -41404.247    2688.2627    -44092.51    58.357586    0.9282535 
   96800    213.05964   -432.79782    134236.54   -41441.937    2647.0564   -44088.993    58.421615   0.92906153 
   96900    218.52856    -551.1775    134203.88   -41359.014    2715.0024   -44074.017    58.766647   0.92928762 
   97000    217.52694   -557.01165    134056.38   -41382.699    2702.5582   -44085.257    58.744462   0.93031011 
   97100    216.51516   -495.74744    133978.37    -41366.64    2689.9879   -44056.627    58.811457   0.93085177 
   97200    218.62264   -402.81993    134028.04   -41383.102    2716.1712   -44099.274    58.662739   0.93050684 
   97300    217.75015   -484.57111    134231.19   -41378.292    2705.3315   -44083.624    58.656726   0.92909854 
   97400    216.67376   -617.79752    134209.12   -41379.848    2691.9584   -44071.806    58.557281   0.92925134 
   97500    218.19458   -447.10273       134136   -41286.831    2710.8531   -43997.684    58.660324   0.92975786 
   97600    215.86158   -431.92877    134284.08   -41355.155    2681.8678   -44037.022     58.73114    0.9287326 
   97700    216.82525   -577.92853    134216.68   -41290.673    2693.8405   -43984.514    58.775956   0.92919896 
   97800    219.46278   -385.01517    134385.14   -41260.686    2726.6092   -43987.295     58.94441    0.9280342 
   97900     222.6285   -532.82393    134421.88   -41225.211    2765.9401   -43991.152    59.093846   0.92778054 
   98000    217.36339   -602.02251    134355.41   -41257.677    2700.5264   -43958.204    59.143469   0.92823956 
   98100    215.66526   -399.92791    134247.49   -41331.379    2679.4287   -44010.808    58.951991   0.92898572 
   98200    221.43257    -410.7057    134185.83   -41291.397    2751.0819   -44042.479    59.040453   0.92941259 
   98300    219.02414   -533.38503    134011.62   -41321.703    2721.1595   -44042.862    58.888035   0.93062085 
   98400    219.08984   -661.34476    134057.62   -41310.613    2721.9757   -44032.588    58.802163   0.93030147 
   98500    215.93473   -292.68577    133951.24   -41304.255    2682.7766   -43987.032    58.716363   0.93104031 
   98600    212.29269   -477.55348    133873.73   -41342.884    2637.5279   -43980.412    58.716467   0.93157936 
   98700     218.0783   -553.26122    133869.25   -41371.633    2709.4083   -44081.042    58.778297   0.93161057 
   98800    217.80105   -582.28979    133908.61   -41342.073    2705.9638   -44048.037    58.939243   0.93133671 
   98900    218.03679   -368.71926    133865.64   -41337.774    2708.8927   -44046.666    59.171254   0.93163567 
   99000    216.03235   -446.15221    134118.51   -41364.412    2683.9894   -44048.401    59.071675   0.92987915 
   99100    214.14547   -465.14561    133989.32   -41292.494    2660.5469   -43953.041    59.146139   0.93077571 
   99200    217.09671   -402.84003     134093.7   -41283.496    2697.2131   -43980.709    58.989521   0.93005117 
   99300    217.64886   -541.38885    134057.32   -41236.073     2704.073   -43940.146    59.015497   0.93030355 
   99400    219.37034   -448.31682     134182.9   -41202.072    2725.4606   -43927.533    58.910722   0.92943292 
   99500    225.87652   -337.02919     134236.1   -41090.139    2806.2936   -43896.432    58.819613   0.92906458 
   99600    220.01831   -426.61742    134160.02   -41137.408     2733.511   -43870.919    58.889589   0.92959139 
   99700    223.01019   -460.79832     134320.6   -41155.291    2770.6822   -43925.974    58.951743   0.92848012 
   99800    219.68987   -517.89608    134331.51   -41159.476    2729.4306   -43888.906    58.992415   0.92840467 
   99900    215.43728   -480.48835     134355.8   -41235.574    2676.5963    -43912.17    59.168956   0.92823684 
  100000    216.45254   -409.11394    134389.98   -41237.198    2689.2099   -43926.408    59.066033   0.92800078 
  100100    220.05616   -499.74433    134269.64   -41179.875    2733.9814   -43913.856    59.017034   0.92883249 
  100200    219.96076    -413.7749    134504.44   -41162.469     2732.796   -43895.265    59.328339   0.92721104 
  100300    226.30042   -531.82494    134448.41   -41166.136    2811.5601   -43977.696    59.204578   0.92759746 
  100400    217.41005   -431.69887    134394.73   -41211.154     2701.106    -43912.26    59.522356   0.92796799 
  100500    220.84801    -559.2739    134306.31   -41145.101    2743.8193    -43888.92     59.43201   0.92857888 
  100600    218.73088   -569.97216    134197.57   -41220.183    2717.5161   -43937.699    59.422319   0.92933131 
  100630    220.34966   -502.84964    134197.44   -41200.197    2737.6278   -43937.825    59.490211   0.92933221 
Loop time of 85.0301 on 6 procs for 100000 steps with 4169 atoms

Performance: 508.055 ns/day, 0.047 hours/ns, 1176.054 timesteps/s
98.5% CPU use with 6 MPI tasks x no OpenMP threads

MPI task timing breakdown:
Section |  min time  |  avg time  |  max time  |%varavg| %total
---------------------------------------------------------------
Pair    | 61.694     | 62.936     | 64.152     |  10.2 | 74.02
Neigh   | 5.0626     | 5.0805     | 5.0985     |   0.6 |  5.97
Comm    | 12.707     | 13.956     | 15.225     |  22.1 | 16.41
Output  | 0.18039    | 0.18183    | 0.18839    |   0.7 |  0.21
Modify  | 2.0897     | 2.1116     | 2.1288     |   0.9 |  2.48
Other   |            | 0.7634     |            |       |  0.90

Nlocal:        694.833 ave         706 max         684 min
Histogram: 1 0 1 0 1 1 1 0 0 1
Nghost:        1462.67 ave        1482 max        1438 min
Histogram: 1 1 0 0 0 1 0 0 2 1
Neighs:        0.00000 ave           0 max           0 min
Histogram: 6 0 0 0 0 0 0 0 0 0
FullNghs:      18898.7 ave       19349 max       18525 min
Histogram: 1 0 2 0 0 1 1 0 0 1

Total # of neighbors = 113392
Ave neighs/atom = 27.198849
Neighbor list builds = 5434
Dangerous builds = 0

undump              1
unfix               2
unfix               3
unfix               4


################################################
#######         Run Simulation         #########
################################################

reset_timestep      0
log                 log.run_${NAME}
log                 log.run_liquid_219K_500atm_ML
