
# Create simulation box of size 50 x 50 x 50 Angstrom
#
lattice	            sc 1
Lattice spacing in x,y,z = 1.0000000 1.0000000 1.0000000
region 	            all block 0 50 0 50 0 50 units box
create_box          1 all
Created orthogonal box = (0.0000000 0.0000000 0.0000000) to (50.000000 50.000000 50.000000)
  1 by 2 by 3 MPI processor grid

# fill box with 4169 randomly distributed atoms
#
create_atoms        1 random 4169 63782 all
Created 4169 atoms
  create_atoms CPU = 0.001 seconds
mass                1 18.015

# Define potential
#
pair_style          sw
pair_coeff          * * ML_mW.sw mW
Reading sw potential file ML_mW.sw with DATE: 2019-02-27

# Run minimization
#
minimize            1.0e-8 1.0e-8 10000 1000
WARNING: Using 'neigh_modify every 1 delay 0 check yes' setting during minimization (../min.cpp:187)
Neighbor list info ...
  update every 1 steps, delay 0 steps, check yes
  max neighbors/atom: 2000, page size: 100000
  master list distance cutoff = 6.0032907
  ghost atom cutoff = 6.0032907
  binsize = 3.0016454, bins = 17 17 17
  1 neighbor lists, perpetual/occasional/extra = 1 0 0
  (1) pair sw, perpetual
      attributes: full, newton on
      pair build: full/bin/atomonly
      stencil: full/bin/3d
      bin: standard
Per MPI rank memory allocation (min/avg/max) = 4.255 | 4.258 | 4.261 Mbytes
Step Temp E_pair E_mol TotEng Press 
       0            0    7783778.6            0    7783778.6    5891538.7 
     630            0   -45100.671            0   -45100.671   -33.645425 
Loop time of 1.22944 on 6 procs for 630 steps with 4169 atoms

98.7% CPU use with 6 MPI tasks x no OpenMP threads

Minimization stats:
  Stopping criterion = max force evaluations
  Energy initial, next-to-last, final = 
       7783778.6045464  -45100.6138394717  -45100.6714481628
  Force two-norm initial, final = 2.0191929e+08 1.9154294
  Force max component initial, final = 1.0948746e+08 0.55224559
  Final line search alpha, max atom move = 0.074060414 0.040899537
  Iterations, force evaluations = 630 1001

MPI task timing breakdown:
Section |  min time  |  avg time  |  max time  |%varavg| %total
---------------------------------------------------------------
Pair    | 0.8686     | 1.0053     | 1.1196     |   7.8 | 81.77
Neigh   | 0.023582   | 0.025457   | 0.02804    |   1.0 |  2.07
Comm    | 0.059614   | 0.17635    | 0.31506    |  18.8 | 14.34
Output  | 0          | 0          | 0          |   0.0 |  0.00
Modify  | 0          | 0          | 0          |   0.0 |  0.00
Other   |            | 0.02237    |            |       |  1.82

Nlocal:        694.833 ave         711 max         678 min
Histogram: 1 2 0 0 0 0 0 1 0 2
Nghost:        1484.33 ave        1523 max        1464 min
Histogram: 2 1 0 1 0 1 0 0 0 1
Neighs:        0.00000 ave           0 max           0 min
Histogram: 6 0 0 0 0 0 0 0 0 0
FullNghs:      19864.7 ave       20554 max       18883 min
Histogram: 1 0 0 2 0 0 0 0 1 2

Total # of neighbors = 119188
Ave neighs/atom = 28.589110
Neighbor list builds = 26
Dangerous builds = 0

# Add velocity/set timestep
#
velocity            all create ${TEMP} 120598 rot yes dist gaussian
velocity            all create 292 120598 rot yes dist gaussian
timestep            5.0

# Define output
#
compute	            1 all msd
thermo	            100
thermo_style        custom step temp press vol etotal ke pe c_1[4] density

# Neighbor lists
#
neigh_modify        delay 0 every 1 check yes

# Set fixes
#
fix                 1 all momentum 10 linear 1 1 1 rescale
fix                 2 all nve
fix                 3 all temp/csvr ${TEMP} ${TEMP} 500.0 928347
fix                 3 all temp/csvr 292 ${TEMP} 500.0 928347
fix                 3 all temp/csvr 292 292 500.0 928347
fix                 4 all press/berendsen iso ${PRES} ${PRES} 1000.0 modulus 20000
fix                 4 all press/berendsen iso 1 ${PRES} 1000.0 modulus 20000
fix                 4 all press/berendsen iso 1 1 1000.0 modulus 20000

# Run 0.5 ns equilibration
#
dump                1 all custom 1000 eq.${NAME}.dump id type x y z vx vy vz
dump                1 all custom 1000 eq.liquid_292K_1atm_ML.dump id type x y z vx vy vz
run                 100000
Per MPI rank memory allocation (min/avg/max) = 3.506 | 3.508 | 3.511 Mbytes
Step Temp Press Volume TotEng KinEng PotEng c_1[4] Density 
     630          292    1293.0392       125000   -41472.859    3627.8128   -45100.671 2.1849767e-33   0.99771203 
     700    183.08522    244.96264    125775.55    -40338.06    2274.6537   -42612.713   0.36323584   0.99156003 
     800    226.29073   -40.358269    125736.89   -39268.264    2811.4397   -42079.704   0.91007216   0.99186483 
     900    245.40267    108.33532    125687.27   -38606.942    3048.8867   -41655.829    1.5407204   0.99225642 
    1000    261.74613    133.63938    125766.44   -38159.038    3251.9382   -41410.976    2.3437747    0.9916318 
    1100    268.64037    221.61557    125606.71   -37820.643    3337.5923   -41158.235    3.2988469   0.99289281 
    1200    270.73236    214.62857    125504.18   -37769.418    3363.5833   -41133.002     4.198239   0.99370394 
    1300    274.58525   -308.62094     125310.6   -37657.981    3411.4516   -41069.433    5.0521579   0.99523907 
    1400    277.32821    77.270358    125099.48   -37617.339    3445.5302    -41062.87    6.0790544   0.99691863 
    1500    286.14737    207.84875     124891.9   -37516.171    3555.0996    -41071.27    7.1673962   0.99857557 
    1600    287.10714   -11.600807    125069.39   -37330.323    3567.0238   -40897.347    8.1562258    0.9971585 
    1700    289.60806   -266.68056    124931.23   -37320.651    3598.0952   -40918.746    9.4260652   0.99826123 
    1800    280.78852   -31.392115     124667.4   -37379.923    3488.5212   -40868.444    10.627973    1.0003738 
    1900    286.54103    119.07868    124903.49    -37313.61    3559.9904     -40873.6     11.77293   0.99848297 
    2000    288.32934    220.69544    125281.41   -37222.206    3582.2084   -40804.414    13.042514   0.99547093 
    2100    292.07233    15.569105     125186.6   -37137.237    3628.7114   -40765.948    14.411008   0.99622486 
    2200     290.7438   -20.894212    124954.56   -37148.975    3612.2057   -40761.181    15.649283   0.99807484 
    2300    289.44202    170.70033    125000.46   -37120.855    3596.0324   -40716.887    16.857603   0.99770833 
    2400    289.47192    43.605891    125314.18     -37109.1    3596.4039   -40705.504    18.154966   0.99521062 
    2500     299.2363   -14.328405    125245.76   -37039.977    3717.7167   -40757.694    19.308656   0.99575428 
    2600    300.78796   -138.32635    125236.31   -36953.396    3736.9945   -40690.391    20.555296   0.99582944 
    2700    297.66206    136.66138    125238.03    -36982.54    3698.1583   -40680.698    21.955809   0.99581574 
    2800    299.10283   -115.26407    125181.31   -36959.724    3716.0585   -40675.783    23.287497     0.996267 
    2900    295.27104   -24.337784    125062.74   -37055.434    3668.4522   -40723.886    24.755991   0.99721151 
    3000    290.79423    -28.28606    125265.67   -37075.507    3612.8322   -40688.339    26.139398   0.99559605 
    3100    290.75623     19.39399    125353.55   -37034.811    3612.3601   -40647.171    27.551538   0.99489804 
    3200    290.05541    59.881261     125308.8   -37098.304    3603.6531   -40701.958    29.110966   0.99525336 
    3300    294.28808    238.18457    125267.15   -37066.324    3656.2399   -40722.563    30.327181   0.99558428 
    3400    292.70878   -72.481432    125414.36   -37125.769    3636.6186   -40762.387    31.813108   0.99441566 
    3500    289.02962   -23.829768    124989.71   -37166.939    3590.9087   -40757.848    32.814531   0.99779414 
    3600    290.63174   -130.28804    125182.67   -37190.686    3610.8135     -40801.5    33.747637   0.99625615 
    3700    287.12272    90.543723    125371.65   -37275.161    3567.2173   -40842.378    34.981334   0.99475445 
    3800    287.98086    16.666504     125260.6   -37201.617    3577.8789   -40779.496    36.070621   0.99563635 
    3900    288.93393    -170.1341    124889.12   -37242.073    3589.7198   -40831.793    37.462108    0.9985978 
    4000    293.18023    116.77393    124682.23   -37249.887     3642.476   -40892.363    38.701387    1.0002548 
    4100    291.05135    243.85782    124394.86   -37231.363    3616.0267    -40847.39    40.163213    1.0025656 
    4200    284.51849      -86.125    124708.08   -37244.681    3534.8624   -40779.543    41.284883    1.0000475 
    4300    291.91948    74.890901    124716.09   -37231.066    3626.8124   -40857.879    42.364426   0.99998329 
    4400    290.44164    106.62394    125065.09    -37210.11    3608.4517   -40818.562    43.599322   0.99719281 
    4500    286.14078   -11.769877     125181.2   -37194.069    3555.0178   -40749.086    44.993063   0.99626783 
    4600    286.90297       225.01     125195.7   -37218.631    3564.4871   -40783.118    46.320486   0.99615245 
    4700    299.81117    -478.1276       125124   -37123.548    3724.8589   -40848.407    47.485705   0.99672327 
    4800    286.42147    219.36103    125167.75   -37196.426     3558.505   -40754.931    48.799448   0.99637493 
    4900    294.42254   -92.518197    125336.52   -37026.331    3657.9104   -40684.242    50.061621   0.99503325 
    5000    300.49993   -87.099881    125208.38    -36965.98     3733.416   -40699.396    51.246932   0.99605154 
    5100    297.41348   -285.32655    125038.77    -37054.89    3695.0699    -40749.96    52.595878   0.99740269 
    5200    292.21293    232.13106     125064.1   -37134.678    3630.4582   -40765.137    54.222555   0.99720063 
    5300    293.89774   -238.51705    125036.88   -37083.344    3651.3904   -40734.735    55.594931   0.99741776 
    5400      287.887    36.977416    124855.43   -37112.685    3576.7127   -40689.398    56.759661   0.99886726 
    5500    296.31574   -25.013712    124693.15    -37122.04    3681.4316   -40803.471    57.750523    1.0001673 
    5600    292.11282   -157.04395    124805.73    -37137.47    3629.2145   -40766.684    59.049611   0.99926502 
    5700    290.10734    176.36666    124950.56   -37138.123    3604.2984   -40742.421    60.036434   0.99810679 
    5800     292.3047    448.10146     125186.3   -37175.012    3631.5984    -40806.61    61.374954   0.99622728 
    5900    284.94661   -184.69968    125024.96   -37239.234    3540.1813   -40779.415    62.700899   0.99751288 
    6000    287.24349    337.10885    125091.53   -37240.107    3568.7178   -40808.825    63.953102   0.99698197 
    6100    295.27221    204.60726    125434.31   -37146.643    3668.4667    -40815.11    65.533578   0.99425748 
    6200    291.46487   -209.38031    125385.29   -37221.148    3621.1643   -40842.313     66.93324   0.99464619 
    6300    285.72269   -69.286955    125262.58   -37157.432    3549.8234   -40707.256    67.796881    0.9956206 
    6400    293.45152    1.1677721    125341.62   -37103.175    3645.8465   -40749.022    68.964708   0.99499276 
    6500    291.94489    129.46753    125149.03   -37048.971    3627.1281   -40676.099    70.256231   0.99652394 
    6600    293.89676    170.44716    125140.47    -37154.94    3651.3781   -40806.318    71.785436   0.99659207 
    6700    287.30278    296.12146     124994.4   -37257.619    3569.4544   -40827.074    72.850939   0.99775669 
    6800    288.90712     9.008426    125013.51    -37138.53    3589.3868   -40727.917    73.858802   0.99760421 
    6900     294.7914   -378.70859    124947.52   -37065.607    3662.4931     -40728.1    75.035582   0.99813105 
    7000    297.68442     112.3338       124952   -37059.021    3698.4361   -40757.457    76.460806   0.99809534 
    7100     296.0531   -123.82361    125028.96    -37081.68    3678.1686   -40759.849    77.897602   0.99748093 
    7200     291.6276   -112.52851    125251.53   -37154.859    3623.1861   -40778.045    79.247858    0.9957084 
    7300    287.01408    165.19596    124740.66   -37254.948    3565.8676   -40820.815    80.477532    0.9997863 
    7400     287.0068   -40.284032    124510.27   -37279.339    3565.7771   -40845.117    81.543909    1.0016363 
    7500    293.62822    24.015936    124595.56   -37252.225    3648.0418   -40900.267    82.541875    1.0009506 
    7600     285.0443   -6.2935687     124870.7   -37352.671    3541.3951   -40894.066    84.209368    0.9987451 
    7700     289.1483   -33.536411     124467.1   -37206.825    3592.3832   -40799.208    85.523939    1.0019837 
    7800    290.96007    269.68667    124409.04   -37160.593    3614.8926   -40775.486    86.854062    1.0024513 
    7900    286.80575   -174.42522    124524.17   -37233.339    3563.2793   -40796.619    88.747283    1.0015245 
    8000     291.2574    -29.08066     124448.9   -37194.863    3618.5867   -40813.449    90.249184    1.0021302 
    8100    285.97183    -159.7134    124221.01   -37283.881    3552.9187   -40836.799    91.277732    1.0039687 
    8200    283.97536    2.1084287    124373.95   -37299.709    3528.1145   -40827.823    92.307192    1.0027341 
    8300    289.80546    202.47733    124414.09   -37282.456    3600.5478   -40883.003    93.278918    1.0024106 
    8400    288.17535    115.45415     124463.5   -37225.709    3580.2953   -40806.004    94.840756    1.0020127 
    8500    295.14378   -103.04253    124468.84   -37138.111    3666.8711   -40804.982    96.256583    1.0019696 
    8600    289.36057    135.51171    124488.81   -37145.298    3595.0204   -40740.318    97.466274    1.0018089 
    8700    293.88729    194.61954    124687.73   -37119.129    3651.2605    -40770.39    99.118738    1.0002108 
    8800    291.16815   -39.481366    124837.17   -37151.799    3617.4778   -40769.277    100.42636   0.99901342 
    8900    285.86244   -132.48112    124794.12   -37264.026    3551.5596   -40815.586    101.30441     0.999358 
    9000    288.67098   -79.389052     124793.1   -37184.307     3586.453    -40770.76    102.64227   0.99936618 
    9100    291.90626    2.4596443    125036.21   -37279.545    3626.6482   -40906.193    103.76519   0.99742307 
    9200     296.8187     62.97424    125062.06   -37157.747    3687.6804   -40845.428    105.03108    0.9972169 
    9300    289.14727   -66.332513    125066.21   -37228.837    3592.3704   -40821.207    106.23144   0.99718387 
    9400    291.19127    444.43733    125411.78    -37185.53    3617.7651   -40803.295    107.86998   0.99443612 
    9500    293.10786    57.795782    125472.77   -37212.061    3641.5768   -40853.638    109.49053   0.99395277 
    9600    297.31515   -14.152976    125650.72    -37166.43    3693.8483   -40860.278    110.46562   0.99254506 
    9700    291.13724   -241.12087    125475.93   -37079.108    3617.0939   -40696.202    111.55733   0.99392771 
    9800    292.75817   -263.47577    125377.75   -37172.478    3637.2322    -40809.71    112.94461   0.99470601 
    9900    283.91232    120.32126    125169.23   -37258.992    3527.3312   -40786.323    114.03499   0.99636308 
   10000    288.21493   -67.199817    124798.56   -37263.862     3580.787   -40844.649    114.93759   0.99932244 
   10100    288.27684   -40.664899    124829.24   -37212.913    3581.5562   -40794.469    116.87684   0.99907686 
   10200    285.59245   -156.74389    124714.18   -37278.568    3548.2052   -40826.774    118.76484   0.99999857 
   10300    287.97083    131.02132    124868.45   -37260.276    3577.7543   -40838.031    120.55659    0.9987631 
   10400    290.57403   -38.973988    124841.49   -37184.927    3610.0965   -40795.024    121.91346   0.99897882 
   10500    288.64745    140.64649    124790.91   -37146.332    3586.1607   -40732.493    123.25836   0.99938372 
   10600    293.11701    107.87063    124908.57   -37060.904    3641.6905   -40702.594    124.53372   0.99844232 
   10700    292.72034    68.041711    124859.07   -37038.229    3636.7623   -40674.992    126.11738   0.99883819 
   10800    297.04898   -204.44589    125119.86   -37011.114    3690.5414   -40701.655    127.62456   0.99675628 
   10900    296.47778   -190.96294    124770.04   -37040.304    3683.4448   -40723.749    128.37646   0.99955091 
   11000    295.24926   -102.02732    124976.19   -37016.709    3668.1816   -40684.891    129.98022   0.99790211 
   11100    296.25908   -49.247424    124859.37   -37077.777    3680.7276   -40758.505    131.44439   0.99883578 
   11200    297.72439    18.418402    125102.51   -37086.671    3698.9327   -40785.604    132.81459   0.99689451 
   11300    293.89362   -151.41892    125078.46   -37094.727    3651.3391   -40746.066    134.09878   0.99708615 
   11400    291.82195    36.305685    125087.94   -37093.755    3625.6006   -40719.356    135.04624   0.99701058 
   11500    291.31137   -33.930127     125152.6   -37146.251    3619.2571   -40765.508    136.32376   0.99649553 
   11600    290.01535   -74.536273    124825.34   -37166.897    3603.1555   -40770.052    137.24957   0.99910804 
   11700    301.04227    49.402386    124688.17   -37062.729     3740.154   -40802.883    138.31216    1.0002072 
   11800    296.26009   -26.495069       124580   -37152.366    3680.7402   -40833.107    139.68435    1.0010757 
   11900    286.18611   -180.51407    124692.92   -37163.184    3555.5809   -40718.765    140.85675    1.0001691 
   12000    290.31251   -137.42233     124588.5   -37156.773    3606.8473   -40763.621    142.20167    1.0010073 
   12100    295.06742   -194.46219    124789.45   -37094.561    3665.9224   -40760.483    144.19051   0.99939543 
   12200    289.41879    166.47081    125048.09    -37072.66    3595.7438   -40668.404    146.03665   0.99732831 
   12300    290.53606   -271.92557    124914.87   -37102.331    3609.6247   -40711.956    147.32379   0.99839195 
   12400    288.74855    6.0515302    125024.91   -37094.226    3587.4167   -40681.643    148.72809   0.99751325 
   12500    290.63779    -54.59562    124812.22   -37229.703    3610.8887   -40840.591      149.533   0.99921312 
   12600    297.18951    34.382358    125029.25    -37118.52    3692.2873   -40810.807    150.99881   0.99747861 
   12700    297.07739   -123.84882    125110.34   -37100.209    3690.8944   -40791.104    152.21518   0.99683214 
   12800    295.10092    165.26097    124929.68   -37051.378    3666.3386   -40717.717    153.78272   0.99827365 
   12900    293.97451    49.959264    124945.42   -37127.439    3652.3441   -40779.783    155.52994   0.99814788 
   13000     294.7829    219.68987    124967.32    -37046.29    3662.3876   -40708.678    157.59642    0.9979729 
   13100    296.35293    132.37988    124908.87   -37069.326    3681.8936    -40751.22    159.32542   0.99843995 
   13200    298.34543    70.827131    125227.05   -36949.757    3706.6485   -40656.405    161.16546   0.99590311 
   13300    305.59722   -14.305824    125468.99   -37024.761    3796.7448   -40821.505    162.53181   0.99398271 
   13400    293.78784   -170.58498    125286.23   -37141.561    3650.0249   -40791.585     164.1705   0.99543263 
   13500     291.6867   -279.59157    125047.25   -37183.584    3623.9204   -40807.504    165.60644   0.99733504 
   13600    288.36652   -98.226204     125100.3   -37221.557    3582.6703   -40804.228    167.01636   0.99691214 
   13700    289.42814   -56.105682    125005.15   -37232.409      3595.86   -40828.269    168.15117   0.99767095 
   13800    295.83687    173.77526    125354.35   -37090.749    3675.4821   -40766.231    169.91374    0.9948917 
   13900    290.65592   -21.126627    125056.24   -37149.625    3611.1139   -40760.739    170.38702   0.99726331 
   14000    290.13208    68.230675    125133.15   -37148.019    3604.6057   -40752.624    171.77615   0.99665041 
   14100    289.91167   -61.614414    125005.71   -37153.007    3601.8673   -40754.874    172.87997   0.99766644 
   14200    289.25157     -229.955    124779.69   -37206.591    3593.6662   -40800.257    173.47133   0.99947354 
   14300     288.9501   -181.94956    124582.77   -37273.686    3589.9207   -40863.607    174.58644    1.0010534 
   14400    291.05201    138.76974    124658.74   -37219.358    3616.0349   -40835.393    176.07455    1.0004433 
   14500    289.49336    37.343752    124952.11   -37131.414    3596.6702   -40728.084    177.70476   0.99809444 
   14600    291.54931     3.324865    124848.18   -37140.826    3622.2133   -40763.039    178.59004   0.99892527 
   14700     291.9126    35.346183    124771.07   -37210.857    3626.7269   -40837.584    179.84076   0.99954261 
   14800    292.16708    209.87069     124843.9   -37253.568    3629.8885   -40883.457     180.7034   0.99895951 
   14900    284.21081   -51.512417    125143.19   -37340.887    3531.0398   -40871.927    182.08157   0.99657042 
   15000    286.72261   -192.38399    125072.85   -37348.569    3562.2464   -40910.816     182.8445   0.99713092 
   15100    286.93219   -35.216313    125240.77   -37370.887    3564.8502   -40935.737    184.36227   0.99579394 
   15200    291.55797    20.641117    125315.12    -37284.76     3622.321   -40907.081    185.35173   0.99520312 
   15300    288.04614    49.964829    125555.29   -37285.765      3578.69   -40864.455    186.77155   0.99329947 
   15400    292.75298   -285.33624    125421.59   -37265.745    3637.1678   -40902.913    187.22344   0.99435837 
   15500    292.44401   -22.184465    125353.95   -37253.206    3633.3291   -40886.535    187.58612   0.99489485 
   15600    297.97077    189.52784    125020.05   -37171.486    3701.9937    -40873.48    188.11749   0.99755206 
   15700     289.3209    229.46822    125305.97   -37281.685    3594.5275   -40876.213    189.42848   0.99527582 
   15800    290.14554    -120.3494     125490.7   -37266.999    3604.7729   -40871.772    190.66928   0.99381075 
   15900    288.30452   -164.16477    125235.68   -37300.183    3581.9001   -40882.084    191.45149   0.99583443 
   16000    292.88886    73.897981    125177.76   -37210.074    3638.8559    -40848.93    192.80431   0.99629523 
   16100    289.08633    196.13653    125167.75   -37155.869    3591.6133   -40747.482    193.29499   0.99637489 
   16200    285.55733   -82.745046    125104.37     -37236.1    3547.7689   -40783.869    194.39818   0.99687967 
   16300    292.66417    85.728209    125029.91   -37250.311    3636.0644   -40886.376    196.17036   0.99747335 
   16400    297.89812    113.26233    125070.56   -37124.785    3701.0911   -40825.876    198.09502   0.99714916 
   16500    290.95229   -223.88154    124968.91   -37098.567     3614.796   -40713.363    199.91238   0.99796026 
   16600     293.1825   -199.34838     124759.5   -37069.117    3642.5041   -40711.621    200.87392   0.99963531 
   16700    288.19065    3.6282294    124702.69     -37111.8    3580.4853   -40692.286    201.77442    1.0000907 
   16800    290.52823   -174.00148    124753.04   -37079.014    3609.5275   -40688.542    203.10881    0.9996871 
   16900    291.43827    150.16795    124696.96   -37021.601    3620.8338   -40642.435    204.13804    1.0001367 
   17000     299.5479    130.65194    124628.43   -37068.395     3721.588   -40789.983    204.92858    1.0006866 
   17100    301.80587    315.29282    124816.85   -36975.946     3749.641   -40725.587    206.51782   0.99917605 
   17200    296.40829   -152.42604    124920.99   -37020.572    3682.5814   -40703.153    207.70862   0.99834308 
   17300    290.58004    183.16568    124782.48   -37100.231    3610.1711   -40710.402    208.87811   0.99945125 
   17400    294.43258    88.008192    124810.05   -37146.372    3658.0351   -40804.407    209.97696   0.99923043 
   17500    294.99479   -99.462761    124821.04   -37140.939    3665.0201   -40805.959    210.74174   0.99914248 
   17600    299.68486    58.114289    124733.35    -37100.27    3723.2896   -40823.559    211.43451   0.99984491 
   17700    293.25315    46.423398    124993.18   -37129.799     3643.382   -40773.181    212.88744   0.99776645 
   17800    291.09255    42.075556    125305.72   -37137.242    3616.5386    -40753.78    214.56152    0.9952778 
   17900    296.81344    220.82259    125190.39   -37081.732     3687.615   -40769.346    215.80442   0.99619473 
   18000    292.48417   -20.996668    125258.18   -36981.206    3633.8281   -40615.034    217.43669   0.99565556 
   18100    292.44279    34.190871    125487.05   -37103.237    3633.3139   -40736.551    218.67869   0.99383962 
   18200    293.39668    129.33873     125751.3    -37092.57    3645.1652   -40737.735    221.06638   0.99175122 
   18300    299.38375     69.39915       125488   -36995.055    3719.5486   -40714.604     222.9372    0.9938321 
   18400    293.22256    -384.0001    125060.12   -37102.401    3643.0019   -40745.403    223.94451   0.99723242 
   18500    293.69275     -340.379    124694.01   -37080.023    3648.8436   -40728.867    224.98457    1.0001604 
   18600    291.56068    103.65292    124840.38   -37149.916    3622.3547   -40772.271    226.90304   0.99898766 
   18700    294.47037    286.26081    125014.96   -37106.151    3658.5047   -40764.656    228.82556   0.99759265 
   18800    297.44163   -52.434967    125078.02   -37078.139    3695.4197   -40773.558    230.86893   0.99708969 
   18900     291.6997   -275.84102    125268.33   -37124.681    3624.0818   -40748.763    232.53652   0.99557493 
   19000    296.80298    -35.65719    125555.16   -37078.967    3687.4851   -40766.452    234.19976   0.99330047 
   19100    290.21991     280.4263    125421.24   -37173.501    3605.6969   -40779.198    235.44273   0.99436108 
   19200    291.17531    15.127166    125682.24   -37134.815    3617.5668   -40752.382     236.5678   0.99229614 
   19300    297.91646   -364.64872    125684.87   -37071.103     3701.319   -40772.422    237.80994   0.99227539 
   19400    292.87828    79.279085    125732.26   -37077.116    3638.7245    -40715.84     239.0628   0.99190136 
   19500    296.17036   -146.00495    125812.89   -37067.224    3679.6253   -40746.849    240.52613   0.99126569 
   19600    291.12305   -109.65424    125342.94   -37130.475    3616.9176   -40747.393    241.59481   0.99498229 
   19700    293.39872   -123.11018    125144.21   -37112.313    3645.1905   -40757.503    243.41586   0.99656231 
   19800    289.08984    84.034742    125222.84   -37148.712    3591.6568   -40740.369     244.5696   0.99593652 
   19900    297.08101    184.28986    125164.88   -37158.078    3690.9393   -40849.017     245.7072   0.99639772 
   20000    290.38673    -41.39896    125226.61   -37226.104    3607.7694   -40833.873    247.31608   0.99590655 
   20100    296.74441    30.456434    125049.65   -37169.148    3686.7574   -40855.905    248.73514   0.99731586 
   20200    293.15963    125.23445    125076.39   -37221.944      3642.22   -40864.164    249.66862    0.9971027 
   20300      295.727   -212.76821    125124.23    -37251.88     3674.117   -40925.997    250.66279   0.99672146 
   20400    292.79786   -145.27267    125215.29   -37251.215    3637.7254    -40888.94    252.32258   0.99599659 
   20500    291.68066   -310.28159    125159.17   -37201.875    3623.8452    -40825.72    253.21121   0.99644319 
   20600    294.48709    313.11354    125107.74   -37249.726    3658.7124   -40908.439     254.2306   0.99685278 
   20700    290.07953   -107.42801    125133.13   -37161.152    3603.9528   -40765.105     256.2357   0.99665053 
   20800    291.28832    23.458077    125272.37   -37159.551    3618.9708   -40778.522    257.72287   0.99554281 
   20900     291.5857    41.986267    125343.57   -37198.301    3622.6655   -40820.967    259.23314   0.99497729 
   21000    286.02787    108.86992    125266.52   -37323.903     3553.615   -40877.518    260.08979   0.99558928 
   21100    284.15869    125.39396    125079.51   -37321.668    3530.3923    -40852.06    261.57968   0.99707782 
   21200    286.59462    80.871715    125207.77   -37291.598    3560.6563   -40852.254    263.06186   0.99605644 
   21300    288.59264    8.6461211    124941.89   -37306.334    3585.4797   -40891.814    264.16244   0.99817603 
   21400     291.2344    193.47079    124584.57   -37266.818    3618.3009   -40885.119    264.70134    1.0010389 
   21500    289.04285    54.870309    125003.66   -37238.839    3591.0731   -40829.912    266.59728   0.99768281 
   21600    293.35054    332.07823    125143.61   -37169.724    3644.5919   -40814.316    268.34408    0.9965671 
   21700     297.4436    13.445113    125293.08   -37135.385    3695.4442   -40830.829    268.87116   0.99537821 
   21800     295.1193   -31.628984    125306.38   -37117.966     3666.567   -40784.533    270.60426   0.99527259 
   21900    294.52398    48.684075    125427.16    -37149.22    3659.1707    -40808.39    272.56996   0.99431421 
   22000    294.74899   -81.316832    125093.41   -37209.883    3661.9662    -40871.85    273.39251   0.99696701 
   22100    294.95881    259.01677    125158.37   -37138.057     3664.573    -40802.63     274.1119   0.99644959 
   22200    294.76264   -109.35983    125250.75   -37178.176    3662.1359   -40840.312    275.76572   0.99571464 
   22300    293.70177    53.352984    125586.42    -37148.96    3648.9556   -40797.915    277.38047   0.99305328 
   22400    291.64312   -206.23687    125441.02   -37080.703    3623.3789   -40704.082    278.29941   0.99420428 
   22500    296.49772    231.68662    125215.41   -37081.385    3683.6925   -40765.078    278.87147   0.99599563 
   22600    298.56182     -168.808    125192.37   -37037.649    3709.3369   -40746.986    279.91099   0.99617898 
   22700    290.56171   -44.879123    125006.02   -37035.028    3609.9434   -40644.972    280.67324   0.99766397 
   22800    299.53859    126.76463    124903.46   -36990.473    3721.4724   -40711.945    281.98047   0.99848319 
   22900    295.07542   -28.216344    124855.84   -37045.889    3666.0218   -40711.911    283.25563   0.99886397 
   23000    291.96682    98.519804    124773.82   -37033.868    3627.4005   -40661.268    285.02271   0.99952064 
   23100    289.33133    94.452147    124997.96   -37160.655    3594.6571   -40755.313    286.54993   0.99772833 
   23200    294.84814    118.03569    125195.95   -37108.568     3663.198   -40771.766    288.43493   0.99615045 
   23300    290.27305   -53.646046    125250.78    -37172.19    3606.3571   -40778.547    290.44701   0.99571439 
   23400    288.17644     22.61401    125168.81   -37081.286    3580.3088   -40661.595    291.30283   0.99636643 
   23500    291.92007    106.29112    124842.52    -37139.85    3626.8198    -40766.67    291.90273   0.99897061 
   23600    288.49753     262.9672    124927.67   -37111.592    3584.2981    -40695.89    293.36175   0.99828971 
   23700    293.64322   -85.757785    124962.58   -37147.313    3648.2281   -40795.541     294.3721   0.99801079 
   23800    289.52389    55.029819    124479.89   -37225.524    3597.0495   -40822.573    294.47135    1.0018807 
   23900    286.46092    136.83911    124749.17   -37248.275    3558.9951    -40807.27    296.10422   0.99971809 
   24000    288.91858    82.396353    124687.32   -37156.926    3589.5292   -40746.455    297.40913     1.000214 
   24100    291.85531    187.72332    124641.83   -37156.257    3626.0151   -40782.272    298.83761     1.000579 
   24200    288.75623    97.937934    124632.96    -37228.29    3587.5121   -40815.803    300.59618    1.0006502 
   24300    288.25236   -175.57302    124440.58   -37177.778     3581.252    -40759.03    300.82266    1.0021972 
   24400    296.39673    59.315502    124780.14   -37220.103    3682.4378   -40902.541    302.67118      0.99947 
   24500    290.97477    -22.63335    125011.25   -37154.283    3615.0753   -40769.358    304.33301   0.99762226 
   24600    294.07793   -103.79961    124912.55   -37131.381     3653.629    -40785.01    306.48984   0.99841054 
   24700    288.76438    68.869826     125055.3   -37161.797    3587.6134    -40749.41     308.3714    0.9972708 
   24800     289.4383   -36.966968    124965.34   -37182.415    3595.9861   -40778.401     310.7514   0.99798877 
   24900    293.23023    48.510026    124714.42    -37112.17    3643.0972   -40755.268    311.84778   0.99999666 
   25000    295.62616    165.00363    124847.85   -37098.963    3672.8643   -40771.828    313.96296   0.99892793 
   25100    294.95135    87.622958    124719.13   -37094.783    3664.4804   -40759.263    315.43789   0.99995888 
   25200    289.63848    19.790535    124724.04   -37159.331    3598.4732   -40757.804    316.41754   0.99991955 
   25300    292.72512    240.84443    125192.63   -37156.809    3636.8217   -40793.631    317.94652   0.99617689 
   25400    292.54601   -4.0113449    125423.21   -37128.214    3634.5964    -40762.81    319.62595   0.99434553 
   25500    289.40073   -1.2982788    125329.73   -37077.234    3595.5194   -40672.754    320.93313   0.99508718 
   25600     289.7338   -232.76284    125404.19   -37169.469    3599.6574   -40769.127    322.03489   0.99449634 
   25700    285.80506   -249.21192    125361.33   -37196.443    3550.8467    -40747.29     322.9038   0.99483634 
   25800    296.65371    27.067047    125192.62   -37180.046    3685.6305   -40865.676    323.97051   0.99617697 
   25900    290.95123    2.7187216     125213.3   -37122.298    3614.7829   -40737.081    325.12484   0.99601244 
   26000    295.91633   -39.159119    125128.32   -37053.858    3676.4693   -40730.327    326.83144   0.99668889 
   26100    291.40767    120.72221    125026.42   -37143.098    3620.4537   -40763.552    328.39628   0.99750116 
   26200     291.7329   -89.034313    125032.86   -37137.237    3624.4943   -40761.731    329.53897   0.99744983 
   26300    288.95742    68.488688    124833.32   -37108.169    3590.0117   -40698.181    331.68836   0.99904416 
   26400    294.63409   -128.42267    124674.45   -37101.953    3660.5387   -40762.491    333.25306    1.0003172 
   26500    296.30366     81.82193    124874.61   -37178.254    3681.2815   -40859.535    335.63419   0.99871383 
   26600    288.27323   -48.551583    124900.75    -37223.83    3581.5113   -40805.341    337.06161   0.99850481 
   26700    292.39694   -216.06853    124735.56   -37256.035    3632.7443    -40888.78    338.32103   0.99982721 
   26800    293.07813     116.9088    124776.77   -37148.116    3641.2075   -40789.324    339.79665   0.99949698 
   26900    289.50874   -64.365349    124949.44   -37144.274    3596.8613   -40741.135    342.34369   0.99811572 
   27000    292.65629    75.349101    124948.98   -37190.301    3635.9665   -40826.267    344.07298   0.99811939 
   27100    290.13087    103.69933    124819.59   -37218.799    3604.5907    -40823.39    345.87357   0.99915411 
   27200    290.38094     79.09163    124772.24    -37238.32    3607.6975   -40846.017    348.08358   0.99953322 
   27300     290.5003    185.96149    125111.28   -37292.329    3609.1804    -40901.51    350.40228   0.99682463 
   27400    295.45209   -24.085936    125298.91   -37218.945    3670.7016   -40889.646     351.8262   0.99533194 
   27500     285.2955   -92.584403    125400.79   -37140.354    3544.5159   -40684.869    353.98001   0.99452326 
   27600    291.31939    92.678451    125424.94   -37177.503    3619.3568    -40796.86    355.08015   0.99433175 
   27700    294.86222    157.39265     125492.9    -37185.39    3663.3731   -40848.763    356.47905   0.99379334 
   27800    292.87379   -267.42228     125276.9   -37104.759    3638.6688   -40743.428    357.05096   0.99550677 
   27900    291.01147   -225.58031    124947.87   -37136.406    3615.5313   -40751.937     358.5996   0.99812831 
   28000    290.90505    40.332934    124979.55   -37167.172    3614.2091   -40781.382      360.435   0.99787528 
   28100    295.80135   -215.32188    124858.29   -37159.847    3675.0408   -40834.887    361.36044   0.99884443 
   28200    290.23466    55.122713    124748.88   -37238.694    3605.8801   -40844.574    361.76664   0.99972045 
   28300    289.90863    111.25348    124733.89   -37216.445    3601.8295   -40818.274    362.73917    0.9998406 
   28400    289.29037   -39.536983    124675.93   -37261.355    3594.1483   -40855.504    362.52485    1.0003054 
   28500    284.07616   -205.61248    124997.19   -37275.539    3529.3668   -40804.906     363.6135   0.99773448 
   28600    288.64677      48.3197     124608.6   -37221.037    3586.1522   -40807.189    363.66034    1.0008459 
   28700    287.91958     86.89426    124586.17   -37226.658    3577.1175   -40803.775    364.69185     1.001026 
   28800    293.40503    87.426012    124836.52   -37165.242    3645.2688   -40810.511    366.47886   0.99901861 
   28900    294.30147   -16.921542    124903.71   -37103.408    3656.4063   -40759.814     367.6582   0.99848116 
   29000    287.23662    48.126854    124952.88   -37186.377    3568.6325   -40755.009    369.19853   0.99808829 
   29100    291.60406    320.45396    125386.56   -37097.504    3622.8936   -40720.398    371.14612   0.99463611 
   29200    295.98737   -288.00072    125353.53   -37085.616    3677.3519   -40762.967    371.79836   0.99489824 
   29300     292.0837    76.560707    125159.14   -37173.405    3628.8526   -40802.258    372.60766   0.99644343 
   29400    284.96491    45.911538    125098.94   -37225.965    3540.4087   -40766.374    372.96851   0.99692296 
   29500    288.86547    87.799704    125148.13   -37261.529    3588.8694   -40850.399    373.92789   0.99653108 
   29600    291.02514   -17.978262    125078.97   -37157.112     3615.701   -40772.813    374.76167   0.99708212 
   29700    287.14292    286.76258    125204.25    -37209.21    3567.4683   -40776.678    376.31788   0.99608445 
   29800    292.72328    30.678041    125195.99   -37196.547    3636.7988   -40833.346    377.81058   0.99615011 
   29900    289.78834   -110.89998    125300.76   -37242.093     3600.335   -40842.428    379.91272   0.99531724 
   30000    290.72529   -166.59745     125492.3   -37212.347    3611.9757   -40824.323    381.41787   0.99379804 
   30100    291.63711   -139.29443     125522.1   -37196.243    3623.3042   -40819.547    382.09447    0.9935621 
   30200    287.36037    134.41936    125460.85   -37204.918    3570.1699   -40775.088    383.30675   0.99404717 
   30300    291.08826    251.27192    125363.77   -37160.041    3616.4853   -40776.526    384.51836   0.99481694 
   30400    288.35673   -71.358686    125093.96   -37152.913    3582.5487   -40735.462    384.74249    0.9969626 
   30500    289.34503    187.39003    125214.85   -37156.132    3594.8274   -40750.959    386.25057   0.99600012 
   30600    293.93179   -152.39943    125321.14   -37114.648    3651.8134   -40766.461      387.826   0.99515538 
   30700    291.09632    9.2446411     125356.3   -37142.126    3616.5854   -40758.711    388.87155   0.99487625 
   30800    297.46583    63.312562    125404.47   -37068.425    3695.7203   -40764.146    389.78162   0.99449407 
   30900    290.19094   -58.485246    124945.18   -37230.248    3605.3369   -40835.585    389.35015   0.99814978 
   31000      285.836     34.83185    124867.04   -37273.743    3551.2312   -40824.974    389.98079   0.99877441 
   31100    292.33526    106.52783    124979.81   -37263.089     3631.978   -40895.067    391.02619   0.99787317 
   31200    284.88933    23.770314    125178.41   -37268.214    3539.4697   -40807.684    392.05182   0.99629007 
   31300    292.56114    40.389642    125073.77   -37206.253    3634.7844   -40841.037    391.90596   0.99712357 
   31400    291.63201   -19.864597    125011.38     -37132.5    3623.2408    -40755.74    392.86805   0.99762118 
   31500    290.19926    -106.7767    124995.73   -37200.107    3605.4404   -40805.547    393.87376   0.99774608 
   31600     295.3347    -241.3964    124932.26   -37109.261    3669.2431   -40778.504    394.67939   0.99825297 
   31700    287.98587   -103.50369    124377.67   -37169.841    3577.9412   -40747.783    395.47616    1.0027041 
   31800    294.67507    152.71581    124662.49    -37090.35    3661.0479   -40751.398    398.11991    1.0004132 
   31900    299.62674   -277.29283    124853.64   -37061.558    3722.5674   -40784.125    401.05253   0.99888161 
   32000    292.23277    -194.2299    124676.69   -37081.599    3630.7047   -40712.304    402.49334    1.0002993 
   32100    292.80792    192.63261    124676.02   -37081.643    3637.8504   -40719.493    404.15873    1.0003046 
   32200    294.27546    13.784674    124843.97   -37077.295    3656.0831   -40733.379    406.13489   0.99895894 
   32300    297.45824    64.944067    124673.89   -37058.051    3695.6261   -40753.677    408.06737    1.0003218 
   32400    292.06152   -181.76359    124848.03   -37159.066    3628.5771   -40787.643     409.0143   0.99892646 
   32500    288.27297    123.27933    124529.12   -37151.607    3581.5081   -40733.115    409.55428    1.0014847 
   32600    293.12941   -38.924626    124703.55   -37088.189    3641.8446   -40730.033    411.10186    1.0000838 
   32700     287.7905    128.88782    124569.23   -37151.249    3575.5138   -40726.763    412.66114    1.0011622 
   32800    287.17106    52.849286    124547.41   -37202.211    3567.8179   -40770.029    413.94708    1.0013376 
   32900    292.32239    82.131254    124568.09   -37189.273    3631.8182   -40821.091    415.77228    1.0011714 
   33000    289.10444    217.58504    124752.64   -37251.615    3591.8383   -40843.453    417.29283   0.99969032 
   33100    292.34836   -148.81203     124908.3   -37165.054    3632.1408   -40797.195      419.181   0.99844446 
   33200    287.54315   -159.04164    124656.32   -37240.771    3572.4408   -40813.212    420.01939    1.0004628 
   33300    294.79353    100.01626    124678.92   -37149.894    3662.5197   -40812.414    421.31534    1.0002814 
   33400    289.92282   -86.495735    124468.27   -37254.239    3602.0058   -40856.245    421.77845    1.0019743 
   33500    293.07234    225.91627    124656.72     -37190.4    3641.1355   -40831.535     422.7943    1.0004596 
   33600    296.59258   -103.45436    125077.97   -37150.993    3684.8711   -40835.864    424.74262   0.99709006 
   33700    292.22604    53.862806    125085.32    -37130.16    3630.6211   -40760.781    426.97042   0.99703153 
   33800    294.41738     225.7905    125065.29   -37149.514    3657.8464   -40807.361    427.72725   0.99719118 
   33900    288.51894   -14.170036    125085.26   -37171.928     3584.564   -40756.492    428.44629   0.99703196 
   34000    293.10345   -108.27389    124840.59   -37114.824    3641.5221   -40756.346    429.55646   0.99898598 
   34100    291.54031   -190.00373    124897.77   -37166.913    3622.1015   -40789.014    431.35046    0.9985287 
   34200    292.53244    186.65242    124843.12   -37163.833    3634.4278   -40798.261    431.83898   0.99896574 
   34300    284.45967    85.316173    124939.94   -37232.478    3534.1315   -40766.609    432.88307   0.99819161 
   34400    290.15205     -136.043    125070.71     -37125.1    3604.8538   -40729.954    434.45147   0.99714793 
   34500    292.15288   -16.678626    124807.87   -37144.163    3629.7121   -40773.875    434.59586   0.99924791 
   34600    294.76696    73.370159    124543.74       -37154    3662.1896   -40816.189    435.38445    1.0013671 
   34700    293.32493   -251.78916    124369.19   -37268.159    3644.2737   -40912.432    435.66688    1.0027725 
   34800    292.44493    63.765938    124302.79   -37276.913    3633.3406   -40910.254    436.55731    1.0033082 
   34900    290.79511    262.37577    124618.46    -37280.14    3612.8432   -40892.984    438.02165    1.0007667 
   35000    283.58256   -117.62672    124617.64    -37342.91    3523.2343   -40866.145    438.94899    1.0007733 
   35100     287.0272   -15.532733    124596.91    -37237.15    3566.0306    -40803.18    439.25122    1.0009398 
   35200     288.1738   -52.361088    124797.53   -37232.196     3580.276   -40812.473     441.2074   0.99933068 
   35300    287.39968    36.244433    124589.59   -37221.917    3570.6583   -40792.575     441.0937    1.0009986 
   35400    282.69042   -185.24573    124851.11   -37209.742    3512.1504   -40721.893    443.13326   0.99890184 
   35500    298.79672    197.39018    124740.26   -37108.616    3712.2553   -40820.872    444.10685   0.99978955 
   35600    294.73471    240.98254    124687.74   -37154.562    3661.7889   -40816.351    445.90748    1.0002106 
   35700    293.45816   -203.37835    124386.89   -37100.734     3645.929   -40746.663    446.33761    1.0026298 
   35800    291.90955    19.716172     124706.7   -37145.518    3626.6891   -40772.207    448.94124    1.0000586 
   35900    293.74247   -117.59321    124574.75    -37104.11    3649.4612   -40753.572     449.9266    1.0011179 
   36000    289.37112    86.644773    124634.16   -37048.734    3595.1515   -40643.885    451.32609    1.0006406 
   36100    296.01976    -70.87186    124911.96   -37089.174    3677.7543   -40766.929    454.51157   0.99841521 
   36200    294.12782   -15.445893    124938.64   -37116.197    3654.2488   -40770.446    456.68245   0.99820204 
   36300    295.84335     134.9052    124993.91   -37199.768    3675.5626   -40875.331    458.14014   0.99776063 
   36400    293.95954    -62.08263    124939.63   -37102.554    3652.1581   -40754.712     458.6895   0.99819412 
   36500    291.78038    42.760155    125195.43   -37057.673    3625.0841   -40682.757     461.3364    0.9961546 
   36600     285.3344   -105.34865     125273.8   -37239.188    3544.9992   -40784.187    463.24013   0.99553141 
   36700    289.75915    301.23344    125345.91   -37182.736    3599.9724   -40782.708     464.9618   0.99495867 
   36800    288.25845   -188.04368    125269.95   -37188.894    3581.3277   -40770.222    466.19065   0.99556202 
   36900    288.39907   -159.85335    124751.56   -37197.114    3583.0748   -40780.189    465.94433   0.99969891 
   37000    294.77231     160.8367    124713.58   -37117.488     3662.256   -40779.744    467.74105    1.0000034 
   37100    290.36288    120.98248     124671.1    -37108.95    3607.4731   -40716.424    468.78752    1.0003441 
   37200    290.99148    182.10233    124697.64   -37153.669    3615.2829   -40768.952    470.11542    1.0001312 
   37300    287.49079     -147.343    124923.38   -37148.396    3571.7903   -40720.186    472.21459   0.99832394 
   37400    290.70087    164.34209    124933.04   -37208.403    3611.6723   -40820.075    472.91192   0.99824674 
   37500    293.44007    85.014039    124878.58   -37244.111    3645.7042   -40889.815    474.20579   0.99868208 
   37600    292.91316   -68.289787    124954.03   -37199.686    3639.1579   -40838.844      476.783   0.99807907 
   37700    291.75624     1.789915    125206.18   -37220.658    3624.7843   -40845.442    478.54127    0.9960691 
   37800    286.76822   -30.167081    125349.32   -37353.639     3562.813   -40916.453    480.57415    0.9949316 
   37900    285.29411    -112.8946    125238.13   -37277.844    3544.4987   -40822.343    481.29934   0.99581498 
   38000    287.48886    289.14232    125169.32   -37242.531    3571.7663   -40814.297    481.83938   0.99636239 
   38100    292.64202    106.72763    124754.85   -37176.365    3635.7892   -40812.154      481.446   0.99967255 
   38200    292.98775    52.458293    125053.29   -37185.607    3640.0846   -40825.692    483.34276    0.9972869 
   38300    294.62732   -40.510519    124805.81   -37122.885    3660.4546    -40783.34    483.30439   0.99926442 
   38400    293.61796   -18.989113    125068.14   -37204.188    3647.9144   -40852.102    485.37695   0.99716842 
   38500    286.98681   -24.004029    124758.88   -37211.965    3565.5289   -40777.494    485.67431   0.99964029 
   38600    290.55947    60.482723    124727.68   -37158.575    3609.9156   -40768.491    486.65154   0.99989033 
   38700    295.96091    271.23188    124710.05   -37158.351    3677.0231   -40835.374     487.6489    1.0000317 
   38800    291.20612    -36.06781    124934.72   -37222.893    3617.9496   -40840.842    488.47232   0.99823338 
   38900     293.1182   -113.63688    124786.92   -37152.882    3641.7053   -40794.587    489.05565   0.99941568 
   39000    286.98171   -11.545542    124696.38   -37213.954    3565.4654    -40779.42    491.08651    1.0001413 
   39100    291.40447    76.558818    124686.34   -37162.293    3620.4139   -40782.707    491.62951    1.0002219 
   39200    291.44451    177.79812    124914.71   -37200.139    3620.9113    -40821.05    493.70742   0.99839326 
   39300    291.66557   -4.1046509    124932.39   -37149.115    3623.6578   -40772.773     494.4804   0.99825195 
   39400    288.11896    427.59599     124727.4   -37102.185    3579.5947    -40681.78    495.35981   0.99989256 
   39500    300.34566   -71.012847    124515.98   -37075.533    3731.4994   -40807.033    496.68224    1.0015904 
   39600    290.63484    16.051939    124665.29    -37133.82     3610.852   -40744.672    498.61671    1.0003907 
   39700    293.26484    180.66842    124789.53   -37087.596    3643.5272   -40731.123    499.46327   0.99939473 
   39800    291.68344   -77.056927    125269.42   -37175.369    3623.8798   -40799.249    502.06524   0.99556624 
   39900    290.36594    64.592525    125409.63   -37219.932    3607.5112   -40827.443    503.83249   0.99445317 
   40000    284.73336   -184.07998    125370.02   -37238.137    3537.5319   -40775.669    504.66409   0.99476732 
   40100     289.4978   -128.32709    125266.56   -37136.736    3596.7254   -40733.461    504.64239   0.99558893 
   40200    292.93489    290.08927    125220.49   -37134.218    3639.4279   -40773.646    505.57532   0.99595521 
   40300    287.46658    230.81133    125393.64   -37127.496    3571.4895   -40698.986     506.8443      0.99458 
   40400    295.40717    1.7328369    125198.91   -36994.411    3670.1435   -40664.554    508.20185   0.99612693 
   40500    294.87845    -231.6917    124950.08   -36996.504    3663.5746   -40660.079    508.77243   0.99811065 
   40600    296.55005    193.01328    125181.41   -37079.421    3684.3427   -40763.763    510.29896   0.99626615 
   40700    291.44404   -205.60437    125248.05   -37144.561    3620.9054   -40765.466    512.22434   0.99573606 
   40800    289.70238    11.622682     125121.2   -37205.899    3599.2671   -40805.166    512.40921   0.99674559 
   40900    290.27766    -45.22087    125072.57    -37242.55    3606.4144   -40848.964    513.16828   0.99713313 
   41000     292.4143   -77.630175    125206.37   -37143.842    3632.9601   -40776.802    514.69731   0.99606752 
   41100    298.86184    49.111449    125282.25   -37105.593    3713.0644   -40818.657    516.67451   0.99546427 
   41200     290.4006   -55.945305    125298.67   -37112.498    3607.9417    -40720.44    518.53019    0.9953338 
   41300    287.89632    -47.69564     124889.7   -37314.582    3576.8285   -40891.411    519.98874   0.99859316 
   41400    286.26049    10.367026    125076.53   -37253.809     3556.505   -40810.314    522.71686   0.99710158 
   41500    288.17361   -288.38268    125053.97   -37221.872    3580.2736   -40802.145    523.87501   0.99728144 
   41600    288.46862    44.448916    124890.64   -37155.479    3583.9388   -40739.418    525.74431   0.99858564 
   41700     287.3636     -91.5492    124768.97   -37119.742    3570.2101   -40689.952      526.811   0.99955949 
   41800    296.14732    367.83976    124816.76   -37139.385    3679.3391   -40818.724    529.31648   0.99917673 
   41900    291.90595   -36.654374    124900.39   -37138.469    3626.6442   -40765.113    530.96557   0.99850771 
   42000    290.38111    65.843889    125085.99   -37128.723    3607.6997   -40736.423     532.0665   0.99702614 
   42100    290.81816   -76.493965    125161.63   -37129.399    3613.1295   -40742.529    533.10925   0.99642364 
   42200     294.1506    43.400689    124879.19   -37067.517    3654.5319   -40722.049    533.30795    0.9986772 
   42300    293.00106    165.95803    124912.82    -37044.95    3640.2499   -40685.199    534.77128   0.99840836 
   42400    296.67943    18.106931    124728.32   -37103.797    3685.9501   -40789.747    534.73763   0.99988522 
   42500    291.31954  -0.55794572    124652.57   -37129.073    3619.3588   -40748.432    535.59977    1.0004928 
   42600    286.51437    51.606177    124847.99   -37105.433    3559.6592   -40665.092    537.03109   0.99892678 
   42700    290.73522   -192.57269    124250.37   -37115.737    3612.0991   -40727.836    537.11044    1.0037314 
   42800    294.36041     16.71866    124415.85   -37071.769    3657.1385   -40728.908    538.41457    1.0023964 
   42900    290.12842   -181.23422    124310.36   -37170.014    3604.5602   -40774.574    539.52834    1.0032471 
   43000    291.29968    238.17816    124339.85   -37197.076     3619.112   -40816.188    541.89161    1.0030091 
   43100    294.90889   -42.505105     124620.6   -37155.221    3663.9528   -40819.173    544.52285    1.0007495 
   43200     292.1641    -86.58675    124728.53   -37086.755    3629.8516   -40716.606    545.25971   0.99988355 
   43300    296.17271    4.9112547    124755.58   -37107.019    3679.6546   -40786.673    546.32912   0.99966673 
   43400    293.68257    166.56215    124831.37   -37049.627     3648.717   -40698.344    547.11383   0.99905979 
   43500    293.16188   -146.59732    124663.74   -37026.391    3642.2479   -40668.639    547.86818    1.0004032 
   43600    302.34543    157.73999    124951.78   -36926.226    3756.3446    -40682.57    550.03689   0.99809702 
   43700    290.53606    116.48928    124837.14   -36970.858    3609.6247   -40580.483    551.65786   0.99901363 
   43800    295.78459     34.51584    124772.42   -36965.107    3674.8325    -40639.94    552.99489   0.99953182 
   43900     296.6584    122.14852    124712.05   -37046.005    3685.6888   -40731.694    554.85742    1.0000157 
   44000    291.15078    101.57561    124446.89   -37077.474    3617.2621   -40694.737     555.5319    1.0021464 
   44100    291.07229    219.91858    124523.29   -37107.408    3616.2868   -40723.695    556.15119    1.0015316 
   44200     283.9281    239.93425    124305.35   -37138.247    3527.5274   -40665.774    556.35855    1.0032875 
   44300    294.02249   -11.548424    124579.96   -37124.759    3652.9402   -40777.699    558.36331     1.001076 
   44400    293.52193    112.20572     124974.2   -37104.718    3646.7212   -40751.439     560.5834   0.99791799 
   44500    291.68234   -176.21595    124862.14   -37161.094    3623.8661    -40784.96    560.99757   0.99881362 
   44600    287.02633    -131.3726    124664.05   -37268.768    3566.0198   -40834.788    561.50014    1.0004007 
   44700    293.91663   -73.260199    125074.37   -37249.236     3651.625   -40900.861    563.33995   0.99711875 
   44800    290.72918   -25.059951    124969.31   -37199.969     3612.024   -40811.993    563.73284   0.99795707 
   44900    291.31994    -45.23756     124979.6   -37119.412    3619.3637   -40738.776    565.23947   0.99787486 
   45000    297.61738    130.50555    125062.51   -37095.998    3697.6032   -40793.601     566.8711   0.99721335 
   45100    293.97432   -97.084752    124961.57    -37051.82    3652.3418   -40704.162    567.21826   0.99801889 
   45200    296.28395     2.609638    125067.72   -37126.322    3681.0366   -40807.359    567.98271   0.99717176 
   45300    293.57599   -166.94208    124677.67   -37147.814    3647.3929   -40795.207    567.95918    1.0002914 
   45400    296.05866    154.91141    124864.51   -37151.749    3678.2377   -40829.987    569.23053   0.99879466 
   45500    291.18909    211.43655     125177.3   -37179.423     3617.738   -40797.161     571.4681   0.99629886 
   45600    294.06125     -92.8464    125207.87   -37160.432    3653.4218   -40813.854    572.17442    0.9960556 
   45700    291.47354   -131.04614     125097.2   -37139.807     3621.272   -40761.079     572.7822    0.9969368 
   45800    293.76755    201.02202    125015.27   -37103.574    3649.7728   -40753.347    574.12504   0.99759013 
   45900    297.74006   -231.44063    125058.63   -37005.143    3699.1274   -40704.271    576.70821   0.99724429 
   46000    293.80875    38.527875    124742.51    -36976.11    3650.2847   -40626.394    576.87567   0.99977145 
   46100    298.40284    87.736554    124797.33   -36909.721    3707.3617   -40617.083    578.45906    0.9993323 
   46200    296.62419    9.2224318    124504.96   -36888.507    3685.2638   -40573.771    579.01464     1.001679 
   46300    300.46121    -88.58349    124788.27   -36909.286    3732.9349   -40642.221    581.50801   0.99940486 
   46400    295.49121    103.51251    124853.38   -36997.546    3671.1876   -40668.733    582.96675   0.99888369 
   46500    296.56025    122.19241    125157.25   -37001.996    3684.4693   -40686.465    585.57202    0.9964585 
   46600    295.56605   -208.70822    125291.41   -36996.014    3672.1174   -40668.132    587.21565   0.99539148 
   46700    294.20083   -4.8160501    125489.14   -37084.099    3655.1559   -40739.255    588.99563   0.99382309 
   46800    290.94568   -135.83861     125436.7   -37149.695    3614.7139   -40764.409    590.12337   0.99423853 
   46900    292.03648   -353.65321    125405.56   -37087.146     3628.266   -40715.412     590.7185   0.99448544 
   47000    298.86953     125.6304    125132.53   -37050.806    3713.1599   -40763.966    591.09271   0.99665532 
   47100    296.19906   -68.799782    125276.39   -37054.225     3679.982   -40734.207    593.38376   0.99551083 
   47200    290.93753   -134.87685    125143.81   -37135.705    3614.6127   -40750.318    593.89138   0.99656546 
   47300    293.65118   -90.484262    124815.74   -37174.843    3648.3271    -40823.17    594.25936   0.99918491 
   47400    293.64528     45.07547    124957.13    -37136.19    3648.2537   -40784.444    596.34904   0.99805429 
   47500    294.01755    40.068658     124933.6   -37039.824    3652.8788   -40692.703     597.9693   0.99824232 
   47600    298.85176    85.710534    124938.96   -36996.699    3712.9392   -40709.639    599.27981   0.99819946 
   47700    294.78275    43.410494    124777.19   -37029.655    3662.3857    -40692.04    601.02203   0.99949362 
   47800    296.50855    81.566008    125196.61   -37038.956    3683.8271   -40722.784    604.13546   0.99614521 
   47900    290.99097   -134.26862    125147.05    -37119.94    3615.2765   -40735.216    605.22012   0.99653967 
   48000    293.92555   -25.470388    125394.13   -37145.553    3651.7359   -40797.289     607.3539   0.99457605 
   48100    292.65175   -194.52475    125277.71   -37114.263    3635.9102   -40750.173    608.62434   0.99550031 
   48200    286.52509   -29.839477    125498.81   -37161.487    3559.7923   -40721.279    610.35961   0.99374654 
   48300    297.89186    45.025504    125552.58   -37135.682    3701.0133   -40836.696    611.32619   0.99332092 
   48400     297.8136   -153.67103    125687.47   -37035.736     3700.041   -40735.777    612.94876   0.99225488 
   48500    295.61045    167.94096     125758.7   -37123.658     3672.669   -40796.327    615.22196   0.99169281 
   48600    290.02633   -4.0770444    125688.47   -37104.724    3603.2919   -40708.016    616.39594   0.99224697 
   48700    289.08636   -23.923578    125509.56   -37051.878    3591.6137   -40643.491    617.69438   0.99366135 
   48800    297.59869   -452.54889    125276.17   -37105.304     3697.371   -40802.675    618.07289   0.99551255 
   48900    294.29954   -145.64612    124789.22   -37081.422    3656.3823   -40737.804    617.93619   0.99939726 
   49000     289.5383    59.954701    124640.05   -37137.288    3597.2286   -40734.516    618.36419    1.0005933 
   49100    286.32017    272.28339    124889.27   -37136.012    3557.2465   -40693.258    619.80738    0.9985966 
   49200    293.69326    106.09004    125099.84   -37152.173    3648.8499   -40801.023    621.59034   0.99691576 
   49300     295.8523    -100.4061    125004.19   -37104.898    3675.6738   -40780.571    623.31836   0.99767861 
   49400    291.68706    151.40697    125126.41    -37056.06    3623.9248   -40679.985    624.84863   0.99670412 
   49500    295.19366     175.6466    124971.52   -37117.671    3667.4908   -40785.162    626.17112   0.99793942 
   49600    289.90739   -135.53343    125320.54   -37079.213    3601.8142   -40681.027    628.16377   0.99516012 
   49700    291.70762   -160.80889    124942.17    -37106.05    3624.1802   -40730.231    627.97857   0.99817384 
   49800    291.65599   -123.92658    124846.51    -37170.82    3623.5388   -40794.359    628.79081   0.99893868 
   49900    292.93692    160.43741    125166.47   -37041.678     3639.453   -40681.131    631.30422   0.99638507 
   50000    292.80024    113.28654    124926.03   -37095.475     3637.755    -40733.23    631.52758   0.99830276 
   50100    293.08007    170.01478    125126.73   -37089.568    3641.2316     -40730.8    633.05033   0.99670154 
   50200    291.37694   -255.58693    125017.53   -37144.874    3620.0718   -40764.945    634.28797   0.99757212 
   50300    294.72765    29.818809    125072.12   -37114.242    3661.7011   -40775.943    636.14172   0.99713672 
   50400     284.9012   -286.87135    124945.46   -37136.037    3539.6172   -40675.655    637.18741   0.99814756 
   50500    288.01224   -12.355738    125026.04   -37163.957    3578.2687   -40742.225    638.78682   0.99750423 
   50600    290.51049    48.567706    125089.47   -37197.685    3609.3071   -40806.992    640.10794   0.99699844 
   50700    291.71796   -7.5114383    124889.42   -37233.572    3624.3087   -40857.881    640.52207   0.99859545 
   50800    297.96432   -118.06684    124700.23   -37234.712    3701.9135   -40936.626    641.01617    1.0001105 
   50900    290.67096    102.87549    125002.54   -37145.268    3611.3008   -40756.568    643.96909   0.99769174 
   51000    297.01987   -29.990682    124936.54   -37171.366    3690.1797   -40861.546    645.39522   0.99821882 
   51100     287.5605    146.69078    124886.57   -37206.814    3572.6564    -40779.47    645.99624   0.99861824 
   51200    289.77258   -91.217315    125148.35   -37159.373    3600.1392   -40759.512    648.49727   0.99652936 
   51300    284.62104   -139.96585    124703.07     -37271.2    3536.1364   -40807.336    648.58432    1.0000877 
   51400    287.56211    287.21155    124725.97   -37275.843    3572.6764   -40848.519    649.25837   0.99990405 
   51500    285.68776   -66.128225     124802.8   -37277.558    3549.3894   -40826.948     651.1541   0.99928853 
   51600    288.81322   -179.36645    124735.65   -37186.125    3588.2202   -40774.345    651.49446   0.99982649 
   51700    288.29792     22.79543    124908.02   -37164.142    3581.8181    -40745.96    653.78551   0.99844672 
   51800    288.21433   -185.47532    124745.86   -37233.688    3580.7796   -40814.468    654.36831   0.99974464 
   51900     285.1135    180.52129    124345.76   -37303.319    3542.2548   -40845.574    654.17321    1.0029615 
   52000    284.94645    73.472145    124446.26   -37321.761    3540.1794   -40861.941     656.2763    1.0021515 
   52100     289.9276    -339.7883     124667.8   -37215.652    3602.0652   -40817.717    658.35705    1.0003707 
   52200    291.57538    85.401783    124942.64   -37276.973    3622.5373    -40899.51    659.34571   0.99817009 
   52300    285.81691   -71.593278    125018.38   -37244.442    3550.9939   -40795.436    660.64845   0.99756538 
   52400     285.8775    181.41228    124867.98   -37147.132    3551.7467   -40698.879    660.89344   0.99876686 
   52500     294.1299    107.97968    125149.36   -37145.155    3654.2747   -40799.429    663.83909   0.99652132 
   52600    292.75701    166.05796    125388.27   -37189.742    3637.2179   -40826.959    665.32949    0.9946226 
   52700    289.69084    186.67184    125576.32   -37220.249    3599.1237   -40819.373    668.35428    0.9931331 
   52800     286.9893   -100.47229    125367.65    -37158.33    3565.5598   -40723.889      669.607   0.99478616 
   52900    292.96629    22.916917    125331.18   -37127.315     3639.818   -40767.133    670.01685   0.99507563 
   53000    293.43581   -253.84435    125489.48   -37101.018    3645.6513    -40746.67    671.60961   0.99382039 
   53100    287.57858   -78.111227    124974.59   -37186.621     3572.881   -40759.502    670.37825   0.99791486 
   53200    285.26573   -82.263002    125263.85    -37175.04     3544.146   -40719.186    672.55602   0.99561052 
   53300    291.56915   -188.44061    125259.34   -37161.771    3622.4598   -40784.231    673.56603   0.99564636 
   53400    294.54637   -89.744125    125001.12   -37256.051    3659.4489     -40915.5    673.76199   0.99770305 
   53500    290.84184    184.70838    125137.69   -37284.525    3613.4237   -40897.948    675.14775   0.99661426 
   53600    287.20881    0.7787522    124852.49   -37293.947    3568.2869   -40862.234    675.63299   0.99889081 
   53700    284.53972    48.313531    124802.06   -37294.319    3535.1261   -40829.445     676.1417   0.99929442 
   53800    293.35924   -137.73658    125270.01   -37139.716    3644.6999   -40784.416    678.68676   0.99556155 
   53900    292.53595    156.42878    125164.43   -37232.363    3634.4714   -40866.834     679.8696   0.99640131 
   54000    290.42826    30.452796    125183.03   -37188.532    3608.2855   -40796.818    680.68907   0.99625325 
   54100    292.03543    65.600583    125084.01   -37195.671    3628.2529   -40823.924    681.44641   0.99704193 
   54200    293.02938   -93.016173     124953.5   -37201.313    3640.6018   -40841.914    683.49148   0.99808329 
   54300    295.48809    309.41881    125063.09   -37149.365    3671.1489   -40820.514     685.2849   0.99720869 
   54400    293.82661    6.0571528    125199.84    -37193.45    3650.5066   -40843.956    686.23963   0.99611951 
   54500    290.94964   -224.84828     125101.5   -37179.976    3614.7631   -40794.739    687.67596   0.99690251 
   54600    294.75251    60.966859    125265.13   -37039.551      3662.01   -40701.561    690.43183    0.9956003 
   54700    291.50525   -90.385104    125061.07   -37044.333     3621.666   -40665.999    690.66174   0.99722479 
   54800    293.18658    8.6599238    124831.42   -37127.532    3642.5549   -40770.087     691.6079   0.99905937 
   54900    286.24183    207.62127     125115.4   -37192.709    3556.2731   -40748.982    694.27662   0.99679175 
   55000    292.23888   -144.44534    124912.27   -37291.692    3630.7806   -40922.472    694.01994   0.99841279 
   55100    291.41309    178.71369    125128.02   -37234.497     3620.521   -40855.018    695.67266   0.99669123 
   55200    294.61298    50.615521    125188.29   -37255.026    3660.2765   -40915.303    697.26113   0.99621138 
   55300    290.03737    95.743724    125131.11   -37181.631     3603.429    -40785.06     696.8374   0.99666662 
   55400    294.19095    82.644565    124931.29   -37157.739    3655.0332   -40812.772    696.24976   0.99826077 
   55500    295.60139    4.4759351    124685.99   -37076.823    3672.5565   -40749.379     696.0407    1.0002247 
   55600    284.42078   -137.15993     124879.7    -37125.35    3533.6484   -40658.998    698.02799   0.99867316 
   55700    294.80976   -35.320056    124831.02   -37125.945    3662.7212   -40788.666    698.25215   0.99906263 
   55800     294.5148   -57.322006       125062   -37158.236    3659.0566   -40817.293    700.14716   0.99721738 
   55900    293.10565    -292.6422    125143.39   -37112.123    3641.5494   -40753.673    701.68063   0.99656888 
   56000    295.70463    -294.6679    124840.94   -37098.074    3673.8391   -40771.913    702.12429   0.99898325 
   56100    299.87662    274.64838    124804.59   -37054.172    3725.6721   -40779.844    702.78593   0.99927414 
   56200    297.03092    15.387126    124740.28   -37059.911     3690.317   -40750.228    703.80554   0.99978931 
   56300    291.42407    19.385669    124735.68   -37092.561    3620.6573   -40713.218    704.95206   0.99982622 
   56400     296.9469    13.748583    124587.62   -37062.371    3689.2732   -40751.644    706.71689    1.0010145 
   56500    289.50951   -212.67111    124557.58   -37178.023    3596.8709   -40774.894    708.79207    1.0012558 
   56600    287.74674   -65.390955    124526.68   -37199.255    3574.9702   -40774.226    709.73722    1.0015043 
   56700    291.62651   -70.165493    124492.75   -37255.343    3623.1725   -40878.516    711.53289    1.0017772 
   56800    295.77051    -31.72039    124867.72   -37180.305    3674.6576   -40854.963    714.35634     0.998769 
   56900    292.23326    254.15253    124868.11   -37151.644    3630.7108   -40782.354    716.04815   0.99876586 
   57000    293.72346    53.910855    124718.32   -37097.186    3649.2251   -40746.412     717.2804   0.99996539 
   57100    294.07721   -154.37976    124675.57   -37149.035    3653.6201   -40802.655    718.48117    1.0003082 
   57200    292.68555   -7.2833245    124792.94   -37200.829      3636.33   -40837.159    720.22592   0.99936746 
   57300    290.05835    61.908281    124876.08   -37266.478    3603.6897   -40870.167    721.31873   0.99870208 
   57400    285.57886    56.977717    124886.49   -37291.164    3548.0364     -40839.2    722.38133   0.99861882 
   57500    283.34281    80.164386    124759.72   -37320.105    3520.2557   -40840.361    722.49231   0.99963354 
   57600    291.77666   -3.9037678    124869.28   -37290.684     3625.038   -40915.722    722.41992   0.99875647 
   57700    281.94307 -0.098831896    124747.25   -37366.772    3502.8652   -40869.637    723.06835    0.9997335 
   57800    285.50287   -213.67657    124832.25    -37378.05    3547.0923   -40925.142    725.00696   0.99905276 
   57900     284.5752   -42.418423    124770.93   -37362.624    3535.5669   -40898.191    726.04416   0.99954378 
   58000    286.34351    70.202519    124712.88   -37329.859    3557.5365   -40887.396    727.39495     1.000009 
   58100    290.08455   -34.671979     124782.6   -37242.285    3604.0151     -40846.3    729.47207   0.99945027 
   58200    291.37758   -64.731138    124902.12   -37175.487    3620.0798   -40795.567    730.34844   0.99849393 
   58300    295.74673   -201.50401    125058.51    -37096.42    3674.3622   -40770.782       731.28   0.99724525 
   58400    292.42147    305.71819    125191.29   -37103.972    3633.0491   -40737.021    733.00653   0.99618755 
   58500    295.20456   -244.53677    125212.46   -37116.798    3667.6263   -40784.424    733.49946   0.99601912 
   58600    293.87781    -211.2521    125144.52   -37049.249    3651.1426   -40700.391    733.41761   0.99655981 
   58700     292.4056    23.782782    125063.55   -37055.708     3632.852    -40688.56    734.06084   0.99720504 
   58800    291.43605   -155.97699    124984.44   -37126.505    3620.8062   -40747.311    735.18328   0.99783625 
   58900    288.95451   -35.609923    125045.77   -37138.183    3589.9755   -40728.159    736.66393   0.99734684 
   59000     289.9702    32.461065    125055.79   -37120.095    3602.5945   -40722.689    738.53462   0.99726693 
   59100    292.45542    113.36173    125194.06    -37122.73     3633.471   -40756.201    740.36731   0.99616547 
   59200    296.76049   -165.90868    125308.17    -37128.42    3686.9572   -40815.377    741.34107   0.99525839 
   59300    291.21195    146.26573     125050.7   -37142.191    3618.0221   -40760.213     741.9073   0.99730754 
   59400    288.50052    28.227779    125017.17   -37223.634    3584.3351   -40807.969    743.03558   0.99757503 
   59500    288.36781   -166.17807    125112.73   -37180.093    3582.6864   -40762.779    744.55353   0.99681304 
   59600    292.30383    48.644096    125132.65   -37181.697    3631.5875   -40813.284    744.75125   0.99665438 
   59700    289.68677   -60.883766       125398   -37208.511    3599.0731   -40807.584    747.81088   0.99454542 
   59800    291.04893   -164.26225    124996.82   -37205.372    3615.9966   -40821.368    746.84986   0.99773739 
   59900    296.64106  -0.94393376    124908.26   -37160.866    3685.4734    -40846.34    746.68705   0.99844477 
   60000    295.19409    97.929661    125047.57   -37229.752    3667.4962   -40897.248    749.34255   0.99733252 
   60100    291.59889    238.03389    125035.41   -37181.884    3622.8293   -40804.713    750.39757   0.99742949 
   60200    290.85762   -193.58419    124836.92   -37156.007    3613.6198   -40769.627    750.06758   0.99901535 
   60300    292.24118   -208.33359    125039.09   -37123.357    3630.8092   -40754.167    752.38317   0.99740014 
   60400    298.44936   -40.047425    125124.71   -37042.839    3707.9397   -40750.779    753.16379    0.9967176 
   60500    294.96984   -87.737757    125049.35   -37092.039    3664.7101   -40756.749    753.46019   0.99731826 
   60600    290.84822   -124.79921    124703.75   -37154.558     3613.503   -40768.061    752.13613    1.0000822 
   60700    289.46549    222.46705    124900.15   -37198.439    3596.3239   -40794.763    754.18415   0.99850966 
   60800    289.02463     344.1333    124724.23   -37124.994    3590.8467   -40715.841     754.4116   0.99991801 
   60900    292.51368   -165.78469    124944.27   -37097.991    3634.1948   -40732.185    756.08184   0.99815701 
   61000    292.71397   -243.77303    124710.06   -37149.579    3636.6831   -40786.262    757.83917    1.0000316 
   61100    287.98428    16.297093    124878.42   -37157.536    3577.9214   -40735.457    760.40719   0.99868335 
   61200    287.33563    162.67184    124854.31   -37173.368    3569.8625    -40743.23      761.451    0.9988762 
   61300    291.17925    69.883251    124754.66   -37165.664    3617.6158   -40783.279    762.01796   0.99967409 
   61400    281.76271    61.534358    124694.56   -37213.105    3500.6245   -40713.729    762.11927     1.000156 
   61500    291.60008   -232.42392    124676.75   -37200.606    3622.8442   -40823.451     763.1304    1.0002988 
   61600    289.81097    126.07844    124974.52   -37144.539    3600.6162   -40745.155    766.29539   0.99791545 
   61700    290.26854    213.14984    124987.74   -37247.163     3606.301   -40853.464    767.82934   0.99780988 
   61800    276.14073    37.847184    124936.07   -37297.972    3430.7769   -40728.748    767.89214   0.99822256 
   61900    285.48794   -44.389071    124986.55   -37205.989    3546.9068   -40752.896    769.35348    0.9978194 
   62000    294.05619   -23.350537    124817.34   -37180.756    3653.3589   -40834.115    770.50882    0.9991721 
   62100     288.1268   -162.52322    124769.28   -37204.077    3579.6921   -40783.769    773.48191   0.99955698 
   62200    293.99624    155.71705    124795.96   -37142.457    3652.6141   -40795.071    775.19543   0.99934324 
   62300    292.09824   -15.970031    124993.05   -37197.412    3629.0333   -40826.445    777.44326   0.99776754 
   62400    294.18156   -157.34981    125313.47   -37122.626    3654.9165   -40777.542    780.41193    0.9952163 
   62500    289.62989    72.833439    125251.13   -37139.806    3598.3664   -40738.172     781.3531   0.99571158 
   62600    290.03877    128.44797    125136.67   -37168.371    3603.4464   -40771.817    782.60837   0.99662234 
   62700    290.58583    34.226765    125114.66   -37180.893    3610.2431   -40791.136    784.07537   0.99679768 
   62800    293.00133    105.39298    125226.02   -37212.876    3640.2533   -40853.129    785.32044   0.99591126 
   62900    292.65269   -151.66964     125196.1   -37133.486    3635.9218   -40769.407    785.77845   0.99614928 
   63000    297.13168    242.32556    125328.85   -37073.478    3691.5689   -40765.047    787.80495   0.99509413 
   63100    290.76833   -17.800657    125377.49   -37021.902    3612.5105   -40634.412    790.00986   0.99470807 
   63200    295.97769   -122.64902    125052.98   -37054.184    3677.2316   -40731.416    790.27779    0.9972893 
   63300    289.39375   -249.86268    124914.25   -37125.288    3595.4326    -40720.72    791.69404   0.99839691 
   63400    293.44309   -64.380762    124981.18   -37015.262    3645.7417   -40661.004     793.2766   0.99786226 
   63500     292.9953   -135.41575    124494.21   -37111.934    3640.1783   -40752.112     793.2538    1.0017655 
   63600    289.96082    61.594483     124504.5   -37127.783    3602.4779   -40730.261    795.94447    1.0016827 
   63700    290.22412   -36.665584    124477.82   -37143.857    3605.7491   -40749.607    796.76808    1.0018974 
   63800     290.2792   -279.36571    124498.82   -37249.971    3606.4336   -40856.405    797.78751    1.0017284 
   63900    286.48097    88.536332    124475.46   -37241.538    3559.2443   -40800.783    799.31365    1.0019163 
   64000     290.8284   -129.97373    124419.62    -37220.86    3613.2567   -40834.117    800.75014     1.002366 
   64100    290.58171    3.2807902     124211.2   -37152.023    3610.1919   -40762.215    801.71332     1.004048 
   64200    294.35774   -18.591551     124507.3   -37151.226    3657.1054   -40808.331    803.99005    1.0016602 
   64300    300.88171   -53.213734    124682.16   -37049.278    3738.1593   -40787.437    805.59205    1.0002554 
   64400    295.97294    139.43401    125056.78   -37063.215    3677.1726   -40740.388    808.06041     0.997259 
   64500    292.78223    58.295329    125250.29   -37057.699    3637.5311    -40695.23    809.75057   0.99571832 
   64600    296.35285    -153.0225    125520.01   -37116.063    3681.8926   -40797.956    812.52555   0.99357869 
   64700      288.315    116.59631    125495.83   -37152.606    3582.0302   -40734.636     814.5792   0.99377012 
   64800     294.8564   -121.44461     125421.2   -37168.731    3663.3007   -40832.032    814.26439   0.99436144 
   64900    297.64303    159.88573    125455.77   -37154.135    3697.9219   -40852.057    815.66525   0.99408745 
   65000    291.16604   -125.75272    125478.78   -37121.693    3617.4516   -40739.144     816.8521   0.99390515 
   65100     296.7473    45.660575     125488.9    -37126.75    3686.7933   -40813.543    818.51679   0.99382498 
   65200    292.75221    65.086874    125373.57   -37118.879    3637.1583   -40756.037    818.21194   0.99473917 
   65300    293.57308   -90.969391    125316.99     -37120.7    3647.3567   -40768.056    819.16294   0.99518829 
   65400    294.56487    236.53228    125197.17   -37051.443    3659.6788   -40711.122    819.60694   0.99614075 
   65500    288.21054   -90.868601    125267.71   -37120.033    3580.7325   -40700.765    820.21207    0.9955798 
   65600    289.64183   -47.316125    125457.71   -37134.226    3598.5148   -40732.741    822.01871   0.99407208 
   65700     287.9095   -9.6973989    125081.71   -37197.496    3576.9923   -40774.488    822.29771   0.99706026 
   65800    289.14631   -106.39881    124988.03   -37208.038    3592.3584   -40800.396    823.61753    0.9978076 
   65900    292.67137   -63.290965    124902.05   -37177.475    3636.1539   -40813.629    824.35839   0.99849445 
   66000    292.38137   -139.25004    124957.96   -37063.893    3632.5509   -40696.444    826.43762   0.99804767 
   66100    298.08046   -1.6968581    125330.77   -36973.224    3703.3565    -40676.58    829.06871   0.99507888 
   66200     297.5683   -144.11942    124981.14   -36897.146    3696.9934    -40594.14    828.14186   0.99786261 
   66300    294.21142    306.10052    125465.91   -36973.859    3655.2874   -40629.146    829.83175   0.99400711 
   66400    294.63217    148.75783    125236.13   -37043.335    3660.5149    -40703.85     830.4186   0.99583088 
   66500     288.2739   -84.198978    125133.53   -37081.233    3581.5197   -40662.752    830.76531   0.99664739 
   66600     289.9446   -85.608551    124981.85   -37124.365    3602.2765   -40726.641    832.00094   0.99785688 
   66700    290.03798    44.617352    124988.13   -37128.052    3603.4366   -40731.489    833.25449   0.99780675 
   66800    297.22166    57.837417    125207.82   -37041.795    3692.6867   -40734.482    835.36535   0.99605606 
[...]
   84600    287.53597   -101.53633    124799.38   -37272.676    3572.3516   -40845.028    1037.7929   0.99931588 
   84700    286.75925    22.365011    124720.62   -37298.292    3562.7016   -40860.994    1038.2076   0.99994692 
   84800    284.21287    130.37094    124578.54   -37262.398    3531.0653   -40793.463    1039.5789    1.0010874 
   84900    293.63901     92.16516    124794.67   -37229.125    3648.1759   -40877.301    1041.3995   0.99935364 
   85000    289.58019    264.28539    124927.41   -37158.888     3597.749   -40756.637    1042.5827   0.99829175 
   85100     295.0935    189.92489    125206.52   -37137.338    3666.2464   -40803.585    1044.1398   0.99606635 
   85200    285.43455     352.3964    125340.53   -37137.535    3546.2435   -40683.779    1044.9871   0.99500141 
   85300     293.3684   -78.936933    125365.62   -37160.862    3644.8138   -40805.675    1046.1577   0.99480225 
   85400    289.05869   -136.26981    125189.41   -37168.678    3591.2698   -40759.948    1047.1188   0.99620249 
   85500    294.17663   -96.904186     125328.1   -37128.792    3654.8552   -40783.647    1049.3329   0.99510008 
   85600    293.25727    81.072613    125482.88   -37094.896    3643.4331   -40738.329    1051.0334   0.99387265 
   85700    289.59516   -53.909638    125172.86   -37152.439     3597.935   -40750.374    1051.0823    0.9963342 
   85800    288.62133    63.867754    125098.52   -37159.875    3585.8361   -40745.712    1052.3351   0.99692629 
   85900    300.62111    -203.3426    125040.02    -37032.88    3734.9215   -40767.802    1053.5134   0.99739266 
   86000    291.02916   -236.26661    124716.74   -37138.409     3615.751    -40754.16     1052.917   0.99997806 
   86100    286.24574   -74.157272    124742.43   -37126.538    3556.3218    -40682.86    1055.3127   0.99977208 
   86200    292.45659    218.09255    124518.88   -37053.853    3633.4854   -40687.338    1054.4286     1.001567 
   86300    291.81872    174.50886    124800.37    -37075.94    3625.5605     -40701.5    1058.5236   0.99930799 
   86400    293.69977    122.22837    124942.74   -37088.616    3648.9307   -40737.546    1059.9555   0.99816931 
   86500    293.04529   -159.08574    125096.45   -37098.978    3640.7994   -40739.777    1062.1055   0.99694278 
   86600    295.09505   -18.403597    125038.63   -37037.559    3666.2657   -40703.825     1063.582   0.99740379 
   86700    293.85213    66.944505    124869.34   -37026.769    3650.8237   -40677.593    1064.4541   0.99875602 
   86800    290.17119   -130.83027    124943.04   -37106.329    3605.0916    -40711.42     1064.598   0.99816684 
   86900    297.14895    9.8896782    125016.05   -37057.074    3691.7834   -40748.858    1065.6582   0.99758393 
   87000    296.92942    156.70235    124970.86   -37055.533     3689.056   -40744.589    1065.5353   0.99794469 
   87100     291.7946    -317.4688    124960.58   -37083.896    3625.2608   -40709.156    1067.7126   0.99802679 
   87200    297.52411    224.43888    125015.82    -37149.33    3696.4444   -40845.775    1069.4921    0.9975858 
   87300    291.93024    82.060774    125225.25    -37173.64    3626.9461   -40800.586    1071.1951   0.99591735 
   87400     288.5315   -165.71798    125271.49   -37170.789      3584.72   -40755.509    1072.3762   0.99554976 
   87500      288.425   -157.77496    125340.06   -37162.835    3583.3969   -40746.232     1074.292   0.99500512 
   87600     290.0463   0.10399313    125160.06     -37133.8      3603.54    -40737.34    1073.2522   0.99643612 
   87700    297.69085   -78.473768    124933.85   -37149.361     3698.516   -40847.877    1072.5083   0.99824032 
   87800    295.92925   -135.12874    124774.62   -37141.965    3676.6298   -40818.594    1072.0199   0.99951419 
   87900     291.4407    188.37705    124734.22   -37195.232     3620.864   -40816.096    1071.3555   0.99983789 
   88000    288.46964   -97.957049    124796.81   -37184.305    3583.9515   -40768.256    1073.4545   0.99933645 
   88100    293.99961    85.295275    124430.81   -37097.758    3652.6559   -40750.414    1071.7941    1.0022759 
   88200    296.85933    53.117132     124647.5   -37053.983    3688.1851   -40742.168    1074.3158    1.0005336 
   88300    293.65772    276.69856    124843.72   -37087.903    3648.4082   -40736.311    1076.3158   0.99896098 
   88400    294.14223   -354.96298    124947.73   -37208.459    3654.4278   -40862.887    1078.1255   0.99812941 
   88500     295.3859   -19.859458    124451.25    -37132.98    3669.8792    -40802.86     1076.358    1.0021113 
   88600    291.95584    59.321696    124644.84   -37050.148    3627.2641   -40677.412    1078.2081    1.0005548 
   88700     291.9652   -137.32487    124822.58   -36995.861    3627.3804   -40623.241    1080.8091   0.99913016 
   88800    295.66732   -6.4000754    124871.03   -36951.351    3673.3756   -40624.727    1081.9851   0.99874247 
   88900    291.86551   -54.699275     125167.2   -37002.846    3626.1419   -40628.988    1084.9395   0.99637928 
   89000    296.01985   -76.251182    125253.39   -36990.725    3677.7555   -40668.481    1086.5423   0.99569361 
   89100    287.85964   -68.217233    125095.57    -37094.61    3576.3728   -40670.983    1087.4321   0.99694981 
   89200    285.75461    204.22407     125124.4   -37127.521    3550.2199   -40677.741    1086.7889   0.99672011 
   89300    292.39439   -63.599632    125157.41   -37146.115    3632.7126   -40778.827    1087.8658   0.99645717 
   89400    290.43587   -141.09327     125173.9   -37184.771    3608.3799   -40793.151    1088.7627    0.9963259 
   89500    287.09413   -190.77206    124883.41   -37252.831    3566.8622   -40819.693     1087.014   0.99864352 
   89600    284.68407   -3.2380163    124645.51   -37313.614    3536.9196   -40850.534    1086.7462    1.0005495 
   89700    290.72974     121.7868     124604.3   -37307.199     3612.031    -40919.23    1088.3577    1.0008804 
   89800    289.16494    150.18685    124701.72   -37260.625      3592.59   -40853.215    1090.1131    1.0000985 
   89900    286.69663    68.920752    124711.35   -37362.412    3561.9236   -40924.336    1091.4679    1.0000213 
   90000    291.20906    21.765242    124706.12    -37223.86    3617.9861   -40841.846    1092.4627    1.0000632 
   90100    285.73958   -202.06288    125070.63   -37230.051    3550.0332   -40780.084    1095.1319   0.99714859 
   90200    292.23495    -74.63064    124792.43   -37306.054    3630.7317   -40936.786    1094.6373   0.99937158 
   90300    286.31153   -90.815946    124700.19   -37310.499    3557.1392   -40867.638    1095.3158    1.0001108 
   90400    288.43221    82.884448    124890.06   -37286.367    3583.4865   -40869.853    1097.4361   0.99859027 
   90500    291.19068    62.597521    124854.67   -37234.432    3617.7577   -40852.189    1097.8851   0.99887335 
   90600    296.20148    65.643879    124863.64   -37112.502     3680.012   -40792.514    1097.9665   0.99880162 
   90700    289.87846    51.845067    124902.09   -37108.521    3601.4547   -40709.975    1098.9019   0.99849417 
   90800    288.86807    132.43757    124729.89   -37136.358    3588.9017   -40725.259    1098.9334   0.99987264 
   90900     282.6915   -42.546302    124837.68   -37238.522    3512.1638   -40750.685     1100.136   0.99900928 
   91000    284.26795     201.8833    124794.76   -37289.717    3531.7496   -40821.466    1103.1018    0.9993529 
   91100    292.90155    337.50107    124972.11   -37267.643    3639.0136   -40906.657    1105.9094   0.99793471 
   91200    285.89006    19.653928    125243.48   -37227.971    3551.9028   -40779.874    1108.5517   0.99577242 
   91300    297.16314    -113.8441    125569.19   -37085.659    3691.9597   -40777.618    1111.1162   0.99318953 
   91400    290.04761     344.8199    125515.71   -37055.028    3603.5562   -40658.584     1111.622   0.99361269 
   91500    295.37868    -100.0575    125643.74     -37040.8    3669.7896    -40710.59    1113.2561   0.99260025 
   91600    286.85952   -263.13195     125620.2    -37060.73    3563.9473   -40624.677     1114.552   0.99278622 
   91700    290.32448    186.76563    125487.18   -37156.662     3606.996   -40763.658    1115.6056   0.99383863 
   91800    290.31967    13.897972    125286.93   -37094.041    3606.9363   -40700.978    1114.8719   0.99542706 
   91900    286.79017    133.51479    125380.71   -37090.342    3563.0857   -40653.428    1116.2679   0.99468251 
   92000    288.34476   -95.619097    125140.41   -37082.796       3582.4   -40665.196    1115.6879   0.99659259 
   92100    285.22741   -212.75338    125002.89   -37133.454    3543.6699   -40677.124    1115.5972   0.99768897 
   92200    294.62818   -42.708493     124614.2   -37099.079    3660.4653   -40759.544    1113.8582    1.0008009 
   92300    301.42206    234.74114    125033.44    -37010.89    3744.8726   -40755.763    1117.7175   0.99744517 
   92400     298.4219    114.21143    125176.43   -37032.353    3707.5985   -40739.952    1118.8056   0.99630578 
   92500    298.21648   -288.19107    125076.26   -37103.895    3705.0464   -40808.942     1118.316   0.99710374 
   92600    292.39894    27.955675    125179.14   -37088.227    3632.7692   -40720.997    1120.5398    0.9962842 
   92700    291.06239    38.541556    125070.63    -37077.24    3616.1639   -40693.404    1120.1963   0.99714859 
   92800    292.71561   -34.637683    125001.63   -37111.327    3636.7035   -40748.031    1120.9941   0.99769902 
   92900    297.70392   -166.81003    124960.24   -37060.774    3698.6784   -40759.452    1121.6125   0.99802952 
   93000    295.09978     58.99374    124841.43   -37114.002    3666.3245   -40780.327     1121.362   0.99897927 
   93100    292.21947    185.23473    125031.14   -37043.146    3630.5394   -40673.685    1123.4696   0.99746353 
   93200    294.22935     131.2389    124937.95   -37094.102    3655.5102   -40749.612      1124.22   0.99820756 
   93300    296.77728     -384.606    124784.95   -37103.293    3687.1658   -40790.459    1123.7064   0.99943148 
   93400    297.26641    -130.7079    124975.71   -37132.781    3693.2427   -40826.023     1125.888   0.99790597 
   93500    289.97883   -3.1416593    124646.83   -37197.908    3602.7017   -40800.609    1124.9505    1.0005389 
   93600     287.2875    318.07713    125028.43   -37270.377    3569.2646   -40839.642    1128.6251   0.99748519 
   93700    287.66887    76.286928    125057.62   -37239.433    3574.0028   -40813.436    1129.9967   0.99725233 
   93800     289.0519     282.6875    124972.62   -37180.495    3591.1855    -40771.68    1130.7774   0.99793062 
   93900       291.06    35.156736     124755.6    -37171.04    3616.1341   -40787.174    1129.8447   0.99966661 
   94000    290.92137    164.08228    124798.51   -37187.637    3614.4119   -40802.049    1130.7958   0.99932285 
   94100    287.56913   -87.266979    124710.48   -37171.548    3572.7636   -40744.312    1131.2928    1.0000283 
   94200    293.48437    222.95069    124722.61   -37149.907    3646.2545   -40796.162    1132.3688   0.99993103 
   94300     293.9107    231.24674    124990.87   -37075.713    3651.5513   -40727.264    1135.5305   0.99778493 
   94400    294.04972   -305.51606    125021.56   -37067.201    3653.2786    -40720.48    1136.2645   0.99753999 
   94500    296.68526    30.832112    124811.94   -36988.011    3686.0225   -40674.033    1135.7036   0.99921536 
   94600    296.78569     132.8303     124787.3   -37049.935    3687.2702   -40737.205     1136.475   0.99941266 
   94700    291.11777   -119.26032    124627.32   -37116.502     3616.852   -40733.354    1137.6421    1.0006956 
   94800    294.44536    32.894073    124759.05   -37108.233     3658.194   -40766.427    1139.7519   0.99963894 
   94900    293.63068    378.58875    124889.33   -37088.216    3648.0723   -40736.288    1141.9595   0.99859613 
   95000    294.84015   -233.88488    125220.27   -37089.168    3663.0989   -40752.267    1144.9251   0.99595701 
   95100    299.74552   -34.806525    124992.22   -37101.132    3724.0433   -40825.175    1144.6104    0.9977741 
   95200    293.76416    228.00735    125241.66   -37109.282    3649.7307   -40759.013    1148.9005   0.99578687 
   95300    294.28819   -54.645463    125042.53   -36983.997    3656.2413   -40640.238    1148.3564   0.99737269 
   95400    294.32738    302.19392    124925.68   -37086.856    3656.7282   -40743.585    1148.8197   0.99830556 
   95500    295.03316    328.33265    125051.01   -37061.975    3665.4968   -40727.472      1151.74   0.99730508 
   95600     296.4071    267.02961    125070.58   -37057.623    3682.5667    -40740.19    1152.8873   0.99714903 
   95700     287.2608   -142.64841    125031.28   -37134.269    3568.9329   -40703.202    1153.3649   0.99746241 
   95800    291.91161    222.89622    124886.28   -37190.195    3626.7145   -40816.909     1153.083    0.9986205 
   95900    290.84591    290.60003    125243.58   -37116.308    3613.4743   -40729.782    1156.1076    0.9957716 
   96000    293.66909   -81.648091    125341.32    -37204.27    3648.5496    -40852.82     1158.173   0.99499516 
   96100    293.08141   -111.22289    125174.38   -37146.078    3641.2482   -40787.327     1158.283    0.9963221 
   96200    292.33283    149.62959    125275.19   -37188.887    3631.9479   -40820.835    1158.4986   0.99552039 
   96300    297.55583   -119.19337    125264.93   -37118.595    3696.8385   -40815.434     1160.405   0.99560187 
   96400    289.74841    205.88277    124997.59   -37108.992    3599.8389   -40708.831    1159.8646   0.99773124 
   96500    295.82174    13.768811    125195.84   -37178.225    3675.2941   -40853.519    1163.7178   0.99615138 
   96600    288.31685    75.209355    125126.84   -37169.057    3582.0533    -40751.11    1164.1387   0.99670065 
   96700    288.17721    -156.9942    125318.77    -37276.45    3580.3184   -40856.768    1166.7854    0.9951742 
   96800    285.31167    128.63894    125044.73   -37357.247    3544.7169   -40901.964    1166.1357   0.99735517 
   96900    288.48356    17.454783    125095.07    -37259.91    3584.1245   -40844.034    1168.5597   0.99695382 
   97000    292.94466    53.851774    124969.14   -37284.846    3639.5493   -40924.395     1168.564   0.99795842 
   97100    288.17196    -128.4649    124869.59   -37264.538    3580.2532   -40844.791    1169.0701   0.99875402 
   97200    293.21044    80.403656       124977   -37283.427    3642.8513   -40926.278      1170.72   0.99789568 
   97300    287.30209     72.53203    125021.03   -37285.119    3569.4458   -40854.565    1170.2554   0.99754419 
   97400    290.09434   -135.19409    125203.01   -37291.225    3604.1368   -40895.362    1171.6355   0.99609428 
   97500    292.41658   -44.371917    125346.74   -37174.973    3632.9884   -40807.961    1175.4405   0.99495213 
   97600     284.7522   -168.82107     125463.7   -37270.634     3537.766     -40808.4    1177.8502   0.99402462 
   97700    291.55153    5.3148352    125363.16   -37184.368    3622.2409   -40806.609    1178.5563   0.99482182 
   97800    287.50995    13.393986    124927.63   -37135.811    3572.0283    -40707.84    1178.5463   0.99828997 
   97900    292.72353   -360.09675    124771.54   -37055.778    3636.8019    -40692.58    1180.2242   0.99953886 
   98000    293.69568    86.290653    124725.86   -37092.722    3648.8799   -40741.602    1180.5245   0.99990494 
   98100    288.20395    7.6193441    124952.47   -37195.336    3580.6505   -40775.987    1183.0164   0.99809153 
   98200    295.64605   -110.87911    124997.06    -37147.39    3673.1113   -40820.502    1185.1283   0.99773553 
   98300    297.04982   -146.68991    124984.36   -37204.109    3690.5518    -40894.66     1185.599    0.9978369 
   98400    291.45439   -117.65872    125027.56   -37208.525    3621.0342   -40829.559    1187.2786   0.99749206 
   98500    288.43383   -186.96969    124962.56    -37216.09    3583.5066   -40799.597    1187.3109   0.99801094 
   98600    285.22712    127.99501    124888.49   -37262.531    3543.6664   -40806.197    1188.1347   0.99860284 
   98700    285.20798    309.19663    124901.89   -37307.527    3543.4285   -40850.955    1188.7221   0.99849573 
   98800    288.04215   -14.393272    125073.16   -37271.021    3578.6404   -40849.661    1191.4085    0.9971284 
   98900    289.77206   -353.79209     124988.9   -37262.916    3600.1328   -40863.048      1192.23   0.99780059 
   99000    283.35598   -160.08599    125185.47    -37310.29    3520.4194   -40830.709    1194.7234   0.99623382 
   99100    288.95304   -32.608958    124844.83   -37225.121    3589.9573   -40815.079    1192.4878   0.99895212 
   99200    292.90936    291.39381    125028.61   -37207.676    3639.1107   -40846.787    1194.9355   0.99748369 
   99300    292.90518    77.477632    125355.21   -37165.117    3639.0587   -40804.175    1197.5354    0.9948849 
   99400    295.28506    341.33724    125355.74   -37097.129    3668.6264   -40765.756    1198.8756   0.99488068 
   99500    298.90536    77.244532    125250.23   -36943.565    3713.6051    -40657.17    1199.3258   0.99571872 
   99600    298.10005   -138.55199    125003.33   -36990.599    3703.5999   -40694.199    1198.6879   0.99768549 
   99700    291.75337    230.08429    125034.64   -37015.255    3624.7486   -40640.004    1200.5881   0.99743559 
   99800    299.04668   -238.33795    125048.92    -37002.89    3715.3608    -40718.25    1201.4106   0.99732171 
   99900    293.40956   -56.344991    125194.85   -37099.201    3645.3251   -40744.526    1205.0914    0.9961592 
  100000     290.1079   -114.78617    125142.68   -37087.847    3604.3053   -40692.153    1207.1465   0.99657449 
  100100    292.28342    57.767224    125100.53   -37003.757     3631.334    -40635.09    1207.8583   0.99691025 
  100200     296.2635    140.12861    124978.12   -36999.431    3680.7825   -40680.213    1207.8155   0.99788671 
  100300    295.44968   -102.08872    125011.39   -37001.178    3670.6717   -40671.849    1210.7245   0.99762114 
  100400    291.88572   -141.91476    124768.35   -37060.125    3626.3929   -40686.518    1210.9013   0.99956442 
  100500    299.20549    312.43949     124643.8   -36962.786    3717.3338   -40680.119    1211.8346    1.0005633 
  100600    289.01209    231.82062    124866.13   -37061.509    3590.6909     -40652.2     1213.702   0.99878169 
  100630    298.18568    340.44564    125114.95   -37029.651    3704.6637   -40734.315    1215.8706   0.99679534 
Loop time of 120.251 on 6 procs for 100000 steps with 4169 atoms

Performance: 359.249 ns/day, 0.067 hours/ns, 831.594 timesteps/s
98.8% CPU use with 6 MPI tasks x no OpenMP threads

MPI task timing breakdown:
Section |  min time  |  avg time  |  max time  |%varavg| %total
---------------------------------------------------------------
Pair    | 94.76      | 95.897     | 97.924     |  10.7 | 79.75
Neigh   | 6.4944     | 6.5537     | 6.6555     |   2.0 |  5.45
Comm    | 12.81      | 14.819     | 15.973     |  27.3 | 12.32
Output  | 0.17539    | 0.17678    | 0.18333    |   0.7 |  0.15
Modify  | 2.0365     | 2.0692     | 2.1181     |   1.9 |  1.72
Other   |            | 0.7352     |            |       |  0.61

Nlocal:        694.833 ave         712 max         685 min
Histogram: 2 0 1 0 2 0 0 0 0 1
Nghost:        1483.00 ave        1508 max        1462 min
Histogram: 1 0 0 2 1 1 0 0 0 1
Neighs:        0.00000 ave           0 max           0 min
Histogram: 6 0 0 0 0 0 0 0 0 0
FullNghs:      20082.3 ave       20747 max       19819 min
Histogram: 2 1 2 0 0 0 0 0 0 1

Total # of neighbors = 120494
Ave neighs/atom = 28.902375
Neighbor list builds = 7014
Dangerous builds = 0

undump              1
unfix               2
unfix               3
unfix               4


################################################
#######         Run Simulation         #########
################################################

reset_timestep      0
log                 log.run_${NAME}
log                 log.run_liquid_292K_1atm_ML
