LAMMPS data file via write_data, version 29 Oct 2020, timestep = 800000

4175 atoms
1 atom types

-0.11281901074658407 50.11281901075121 xlo xhi
-0.11281901074658407 50.11281901075121 ylo yhi
-0.11281901074658407 50.11281901075121 zlo zhi

Masses

1 18.015

Atoms # atomic

3405 1 4.77965902525579 0.8369123132054648 3.0929318181969356 1 2 1
2357 1 43.7715734610671 23.79023738364689 0.05369698506953072 0 1 0
1303 1 33.773846917205866 24.423316145283977 4.491592999126322 0 -1 0
3680 1 12.489165441142529 1.4087476577294953 0.6950968935474111 0 0 1
3091 1 9.914168974905714 0.9727445953765057 5.847102959435544 0 1 1
139 1 25.21366751028227 8.274408220840861 2.295918501734598 0 0 0
1024 1 14.611175760951609 9.39673223585541 1.0663097581057166 -1 0 0
3052 1 28.137720487603637 2.8807905074737574 3.0106716244844405 0 0 1
4017 1 24.878086474007205 16.60529842313235 16.257369971265994 -1 1 0
920 1 5.721141480925565 17.20199074032877 0.015855269944162892 -1 -1 2
1026 1 33.211245111130324 24.377725829123204 10.650003126195282 0 0 0
2308 1 39.73715918052777 4.309839947659437 2.289637189179156 -2 0 -1
2336 1 43.84092418151356 2.0939443423729966 2.7006319288007603 -1 0 1
3954 1 47.33882890685603 3.2201542721128527 1.0559175573170436 -1 2 1
1815 1 9.326804564951965 0.6880064324049254 14.389360730499765 -1 1 0
913 1 49.45950570225196 0.03184903150375232 0.7437966219334704 -1 0 0
1810 1 2.5289491268940583 4.396436005375531 2.3219311714832234 0 1 0
1231 1 22.810322957476494 4.8724467727199094 0.1829665723712458 0 0 0
3535 1 25.417349643600193 20.814682500685883 0.08148131654902757 0 -1 1
2985 1 5.755036977242799 4.6158231597385875 0.9489938436838943 0 1 1
2812 1 15.358207492550363 6.299435444661209 2.80659199929423 0 0 1
2472 1 46.69719737974775 -0.09398650934446096 0.5938309678584967 1 1 0
1504 1 16.78982148299376 6.944626961468292 0.49595209817162567 -1 1 1
2514 1 14.689170737316278 23.543791478334448 9.482521321695712 0 0 0
460 1 24.204511834778764 3.9158568071938893 2.4554229882154535 0 0 -1
2546 1 28.045132014882604 5.574035159269535 2.276699509096072 0 1 0
712 1 35.173451111849054 3.4589535651275605 0.3034796368364346 0 0 0
3055 1 1.5994937513409546 16.43232345183187 15.660624154300699 1 1 0
1677 1 42.484564918187736 5.5231879593686095 2.3225255767221755 0 0 0
107 1 9.91678996280685 24.75670577961228 14.115387608500818 0 0 -1
1091 1 44.58112532721327 7.193394570668489 3.6727343072594194 1 1 1
4019 1 26.228606824941412 0.19584228773387596 15.159881180793098 0 1 0
3211 1 45.99984763575838 6.443181832215428 5.714694566834377 0 1 1
895 1 2.6320433333218216 7.333601293401892 2.8181358119900275 1 1 0
2545 1 23.2083740311019 0.006236109099232334 1.7227985944709956 0 1 -1
1427 1 8.37808142979393 4.690355279473695 0.3541241327967455 1 1 2
1723 1 11.985065098784547 7.410475407953964 0.6798168438575087 0 1 2
466 1 39.64674655503016 -0.060705261692518775 7.134113572298465 -1 0 -1
713 1 19.273026895789258 6.522204846075299 0.9971070055236013 1 1 1
3103 1 20.613442138775095 9.059864510206765 1.3946837872795275 -1 0 1
1327 1 39.6796089747017 0.49377724997333416 4.561927214868339 1 1 1
3208 1 9.771321864857825 21.72187768221711 14.339226182229917 0 0 0
2744 1 31.677965804630443 8.614422813579681 1.2874352565034042 0 1 -1
1692 1 9.242795103947046 23.00889019364662 1.2439594146455282 0 1 1
3555 1 37.4518768578513 7.052582942372632 1.3399147714655466 -1 0 0
41 1 38.93590056421892 24.200544355952285 8.39483920018622 -1 0 0
3589 1 46.12062097805248 9.003548426819346 1.7993840461253234 1 0 -1
3166 1 48.34242693617453 7.622867896133037 2.691646479368641 0 1 0
2833 1 0.5767966886139945 8.710036195769435 0.9684743311398454 0 1 1
3841 1 5.371456522866614 10.468294176795462 2.3912504199357407 1 0 1
2065 1 10.927356271062688 0.20299429106386885 8.231927312061108 0 1 0
1454 1 3.746505497758092 8.88566328005939 0.7906783326910468 0 0 0
2189 1 7.731328757605696 8.584447969999966 1.2795054882257353 1 1 1
2022 1 17.20734893428563 11.099843170039536 0.7829940071218617 1 0 1
1699 1 19.06539120756308 11.371361056621692 2.6493670236352886 0 -1 1
129 1 18.453726034796397 21.65188639339115 0.15218264746348015 0 -1 0
625 1 37.97733678715362 1.9041965662275855 15.336236811366291 -1 1 -1
1028 1 13.108799306486283 20.128332336667587 -0.06536528780218648 1 1 -1
2907 1 34.723616151264935 11.044848659465062 1.3222778478470694 0 1 1
1751 1 41.168772544175766 9.600396720826925 0.7096892482821144 0 1 0
1872 1 44.39976021429127 10.81836584412202 3.9223826232183985 0 0 1
2771 1 15.459128007158482 0.26434770965777854 5.4306263459576725 1 2 0
1390 1 3.31745023714385 1.9341151861173205 16.071478318539988 0 0 1
2758 1 0.46782720069197514 8.704988427931859 4.188481439768227 1 0 1
450 1 1.7262784797238446 11.373170766950754 1.687313454763297 1 0 0
1315 1 5.712641898676544 13.289249087536664 1.703158144608046 0 0 1
1009 1 10.923175419617971 12.522497697480247 3.8550582325074236 0 -1 1
2062 1 14.79482780205324 14.529507688931242 1.9036287814202084 0 0 1
1337 1 16.073246194411286 12.694271478824367 3.302783393155467 0 0 0
1558 1 20.58393839814786 13.666204171308388 2.382323019303985 0 0 1
934 1 29.3490026537832 10.07751628132316 0.2337732901671134 0 0 0
3862 1 23.158584854344163 13.633649360095225 1.2104189219500971 0 0 1
1426 1 9.907811374500971 23.612940267931627 8.042648431610719 0 0 2
177 1 32.007621907483276 13.794014733649307 -0.09535144482780938 -1 0 0
3578 1 6.510992915001103 -0.04054291601764502 5.959289254428948 0 2 1
2642 1 44.62750103755222 2.5507920929912142 0.013270454281042232 -1 0 -1
3496 1 49.96338652131054 10.736468473293002 16.074666233902757 -1 0 0
465 1 39.340509952199916 15.33000896811832 1.88187698496906 -1 -1 0
1551 1 42.593461111360455 17.250945710849315 4.113829710189542 0 0 2
3086 1 3.5443669763296666 24.938451118063384 15.961343962307573 1 0 -1
1278 1 45.69224373458894 13.931380355046615 2.490378766894649 0 0 1
4080 1 13.181211260422595 5.169008204167203 1.888132387369314 0 1 0
1704 1 3.1325553325685958 17.345932516619442 2.6550168697167287 1 0 1
2087 1 8.115367125202743 12.470360824991582 0.40755405084603036 1 -1 1
3151 1 7.124499544571232 16.752509117920717 2.4319320992927542 1 1 2
1755 1 11.463382920782504 17.06536028691943 3.013165662038386 0 0 0
315 1 9.53030567923064 15.14239944327181 2.7505673616900057 0 0 0
991 1 41.9448468834308 24.37867963056998 16.1854025516296 0 0 1
2552 1 15.604008686995543 19.06610440028935 3.613972865396855 0 -1 0
3234 1 26.609103537998447 24.13546996811049 4.069673148685314 0 0 0
2380 1 18.522721107229025 15.754259880807556 2.3660169484242872 0 0 1
3824 1 36.12197443404669 23.87131971569757 6.285221043917413 -1 0 0
3576 1 25.2847114820255 24.406797649563792 10.92460140351936 1 1 1
15 1 23.17616258615825 7.742842233653011 0.20934009705879641 -1 -1 -1
90 1 31.399149268978476 16.501522492954766 0.8012599816512501 0 -1 0
1272 1 11.071185606994968 -0.08317807119844926 16.518035874667767 0 1 0
1380 1 33.474821245639006 18.04899884503345 1.9546231256918962 0 -1 1
2482 1 35.44505005231882 17.140889121372712 3.6634706948105613 0 0 0
2879 1 38.06351985995974 17.655867636749033 2.85966651061634 0 1 0
3475 1 42.06975153980321 24.408063936941307 5.8006827871119935 0 1 0
3847 1 46.80712075997917 15.721768601405989 0.9250154677846214 -1 1 1
2857 1 49.87323280240559 13.371728900548197 2.0399306281624807 0 0 1
2480 1 49.61210215339027 0.08824667940333136 3.5835652105293203 -1 2 -1
318 1 4.154960499141513 19.58649544845689 1.9363416014385497 0 0 0
3787 1 6.769131234335981 19.753755330043795 2.458348101836173 1 -1 0
3484 1 11.277045177689494 19.459065562727943 3.7756569453949083 1 1 0
502 1 14.194956760154525 22.023514291740756 3.255270449112541 -1 0 0
3918 1 33.722075321734216 -0.03222035415067381 11.667969600088814 -1 1 1
1535 1 21.508581752424536 18.51743958438801 0.271990748102278 1 0 0
3849 1 38.986322805156284 1.203137439305835 12.035094842947906 0 1 0
2281 1 34.62688998476893 13.724584724284696 0.720859380326825 0 0 1
3770 1 37.72866509089606 10.188569046074855 15.275387514475156 0 1 1
407 1 29.567207893392286 22.806277990472356 14.498194025432133 -1 0 0
2939 1 39.18045782344215 20.011177579792115 1.8528728275290822 0 0 1
1643 1 39.115456804072885 21.86491760596174 3.7948746848388137 0 0 0
928 1 41.99679331285479 22.302692846647023 3.3404460058314442 1 0 0
1973 1 41.27452463449428 24.998268123088902 9.796731938203537 -1 0 1
136 1 44.44802876435399 21.471735036889548 1.6493832648307682 -1 0 0
2460 1 48.97342547420235 19.326343968331308 2.1144497589988913 0 0 1
3437 1 1.1774574193267053 23.047004406428076 0.9740805148850278 2 2 1
3819 1 4.911425322373154 23.76381180750352 2.537214851674628 0 0 0
1960 1 7.284969071991582 22.48816288024312 3.1690829937859624 0 0 1
2082 1 11.59750773418591 21.743747776222058 1.8402066971853643 1 0 1
48 1 22.245866632108772 0.2831217300804441 13.154720224172248 0 0 1
1874 1 18.775919513488343 24.721493666054506 3.942151333723678 0 0 0
1639 1 22.192652722784974 22.821143393383544 1.258548644055578 1 -1 0
314 1 9.5136659113159 1.034538671894161 0.8642690599249602 0 1 0
990 1 24.61865591344752 22.229319246909217 2.86351434288294 0 0 1
2999 1 12.33375298680784 24.394971542569767 10.923128340085768 1 0 0
3140 1 28.724939522407347 23.371741287017354 0.3668260853634277 1 0 0
2760 1 31.250818174727417 23.27289633662097 2.1275933657169803 -1 0 0
2194 1 20.72059991091417 1.1826813021204758 1.4401785508442142 -1 0 0
3520 1 36.198973458812894 21.505164011555458 15.762000890643316 0 1 1
2891 1 36.8866550849622 22.51895468619149 2.2707685737301317 1 1 0
1150 1 30.394424749040763 24.28345592685053 10.458116989795117 -1 0 1
793 1 12.440884569366208 13.083895371255478 1.3869980468013026 1 0 1
2607 1 42.02877548896985 24.802033436733634 2.0340808495127924 0 0 0
1478 1 47.40345108973341 21.508630985135675 1.3003899336792966 0 0 1
3447 1 42.47653126126561 0.9804739850140729 5.3975291202068725 -1 1 1
3268 1 3.7528185387159803 1.5306982480160949 5.527337637166794 0 1 0
3487 1 4.1329055022906775 1.4889334825501301 10.744987227677777 1 1 0
537 1 7.810720586250274 1.2185916012427205 3.3566655508825245 0 -1 0
2713 1 24.21729477867188 18.086523201046383 0.7078708519480978 1 1 0
547 1 12.698685180460911 1.616127007209798 5.074316731167968 -1 1 1
2200 1 17.988022978725038 1.136067861842082 6.292045690664774 0 1 0
429 1 16.29588749146829 1.2494958179850166 2.998728471973961 0 0 1
3657 1 20.282018542538985 0.9519067443724267 4.773051590465837 0 1 0
3852 1 17.81132130133324 22.05506046785016 14.43276540993262 0 -1 0
2927 1 22.741829812566973 1.6426146470662082 5.804479100735226 0 1 0
3136 1 30.671365233612487 1.8567495713613198 4.111823011541811 1 1 1
1224 1 33.02751439894559 1.7212950698178107 6.004888876512065 0 -1 0
338 1 34.45686192845897 1.3366173450298344 3.572487266081292 0 0 0
3748 1 37.70539466645597 2.5674189055967447 1.0859542615481625 -1 1 1
3469 1 37.11712282869509 1.8537158646569771 4.914112132016834 0 0 0
3573 1 42.61940794241392 3.05221319501762 6.730239094570429 -1 0 1
4065 1 47.45870511974511 1.0508462859712537 4.927158714028273 -2 1 1
2315 1 37.08060527782332 0.15128597441867853 2.204850673134988 -1 1 -1
3727 1 6.065318001645668 4.21614037843657 3.872237116515832 -1 1 1
3363 1 8.939934210268126 4.067280911133986 2.7429159704054755 0 1 0
4156 1 7.960230073514053 3.012263187770302 6.0111953530720275 0 0 0
3359 1 11.84798838379042 2.9691458866147267 2.985929920609904 0 0 0
4056 1 18.161243971957255 5.676231503022026 5.196157489078499 0 1 1
1148 1 16.338527766411357 3.988897015143519 4.145738046520596 0 1 0
1667 1 20.530085297258694 5.807176064462506 3.616841533663988 0 0 0
2532 1 21.95278739379072 4.390850194005919 6.224394553886006 1 2 0
3126 1 21.36318882647965 3.290575267381149 3.150474143467603 0 0 1
4075 1 28.462772003493995 3.6397672856121166 7.1098230058633085 0 1 1
2217 1 26.018049699718876 5.146638585162941 6.094047056866597 0 1 0
462 1 32.77023000598048 3.4344194588260835 2.417031617151116 -1 0 0
3540 1 31.95075248534244 5.38172145274791 4.335253434003784 0 0 1
3499 1 38.11500055675049 4.524881750700233 4.636374104121045 0 0 0
3125 1 40.41849739282305 4.536169236408021 6.54486799318251 -2 1 0
3673 1 41.42096552848545 7.117790757861929 6.723207321103741 0 0 1
1473 1 46.20017496289909 3.577652551752878 3.5676015160195296 0 -1 1
2963 1 2.958859646833882 0.10981979321248048 13.561777565965716 1 1 1
4063 1 1.082326884508636 2.0025580308720548 4.981295883358013 0 1 0
3483 1 3.984535411846081 7.771849291670237 5.2386950131737535 0 2 0
1342 1 6.2329222479085455 7.098324299979246 3.2532768380115935 -1 1 1
3723 1 8.977783475423518 6.833298197600317 4.2253979578382905 1 1 1
1392 1 11.024020115788542 8.611318870343268 3.043929369051762 1 0 0
1541 1 14.863044485713186 8.47885568547028 4.099593080102641 1 1 1
2730 1 22.80092964933653 7.267044981728371 4.7400101512020365 0 1 0
2754 1 22.807701898729345 7.886590472506142 7.620584193111137 -1 0 0
3014 1 25.38444656212273 5.76207670504868 3.636569457270114 1 0 1
1401 1 26.74338196763279 7.75665562739123 6.928343697844951 1 1 0
3157 1 29.99064783620537 6.997770146472463 3.3369204920095465 0 1 0
2398 1 28.707087529666612 8.52920573273694 5.260391096573867 0 1 0
3410 1 34.2839281187648 6.438317780408954 5.44333710591489 -1 0 0
650 1 36.77608355412062 6.938846887060309 4.1340644035901075 0 -1 0
2108 1 41.118636421432655 10.49840756658327 3.419589446973651 0 0 1
3433 1 42.670414586315246 8.681551794178997 4.992906988060361 1 1 0
2139 1 46.6841448975027 8.585738662407346 7.2005863791835605 1 -1 0
876 1 -0.10309847092878499 3.6424731396738137 2.837550761895881 0 -1 1
1074 1 48.46259707418512 5.45383287533142 4.1407455093825964 0 1 0
881 1 3.343724569547762 12.02607994518662 3.961199828860864 1 0 1
2231 1 2.267729925031569 10.364209610518703 5.710002868057441 1 0 0
279 1 7.558715213345016 10.758623897403677 3.9435768574318395 0 1 0
3427 1 9.51070466640844 10.620901827853704 2.172127978299741 1 0 1
2830 1 12.697586395375426 9.831590860852133 5.050877306074284 0 1 0
2238 1 13.796484707829663 12.390947472744477 4.962626191598493 0 1 0
803 1 23.133523494482812 9.565699902037736 3.144070353840119 -1 1 0
2240 1 24.690088751964552 11.671104929299942 1.9921649506922856 0 1 0
1184 1 28.850113434387964 11.238632391995424 5.626348073462468 0 -1 1
2299 1 32.63281045529284 10.515510543671057 2.9835343105102172 0 0 0
615 1 37.36622588188919 9.934300952583985 1.6063495096215867 -1 0 0
3063 1 38.449538916630424 10.738179526450718 4.029991425370564 0 1 1
3842 1 42.78970541562413 12.986661863472978 2.741415881949444 -1 2 0
3818 1 46.35587750946176 11.491224691813533 5.6857010672031825 0 1 0
3929 1 48.72939505991278 7.6164328485575945 8.644032743914229 -1 0 0
331 1 49.078503988415704 11.21823670009272 4.791452974029358 -1 0 0
3614 1 4.155602487398364 14.175075188598631 6.150891808555254 1 2 0
2314 1 5.125350260642782 15.438521432020721 3.673950352003497 0 0 1
3198 1 8.677234241784761 12.880579079696185 6.116395060295531 0 0 0
2885 1 17.80293220534853 14.140025075144331 4.521215028142068 0 2 0
1968 1 21.543518606128913 14.246016164589436 4.839222086305499 0 0 1
3409 1 22.10742181296915 11.338661831044636 5.250514330907715 1 1 1
1581 1 26.062915260096865 14.687155119958893 6.09277173578787 -1 -1 1
3210 1 30.755882356099015 12.098949458645398 1.772943789495557 0 -1 1
889 1 35.27680170368592 14.406666296906561 3.3845212999843577 0 -1 0
4130 1 37.90510682318676 13.356867635615675 3.558401628150828 1 -1 0
3288 1 39.53764167140356 14.38554694144125 5.6427921209148915 -2 0 0
1627 1 41.99141261488576 14.524234855126338 4.813885100489334 -1 0 0
424 1 47.62243312691712 11.869762602839014 2.302430264576787 -1 0 1
3531 1 0.6002371760102349 13.513411231051705 5.068776996606738 0 0 1
3016 1 49.059292395454804 16.054496371649012 5.146267270892873 -1 1 0
4158 1 1.0369070834181648 17.827364893661205 4.658352690845447 0 1 1
1119 1 9.173477559829001 15.668463119391845 5.722542556482896 0 -1 -1
1980 1 6.458430515056458 17.01046618668992 6.04874869416169 0 0 1
13 1 14.19808744464046 16.567514963527277 3.8775825736112246 1 0 -1
1229 1 12.213542964225878 15.00210207544385 5.823212599895754 1 0 0
927 1 16.318111763521664 16.05041063543064 6.096865182418472 0 0 0
1200 1 20.55992304779108 17.89023212825677 2.921314016472069 0 0 1
2799 1 21.305919603099518 17.728090255610077 5.546863691754681 0 2 0
3238 1 24.11471268110836 18.778408888545425 5.748194463128799 0 0 0
2105 1 24.94353518904662 15.709509049618328 2.155976630038961 0 0 1
267 1 28.746429622049195 16.802927899782112 2.227769291082732 0 0 1
3027 1 31.243153679774395 16.61704582290596 4.014955003740414 0 1 0
3261 1 35.64702710715984 16.58951645333771 7.174824075814451 1 1 0
3423 1 40.91561582490194 18.30314276992553 6.172689574870577 0 1 0
2355 1 44.96294808931343 18.576377107292192 4.983035782880963 0 0 1
4162 1 45.958777380014325 14.285997240689834 5.4115439518332 -1 -1 0
2277 1 47.000255973086716 17.30181596676552 3.2820431109407844 -1 1 -1
916 1 6.601017656309635 19.69512739497886 5.34426326443407 1 1 1
2921 1 9.253004939361546 20.458453597459545 5.457491094466968 2 1 2
2938 1 13.540488571956244 19.75157332550761 5.511439513404215 1 0 0
566 1 13.367750439505201 17.187542429394846 6.991842457679008 -1 0 0
3884 1 17.866625438779487 19.50584919002784 5.5230385450208885 0 2 0
1994 1 19.179234510719855 20.43438161489761 3.2452197831830674 0 0 0
225 1 22.936408806785966 21.634522369177922 5.342736425584557 -1 -1 0
1864 1 25.036348973086437 19.238436443873557 3.125196733704093 -1 -1 0
737 1 27.776480143184813 19.284449084435465 3.091397874923514 0 1 0
3517 1 29.009238108375136 20.635763263725476 5.299143064039319 -1 0 1
3974 1 32.74780524386281 20.757034368122557 2.55881321318302 1 1 1
145 1 31.358710463456983 19.46981730193867 4.395920235100795 -1 0 0
3317 1 38.54257850059824 20.222860112192155 5.697668798192046 0 0 0
2106 1 47.842289107454164 19.548296866912807 7.0971942631590235 -1 1 -1
1096 1 44.79927445918316 21.3229390645331 4.480502450277639 -1 0 1
65 1 49.261687156401074 19.85062601760006 4.770205735565439 -1 0 -1
1964 1 1.179621381644442 23.784454479575857 3.68456769762116 1 0 1
3544 1 3.175492528915813 21.678550982754782 3.8669944885586136 -1 0 0
1932 1 8.476175965796232 24.13755849395155 5.22874890883401 0 0 1
907 1 7.148230556655351 23.81703577513881 8.161669450962092 1 0 0
1735 1 12.308804535499599 22.58355809311397 6.029678026617973 1 -2 1
1328 1 14.928292996129564 23.692336956798766 6.306477948154199 0 -2 0
3803 1 17.160613711975554 22.72327943538867 2.6054709441703716 0 0 1
1966 1 37.91905741033614 14.85777784211291 15.167432522982244 -1 0 0
2337 1 20.912788998754102 22.810677430997966 3.722468553324054 0 0 0
278 1 13.022236870030442 24.46751022572746 15.687963727753713 -1 0 0
839 1 29.35919503755559 23.002106067240966 4.283878300019305 0 0 1
714 1 34.86169534504331 21.728554525948628 3.9959026109807123 -1 -1 -1
1837 1 12.11080596007821 13.351863643529843 16.007935015932453 0 1 0
489 1 22.452055615946445 13.342722168040222 14.95813731205537 0 0 0
1072 1 47.108384646186614 22.927359485343466 3.9123354005790265 -1 -1 1
2385 1 49.49045243937769 22.542229102522207 4.924403257582001 0 1 -1
3028 1 32.447188000682914 4.975004277397339 16.08747492236225 0 1 1
3287 1 40.06089048630146 6.960111215209809 0.8830579041216882 0 0 0
1536 1 11.948598231801483 17.362337535161956 0.34969996371144785 1 1 1
870 1 5.712375298018739 2.14436830621638 7.869016582336112 0 0 1
1323 1 8.943836177067627 1.1408224296961875 10.15345043023741 0 0 1
1935 1 26.559386695015057 20.803771054221215 15.391796057002965 -1 -1 1
2821 1 13.566095972646496 1.6486913007760917 8.731394318202403 0 1 1
1180 1 20.87865729764316 3.1348775598445338 9.253245869122603 0 0 0
3744 1 22.488543050764576 0.7799567666980846 8.36666142363647 0 0 0
1336 1 25.48449706402978 0.23229830236642685 8.705175875436725 0 1 1
3926 1 27.031653486258126 0.5870593739005957 6.200074686356827 0 0 0
662 1 31.566287498315194 1.8598450602989762 8.96713473339863 0 0 0
3691 1 35.69936302522996 1.1431691922207603 7.63707036052087 1 1 0
3922 1 39.82358254270734 1.4557742878620117 9.299995888366656 0 1 1
3128 1 0.5628287230483571 0.8003198231999628 9.191773566449008 1 0 0
807 1 1.1822658794113095 16.15507714686028 0.980408554257965 0 1 1
3903 1 44.313361597351864 3.789203600719657 10.285682544353822 -1 0 1
98 1 48.32887413970297 1.2674315310761564 7.857581978270622 1 0 0
1371 1 3.6853073185983867 4.161512444753469 4.892739386196732 1 0 -1
3231 1 1.6615102510879345 3.3661599647200218 9.653963624701083 0 1 0
246 1 4.104921070917457 5.534311943298377 11.603767125785613 1 0 0
2146 1 6.80486781399313 5.568975050471388 8.255801427855758 -1 0 0
1524 1 9.264111895612904 5.537981973518623 6.8051876926449255 0 0 -1
2235 1 14.05677394825325 3.901886859588653 6.488648932830983 0 1 0
2611 1 16.77629779505175 3.444800735021506 7.557061614621602 0 1 1
2318 1 22.905848656517556 4.286150386164626 11.07442323484526 0 0 0
717 1 23.817329790733762 5.153794200180672 7.894230044423244 0 1 1
3719 1 31.14831604727686 4.058649484636786 6.636325138676597 -1 1 2
410 1 31.173021094699816 5.960669216740372 10.814088844227875 0 -1 0
3514 1 36.77020763978805 3.8193788161242725 7.392372391248301 0 1 0
2863 1 39.05407612815792 3.972645312864377 8.711330424165764 -1 0 0
2091 1 44.93992284153709 4.763737944123591 7.609929133924693 0 0 1
931 1 43.67691079251935 7.1758971363595165 8.156163679966145 0 1 1
1347 1 43.05735115563483 6.39219310114754 10.840961701942954 -1 0 0
345 1 47.82992835024159 3.9280070379372702 8.015619641813919 0 0 1
3879 1 -0.024325961953657327 6.634142736371904 6.32179687716171 0 1 1
2764 1 2.8429905554992034 5.862024903008401 6.780483042195453 0 1 0
3217 1 4.045655791784042 4.422838317978928 8.743454695632487 1 0 1
2834 1 6.855171698743314 7.752709094164031 6.485383480432779 -1 1 1
858 1 7.917988969208393 7.335958557277229 10.353310931755123 1 -1 1
1236 1 9.896037324385766 6.4833909744753155 12.377457978427147 1 0 1
1010 1 11.989668638926204 5.55000165335243 7.101876446945736 1 1 0
1651 1 19.326973070765835 4.694615205775528 7.552188753800379 0 0 2
3805 1 15.784910520964553 8.419835868143114 7.9747785743467645 1 1 0
1027 1 19.99550944014535 8.635152870817672 7.4336901130461275 1 0 0
3604 1 27.584777519416157 6.692723233231421 9.5446445733776 -1 1 -1
376 1 26.71420485116574 10.982368214476558 10.243689028890412 0 0 0
2687 1 31.938141871263483 6.186514792899764 8.274224079141225 0 -1 -1
2893 1 37.958407474161454 8.732846332068583 6.234021481333234 0 1 0
768 1 40.000691641945565 8.846098903141536 8.377792082283044 0 0 0
930 1 45.394850857016586 9.700098831027182 9.305732211145672 -1 0 0
516 1 0.48664604607443085 3.9098862205962375 6.957089355937308 0 0 0
1205 1 0.6186356458696746 5.4049334738302965 11.64528757265089 1 -1 1
587 1 0.049364945914710745 9.589572261310943 9.725147154433728 1 1 0
2955 1 4.927138551223257 9.712502163531475 7.6831105572855405 1 0 1
2477 1 9.010637324232592 9.361128665745994 5.6876935490148846 1 0 0
3692 1 10.885565563502967 10.951808967200206 7.152759026798225 0 0 1
3155 1 11.143983188828148 9.718279768569964 9.986430360322746 1 0 -1
1120 1 17.185960563049967 8.148101324920047 5.293430723748111 0 1 1
2114 1 12.770876746411307 8.399521728213019 7.827774761314646 -1 0 1
2047 1 15.40029083591039 11.328035435955393 9.32745067034621 -1 -1 1
786 1 19.10948310056133 10.152415776476985 5.31465562056041 0 0 1
633 1 24.36277339186823 12.197438864800745 6.766011980494633 -1 0 -1
3131 1 25.264223114327493 9.926507308848956 8.141488573223265 -1 0 1
1002 1 31.073279714624636 8.41739880244287 6.955138387930325 0 -1 1
55 1 33.28737860841444 9.224138645517336 5.450104023937739 0 0 0
1211 1 35.47430013669663 10.057489484354967 7.226601024345706 0 0 0
3696 1 35.03351689267654 12.829313355189473 8.133676209825259 0 0 1
1135 1 39.8263461784521 13.609180013382877 8.166530808591974 0 0 0
3747 1 43.80026839374847 10.50258051367604 7.081500550634272 0 1 0
3507 1 41.2750934704015 11.241842850165218 8.453425940723704 -1 0 1
3533 1 46.878578138918755 11.963946425462863 10.034407633008346 0 0 2
643 1 48.15766484080762 12.475325629568486 7.7321759653971105 0 -1 0
3634 1 1.957721462738701 13.658015608932597 10.1132176552274 -1 1 1
2345 1 1.758707093993617 14.606219587757666 7.3998919805670464 0 0 0
3529 1 5.998561731816572 12.365934681902226 7.3549960499408735 1 1 0
558 1 10.23742808046262 13.898944615510981 8.451425707607466 0 0 -1
1718 1 13.204771656287614 13.242267685259977 8.127283031864208 0 0 0
3990 1 17.75577239837186 12.960894517785231 9.184595654346925 1 0 1
3111 1 19.047113724644845 12.626020893466915 6.498703656244486 0 0 0
3953 1 23.435269712748177 13.57322487815059 8.937150707827081 0 0 1
2504 1 26.494716892765773 12.31442946876667 4.456316139797451 0 -1 0
3868 1 28.690847657042404 12.184881843156166 8.142885392552435 1 0 0
2847 1 29.59167518967437 13.576738804956399 4.029977324460031 1 0 1
1295 1 32.57630171079551 13.959684072033358 4.054781225791488 -1 -1 0
3259 1 33.425190749148975 14.789565642420072 6.622032308495273 0 2 1
3894 1 43.43050130983184 13.628725592695808 7.04135219006707 0 1 1
2434 1 44.27587347866949 15.233039393291385 8.99818860271814 -2 1 0
1652 1 47.285202823633014 15.267196624599212 7.74697233438032 -1 0 1
371 1 0.6188679077464652 11.561110571884457 7.837227430807487 1 1 0
2732 1 1.784095405275711 17.430296679058408 7.398895225119002 0 1 1
3115 1 4.340782737591058 15.094549601323887 10.624158747100976 0 0 0
4116 1 4.427858261413714 16.63777902785802 8.189463074122408 0 1 1
2362 1 10.815725871379339 16.957027173111587 8.28678700716716 0 0 0
1234 1 11.79440649411746 17.392965797798226 10.683516501668107 1 0 0
3559 1 15.538947727310804 14.676411495697552 8.268358585963421 1 0 1
1814 1 17.6605605127412 18.81075225139663 10.013382083364272 0 0 1
221 1 20.14216146418861 15.706860513013282 6.9606632089400176 0 1 0
3306 1 18.179690156545735 17.492403894614007 7.530320015371098 0 1 0
2454 1 21.58965993831782 15.672032042459694 9.224325046324735 0 0 0
3594 1 23.874506612486705 15.779031739288655 4.7415238990266175 0 0 1
635 1 28.337061640574454 16.12805835042917 5.300764493466058 -1 -1 0
3142 1 31.484555037016044 16.17102405104188 7.871489738680894 1 1 1
3784 1 31.810496580850803 18.50510121890717 9.461504674464502 -1 0 2
3712 1 38.2907228473442 16.90003186854746 5.798260535254314 -1 1 0
3722 1 39.28623498172299 16.99737939151978 8.681725243038958 -1 1 1
903 1 45.05975815554985 17.93016794543201 7.683283872875903 0 1 0
620 1 49.30478005966726 17.33583925754668 8.181107788546232 -1 0 0
1856 1 1.4947910318843805 19.45613038332499 9.517482518083948 1 0 1
3509 1 1.5964005024086043 22.10765639486093 8.944825490487917 1 -1 0
2404 1 5.850819647036939 20.973102259678345 9.968580394802123 1 2 0
78 1 5.5982961803563205 21.553796012278255 7.258384317897357 0 0 0
2577 1 7.516052564706324 18.412997706106793 10.070819749085613 0 1 -1
431 1 9.450895046148478 19.438647878784188 8.336624449155408 -1 0 0
623 1 11.432621892403658 21.43447076575452 8.680187489609636 0 -1 0
3587 1 15.313389300917768 19.06818889953544 8.6933618209277 0 0 1
3482 1 16.139126768104123 21.137922927479234 6.875241521601835 -1 0 1
971 1 20.978027000226984 20.224312291560498 6.95379676826608 1 0 0
1678 1 22.434280237445687 20.120046274463085 9.088433806033931 -1 0 0
1296 1 24.934063367720583 19.580586635521342 8.45743517013296 0 0 -1
2246 1 29.09835596469941 17.972513080148925 7.448436617085392 0 0 -1
476 1 32.59164919124185 19.42574194519931 6.882650061164324 0 0 0
762 1 35.37634809651827 19.222524374420434 6.00729141676448 0 -1 1
1037 1 42.79494981000226 19.740957260297638 8.008475235736263 0 1 0
2471 1 44.998737977629474 23.019766994982096 8.8463977029506 -1 0 0
2992 1 47.50214507686954 21.39790049367348 8.985837309225431 -2 1 0
4175 1 3.0945559408964054 22.70848397143667 6.553909053758684 0 2 1
3939 1 7.602135399956518 22.99061649302026 10.77382737876492 1 1 0
3786 1 36.42874126115384 4.517773994381628 14.752984448280651 -1 0 0
1834 1 18.96946019525464 22.3589001761299 7.839971068788254 0 -1 -1
3998 1 23.452948143880793 23.932481526636433 7.2164518950747025 0 0 1
4077 1 29.336568800703915 0.42903483896086725 14.518875798562746 0 0 -1
458 1 26.731326561634148 21.459252631591447 7.3655880911858995 -1 0 0
1806 1 26.015084383565327 23.794935735470627 6.755995019258094 0 0 1
2660 1 32.45525539627501 21.87842182132648 7.719605393383145 0 0 1
3676 1 39.088189506246714 24.133680863729264 5.621753729872242 0 -1 1
3240 1 38.87639914427893 21.214809440417053 8.210049182984001 -1 1 0
498 1 43.40330427746273 22.01791485015947 6.54441162816062 0 -1 1
2947 1 15.952069030096357 20.10288490295169 0.6566868459894198 0 0 1
2978 1 3.9149912491066043 2.440607831045567 0.91060414318974 0 1 1
464 1 49.59921784934861 23.047040770027156 7.643767861345919 -1 0 1
2416 1 37.715610897641234 23.479037000244606 14.79193009844549 1 0 0
135 1 19.546131843540785 12.866856240814954 15.796379978252064 0 0 0
3979 1 49.27820078955976 0.6582898504565059 13.069287362756782 0 0 1
3466 1 5.515506382686072 -0.026696428103549386 14.954752714491582 1 1 0
2422 1 31.810712729706818 21.640192480619405 15.292088837332713 0 0 0
3566 1 10.838685967225864 1.1301341632978696 12.11885748994687 1 0 1
2746 1 14.917967840399958 0.893446321308313 10.76212751873392 1 1 1
1794 1 16.466394473951738 3.1415288779381227 10.30655701787756 0 0 1
226 1 19.033553808394817 2.893197385653232 11.213386655605836 0 1 0
832 1 25.11003952701698 3.025710426160898 9.461902225424263 0 1 1
1554 1 22.393793363071563 2.9490683109526863 13.26713820707931 0 0 2
2508 1 27.48047491324588 0.8953414962386927 12.496987924144284 1 1 0
523 1 30.72357726257226 3.5877797291695215 11.404748815191542 0 1 1
3978 1 34.10792942404944 1.7499567054460787 9.658394581319978 0 0 1
2790 1 34.76356328110743 4.450899180971241 10.771461859753723 0 1 -1
3143 1 7.154105112254089 24.728130379895756 14.477832483332469 1 0 1
2865 1 1.3108050819377601 2.1118226287243806 12.366258878454063 0 1 1
684 1 5.979820649375452 3.5692571303984533 11.770973344073017 0 0 0