
# Create simulation box of size 50 x 50 x 50 Angstrom
#
lattice	            sc 1
Lattice spacing in x,y,z = 1.0000000 1.0000000 1.0000000
region 	            all block 0 50 0 50 0 50 units box
create_box          1 all
Created orthogonal box = (0.0000000 0.0000000 0.0000000) to (50.000000 50.000000 50.000000)
  1 by 2 by 3 MPI processor grid

# fill box with 4175 randomly distributed atoms
#
create_atoms        1 random 4175 63782 all
Created 4175 atoms
  create_atoms CPU = 0.001 seconds
mass                1 18.015

# Define potential
#
pair_style          sw
pair_coeff          * * ML_mW.sw mW
Reading sw potential file ML_mW.sw with DATE: 2019-02-27

# Run minimization
#
minimize            1.0e-8 1.0e-8 10000 1000
WARNING: Using 'neigh_modify every 1 delay 0 check yes' setting during minimization (../min.cpp:187)
Neighbor list info ...
  update every 1 steps, delay 0 steps, check yes
  max neighbors/atom: 2000, page size: 100000
  master list distance cutoff = 6.0032907
  ghost atom cutoff = 6.0032907
  binsize = 3.0016454, bins = 17 17 17
  1 neighbor lists, perpetual/occasional/extra = 1 0 0
  (1) pair sw, perpetual
      attributes: full, newton on
      pair build: full/bin/atomonly
      stencil: full/bin/3d
      bin: standard
Per MPI rank memory allocation (min/avg/max) = 4.255 | 4.258 | 4.261 Mbytes
Step Temp E_pair E_mol TotEng Press 
       0            0    7792709.3            0    7792709.3    5898794.3 
     630            0   -45180.336            0   -45180.336   -154.07449 
Loop time of 1.18706 on 6 procs for 630 steps with 4175 atoms

98.3% CPU use with 6 MPI tasks x no OpenMP threads

Minimization stats:
  Stopping criterion = max force evaluations
  Energy initial, next-to-last, final = 
      7792709.32924461  -45180.0188663597   -45180.336116598
  Force two-norm initial, final = 2.0191930e+08 4.9721331
  Force max component initial, final = 1.0948746e+08 0.73126211
  Final line search alpha, max atom move = 0.053306038 0.038980685
  Iterations, force evaluations = 630 1000

MPI task timing breakdown:
Section |  min time  |  avg time  |  max time  |%varavg| %total
---------------------------------------------------------------
Pair    | 0.8916     | 1.0156     | 1.0691     |   5.9 | 85.56
Neigh   | 0.02435    | 0.024976   | 0.025742   |   0.3 |  2.10
Comm    | 0.071995   | 0.1251     | 0.2495     |  17.0 | 10.54
Output  | 0          | 0          | 0          |   0.0 |  0.00
Modify  | 0          | 0          | 0          |   0.0 |  0.00
Other   |            | 0.02138    |            |       |  1.80

Nlocal:        695.833 ave         704 max         685 min
Histogram: 1 1 0 0 1 0 0 1 0 2
Nghost:        1494.17 ave        1515 max        1468 min
Histogram: 1 1 0 0 0 0 1 1 1 1
Neighs:        0.00000 ave           0 max           0 min
Histogram: 6 0 0 0 0 0 0 0 0 0
FullNghs:      19997.0 ave       20462 max       19320 min
Histogram: 1 1 0 0 0 0 0 2 0 2

Total # of neighbors = 119982
Ave neighs/atom = 28.738204
Neighbor list builds = 26
Dangerous builds = 0

# Add velocity/set timestep
#
velocity            all create ${TEMP} 120598 rot yes dist gaussian
velocity            all create 230 120598 rot yes dist gaussian
timestep            5.0

# Define output
#
compute	            1 all msd
thermo	            100
thermo_style        custom step temp press vol etotal ke pe c_1[4] density

# Neighbor lists
#
neigh_modify        delay 0 every 1 check yes

# Set fixes
#
fix                 1 all momentum 10 linear 1 1 1 rescale
fix                 2 all nve
fix                 3 all temp/csvr ${TEMP} ${TEMP} 500.0 928347
fix                 3 all temp/csvr 230 ${TEMP} 500.0 928347
fix                 3 all temp/csvr 230 230 500.0 928347
fix                 4 all press/berendsen iso ${PRES} ${PRES} 1000.0 modulus 20000
fix                 4 all press/berendsen iso 100 ${PRES} 1000.0 modulus 20000
fix                 4 all press/berendsen iso 100 100 1000.0 modulus 20000

# Run 0.5 ns equilibration
#
dump                1 all custom 1000 eq.${NAME}.dump id type x y z vx vy vz
dump                1 all custom 1000 eq.liquid_density_MLmW.dump id type x y z vx vy vz
run                 100000
Per MPI rank memory allocation (min/avg/max) = 3.506 | 3.508 | 3.511 Mbytes
Step Temp Press Volume TotEng KinEng PotEng c_1[4] Density 
     630          230    892.42114       125000   -42318.699    2861.6373   -45180.336 2.7295415e-33   0.99914793 
     700     146.2014    30.446295    125406.35   -41438.961    1819.0234   -43257.985   0.27427957   0.99591046 
     800    180.97957   -224.29728    125214.71   -40637.382    2251.7299   -42889.112   0.65128942   0.99743463 
     900    198.23664    28.649534     125049.5   -40190.161    2466.4406   -42656.602    1.1269124   0.99875244 
    1000    212.98009    146.65499    125349.94   -39895.213    2649.8773    -42545.09    1.5386473    0.9963586 
    1100    219.72617     299.7952    125419.01   -39702.264    2733.8113   -42436.075     1.986396   0.99580991 
    1200    219.54725     280.6303    125457.14   -39725.713    2731.5851   -42457.298    2.4284802   0.99550728 
    1300    220.96162    -3.962238    125369.57   -39680.109    2749.1826   -42429.292    2.8314857   0.99620263 
    1400    222.41521     320.5193    125165.58   -39665.939     2767.268   -42433.207    3.2626095   0.99782614 
    1500    226.56743    99.366218    125339.86   -39607.119    2818.9295   -42426.049    3.7163726   0.99643875 
    1600    228.16275    135.08677    125378.06   -39503.466    2838.7784   -42342.244    4.2410645   0.99613516 
    1700    225.29191    239.55049    125531.85   -39505.295    2803.0597   -42308.355    4.6376299   0.99491479 
    1800     226.3547    -161.1218    125549.53   -39589.523    2816.2828   -42405.805    5.1194212   0.99477467 
    1900    228.85283    39.572756    125643.57   -39562.512    2847.3643   -42409.876    5.5654756   0.99403013 
    2000     231.0152    270.26621    125734.82    -39526.46    2874.2683   -42400.729    5.9099039    0.9933087 
    2100    232.26911   -71.289345     125800.6   -39491.393    2889.8693   -42381.262    6.1577341   0.99278932 
    2200    232.62283    172.78883    125761.89    -39522.97    2894.2703   -42417.241    6.6269769   0.99309487 
    2300    232.99361   -52.722652    125893.47   -39508.027    2898.8835    -42406.91    6.9800177   0.99205692 
    2400     232.4229    38.947356    125876.44   -39535.755    2891.7827   -42427.538    7.3540903   0.99219117 
    2500    231.98277   -25.151681     126018.5   -39478.076    2886.3067   -42364.383    7.7360527   0.99107268 
    2600    233.82749    114.10247    125972.65   -39439.207    2909.2585   -42348.465    8.2002274   0.99143342 
    2700    235.70319    90.041971    126195.49   -39488.158    2932.5958   -42420.754    8.6247796   0.98968269 
    2800    235.96658    -4.694784    126266.23   -39482.907    2935.8728    -42418.78     8.967835   0.98912824 
    2900    233.40895    194.19869    126060.82   -39578.184    2904.0511   -42482.235      9.32603   0.99073993 
    3000    231.21148    45.705573    125926.35   -39607.149    2876.7104   -42483.859     9.640951   0.99179792 
    3100    226.71334   -60.821588    125871.06   -39574.391    2820.7449   -42395.136    10.089116   0.99223356 
    3200    226.88927    126.69192    126050.36   -39617.477    2822.9338    -42440.41    10.480884   0.99082214 
    3300    231.86687    183.55377    125900.49   -39602.281    2884.8646   -42487.146    10.762024    0.9920016 
    3400    230.10191    101.85895    125968.32   -39648.887    2862.9052   -42511.792    11.015131   0.99146745 
    3500    226.47469    115.94147     125918.4   -39684.354    2817.7757    -42502.13    11.287955   0.99186055 
    3600    230.76597    192.54362    125796.41   -39728.465    2871.1674   -42599.632    11.700194   0.99282239 
    3700    223.27956    79.645268    125804.65   -39806.788    2778.0222    -42584.81    12.050097   0.99275738 
    3800    231.20155    78.058699    125958.27   -39742.742    2876.5869   -42619.329    12.400445    0.9915466 
    3900    229.71067    62.831521    125933.57   -39759.063    2858.0374     -42617.1    12.890373   0.99174106 
    4000    226.67651    261.67686    126266.15   -39751.018    2820.2867   -42571.305    13.142661   0.98912881 
    4100    228.02835    201.46217    126157.04   -39742.125    2837.1061   -42579.231    13.463803   0.98998435 
    4200    225.13859   -2.8383766    126138.84   -39718.969    2801.1521   -42520.121    13.844177   0.99012714 
    4300    229.03485    106.35367    125984.91   -39700.249    2849.6289   -42549.878    14.223911   0.99133693 
    4400    229.38718   -31.999121    126121.67   -39693.084    2854.0126   -42547.097    14.717297   0.99026199 
    4500    226.68843     71.67676    126018.65    -39681.93     2820.435   -42502.365    15.069408   0.99107152 
    4600    229.07057    238.35126    126247.83   -39745.716    2850.0734   -42595.789    15.444439   0.98927236 
    4700    233.34158    78.611133    126391.47    -39654.25    2903.2129   -42557.463    15.716088   0.98814813 
    4800     225.2834    177.10602     126147.7   -39718.775    2802.9538   -42521.729    16.046106   0.99005758 
    4900     230.6187     8.328634    126090.79   -39600.764     2869.335   -42470.099    16.459168   0.99050444 
    5000    231.50192    315.28148    126137.91   -39538.337     2880.324   -42418.661    16.835475   0.99013442 
    5100     233.1528   -22.758688    126221.84   -39618.722    2900.8641   -42519.586      17.2736   0.98947606 
    5200    234.63346   -82.543744       126199   -39684.352    2919.2864   -42603.638    17.564678   0.98965519 
    5300    230.08507    246.28955    125992.25    -39661.52    2862.6957   -42524.215    17.979195   0.99127915 
    5400     228.5745     123.0327    126055.88   -39691.657    2843.9013   -42535.559     18.24572   0.99077878 
    5500    229.62344    186.10176    126501.13   -39691.056    2856.9521   -42548.008    18.551246   0.98729153 
    5600    229.05884    138.42279    126604.82   -39689.021    2849.9275   -42538.948     19.00445   0.98648289 
    5700    231.51143    208.15472    126843.33   -39690.662    2880.4424   -42571.105    19.501712     0.984628 
    5800    229.48165    4.7851356    126729.74   -39730.699    2855.1881   -42585.887    19.755119   0.98551053 
    5900    228.40637    16.228857    126817.51   -39772.405    2841.8095   -42614.215    20.064109   0.98482848 
    6000    230.03942    6.7914127    126722.08   -39797.879    2862.1278   -42660.007    20.463744   0.98557007 
    6100    234.22514    274.23971    126649.54   -39747.739    2914.2061   -42661.946    20.678361   0.98613457 
    6200    231.38272    46.305337    126429.46    -39840.21     2878.841   -42719.051    21.024144   0.98785119 
    6300    226.29194    190.30379    126523.94   -39816.741     2815.502   -42632.243    21.582058   0.98711351 
    6400    232.84234     152.2415    126841.33   -39794.886    2897.0014   -42691.887    21.888868   0.98464349 
    6500    229.32406    150.81103    126909.15   -39742.707    2853.2273   -42595.934    22.159277   0.98411727 
    6600    224.20771    4.4447008    126768.21   -39817.736    2789.5702   -42607.306    22.468211   0.98521145 
    6700     223.1538   -26.957316    126662.45   -39862.535    2776.4575   -42638.992    22.569581    0.9860341 
    6800    228.13316    44.972317     126674.7   -39782.578    2838.4102   -42620.988    22.869563    0.9859387 
    6900    232.82684   -36.779076    126675.82   -39711.693    2896.8085   -42608.501    23.227819      0.98593 
    7000    236.45768     55.35481    126680.43    -39704.37    2941.9831   -42646.354    23.634213   0.98589413 
    7100    228.30476    248.20958    126658.86   -39734.194    2840.5452   -42574.739    23.985733   0.98606205 
    7200     225.3878    51.916257    126743.17   -39802.993    2804.2527   -42607.246    24.355761   0.98540606 
    7300    225.58383    256.37177    126633.05   -39860.594    2806.6917   -42667.286     24.44262   0.98626301 
    7400    221.30158    23.112393     126633.2   -39881.143    2753.4124   -42634.555    24.825809   0.98626184 
    7500      226.321    288.99718       126728   -39839.978    2815.8636   -42655.842    25.347755   0.98552408 
    7600    222.72896    71.211612    127093.71   -39917.644    2771.1718   -42688.815    25.670392   0.98268822 
    7700    226.98028    108.16798    127163.54   -39813.411    2824.0662   -42637.477    26.128984   0.98214859 
    7800    226.97701   -120.49179    127119.29   -39772.973    2824.0255   -42596.999    26.279761   0.98249051 
    7900    230.29863      9.61999    127191.74   -39843.924    2865.3528   -42709.277    26.507682    0.9819308 
    8000     229.5746   -5.3242075     126985.4   -39819.802    2856.3445   -42676.146    26.819733   0.98352636 
    8100    223.15905    108.67247     126811.7    -39909.06    2776.5228   -42685.582       27.282   0.98487353 
    8200    223.07165     224.5211    126765.54    -39931.36    2775.4354   -42706.795    27.426364   0.98523217 
    8300    225.52155   -43.833986    126687.25   -39910.438    2805.9168   -42716.355    27.337462   0.98584106 
    8400    226.40513    42.242049    126823.68   -39843.476    2816.9103   -42660.386    27.632041   0.98478054 
    8500    231.29018     149.6488    126984.53   -39754.637    2877.6896   -42632.327     28.08004    0.9835331 
    8600    229.23496    97.963825    126720.62   -39775.989    2852.1188   -42628.108    28.347447   0.98558145 
    8700    228.66572    229.36578    126976.16   -39764.565    2845.0363   -42609.601    28.650375   0.98359799 
    8800    226.68594    254.29537    126995.12   -39798.798    2820.4041   -42619.202      29.0823   0.98345107 
    8900    226.01872    143.46586    126858.39   -39874.013    2812.1025   -42686.116    29.398127   0.98451107 
    9000    226.33123    266.04828    126791.89   -39816.382    2815.9908   -42632.372    29.427946   0.98502747 
    9100    226.85246   -64.656759    126984.85   -39893.648    2822.4758   -42716.124    29.696428   0.98353062 
    9200    227.54178    58.029005    126811.75   -39805.222    2831.0524   -42636.274    30.048415   0.98487315 
    9300    227.91708    115.78861    126900.94   -39847.716    2835.7218   -42683.438    30.477198   0.98418098 
    9400    232.89713    149.84259    126705.45   -39798.977    2897.6831    -42696.66    30.842401   0.98569945 
    9500    225.74901    202.04317    126738.36   -39819.049    2808.7469   -42627.796    31.069109   0.98544345 
    9600    226.40015    216.13944    126755.56   -39774.509    2816.8483   -42591.357    31.476056   0.98530977 
    9700     228.8979    92.530255    126965.82   -39707.977    2847.9251   -42555.902    31.728862    0.9836781 
    9800    229.60532   -84.381099     126917.1   -39806.709    2856.7267   -42663.436    31.998863   0.98405568 
    9900    229.07116    187.20333    126812.67   -39898.085    2850.0808   -42748.166     32.35164     0.984866 
   10000    231.17698     -187.244    127051.94   -39906.001    2876.2811   -42782.282    32.605313   0.98301131 
   10100      226.802    74.376521    126809.53   -39870.683     2821.848   -42692.531    32.664149   0.98489044 
   10200     228.7371    120.35329    126977.97     -39918.3    2845.9244   -42764.224    32.868867   0.98358391 
   10300    224.40359    75.841834    126835.95   -39895.907    2792.0073   -42687.915    33.005179   0.98468528 
   10400    229.57832    202.34491    126754.94   -39831.083    2856.3907   -42687.473    33.512926   0.98531462 
   10500     224.8941    47.800769     126574.8   -39804.687    2798.1102   -42602.797    33.714042   0.98671691 
   10600    229.72717     129.8179    126468.06   -39729.547    2858.2428    -42587.79    34.149451   0.98754966 
   10700    234.49213    251.29872    126544.62   -39709.354     2917.528   -42626.882    34.334785   0.98695219 
   10800      234.303   -64.700522    126553.84   -39698.203    2915.1747   -42613.378    34.516636   0.98688029 
   10900    232.66994    41.948585    126451.02   -39742.711    2894.8564   -42637.568    34.746333   0.98768277 
   11000    230.98763    74.487877    126395.59   -39741.825    2873.9253    -42615.75    35.064789   0.98811587 
   11100    229.48845    73.406826    126349.78     -39769.4    2855.2727   -42624.672    35.403946   0.98847412 
   11200    230.29297    215.69658    126307.18   -39776.533    2865.2823   -42641.815    35.539562   0.98880756 
   11300    230.36338    89.555144    126314.94   -39776.204    2866.1584   -42642.362    35.930855   0.98874681 
   11400    231.13243    98.619679    126337.49   -39782.186    2875.7268   -42657.913    36.375172   0.98857031 
   11500    232.38249   -3.5568546    126412.44   -39818.704    2891.2799   -42709.984    36.754296   0.98798415 
   11600    225.48576    42.161974    126435.97   -39811.779    2805.4715   -42617.251    37.111375   0.98780036 
   11700    231.77287    225.35102    126421.97   -39705.108    2883.6951   -42588.803    37.524771   0.98790972 
   11800    226.30142    81.506874    126564.68   -39784.091    2815.6199   -42599.711    37.835297    0.9867958 
   11900     230.0494    84.373421    126475.13    -39790.88    2862.2519   -42653.132    38.241637   0.98749449 
   12000    225.02196   -116.47546    126494.23    -39781.84     2799.701   -42581.541     38.55945   0.98734533 
   12100    232.12802    143.06419    126551.16   -39734.851    2888.1138   -42622.965     38.85672   0.98690119 
   12200    230.63161    43.120562    126816.37   -39734.844    2869.4957    -42604.34    39.452135   0.98483727 
   12300    230.10895    66.391052    126834.12   -39751.558    2862.9928   -42614.551    40.014282    0.9846995 
   12400    231.94957    139.46043    126939.62   -39736.711    2885.8937   -42622.605    40.346796   0.98388111 
   12500    227.78771    297.01535    126958.42   -39839.587    2834.1122   -42673.699    40.544641   0.98373539 
   12600    230.24047    130.68727    127090.09   -39758.479    2864.6291   -42623.108    40.933587   0.98271623 
   12700    234.41988    126.11466     127173.5   -39725.036     2916.629   -42641.665    41.103159   0.98207167 
   12800     237.3132   -39.056189    127079.47   -39707.767    2952.6274   -42660.395    41.227232   0.98279837 
   12900    230.49266    61.603794    127268.73   -39779.471    2867.7669   -42647.238    41.689902   0.98133681 
   13000    235.50566    201.13191    127164.55   -39732.724    2930.1382   -42662.862    41.771878   0.98214082 
   13100    231.94941    9.1526724    127119.41   -39731.033    2885.8916   -42616.924    42.222367   0.98248957 
   13200    236.66087   -17.529208    127066.65   -39647.027    2944.5112   -42591.539    42.484382    0.9828975 
   13300    236.95412     345.9128    127138.88   -39695.673    2948.1598   -42643.832    42.575136   0.98233908 
   13400    230.81081    248.54697    127325.05   -39783.952    2871.7253   -42655.678    42.959011   0.98090275 
   13500    230.85814    119.58685    127118.53   -39825.994    2872.3142   -42698.308    43.251485   0.98249633 
   13600    230.83682    243.14258    127355.09   -39864.522    2872.0489   -42736.571      43.7493   0.98067138 
   13700    227.64236    63.871897    127433.28   -39878.593    2832.3037   -42710.897    44.033146   0.98006968 
   13800    232.04954    170.17596    127425.37       -39784    2887.1374   -42671.137    44.129039   0.98013046 
   13900    231.63274    29.948132    127391.97   -39820.642    2881.9516   -42702.593    44.570294   0.98038745 
   14000    228.14761    163.59629    127466.86   -39804.518    2838.5901   -42643.108     44.89196   0.97981145 
   14100    228.72369    24.749398    127657.39   -39811.752    2845.7575   -42657.509    45.216302   0.97834912 
   14200    231.80112    171.40308    127729.76   -39874.051    2884.0466   -42758.097     45.42995   0.97779473 
   14300    226.83733     81.91192    127803.59   -39941.911    2822.2876   -42764.199    45.921021    0.9772299 
   14400    228.38019    228.24264    127821.91   -39902.481    2841.4837   -42743.965    46.186782   0.97708985 
   14500    231.75885     83.79764     127893.9   -39838.614    2883.5207   -42722.134     46.46741   0.97653984 
   14600     228.5808   -10.424815    127783.37   -39829.472    2843.9797   -42673.452    46.965705   0.97738451 
   14700    225.90199    250.15027    127592.31   -39868.716    2810.6502   -42679.367      47.1181   0.97884814 
   14800    229.24599    16.875991    127743.94   -39923.548     2852.256   -42775.804    47.381128   0.97768627 
   14900    222.30597    145.93918    127686.86   -40003.298     2765.909   -42769.207    47.627148   0.97812326 
   15000    225.83702    120.35717    127735.22   -39986.165    2809.8419   -42796.007    47.903078   0.97775299 
   15100    227.43048    120.06829    127688.21   -40021.353    2829.6675    -42851.02    47.943183   0.97811291 
   15200    228.00642   -71.908587    127888.66   -39947.246    2836.8334   -42784.079    48.190628    0.9765799 
   15300    226.78551    23.620262    127941.42   -39966.026     2821.643   -42787.669    48.718679   0.97617716 
   15400    229.82464   -57.988055    127929.33   -39950.591    2859.4555   -42810.046    48.742828    0.9762694 
   15500    227.37472    9.1679599    127819.91   -39949.478    2828.9738   -42778.452    49.236802   0.97710514 
   15600    231.89968   -8.8092335    127845.11   -39864.965    2885.2729   -42750.238    49.419309   0.97691257 
   15700    223.44733   -14.670145    127522.22   -39955.403    2780.1096   -42735.513     49.71327   0.97938614 
   15800    230.71772    214.33698    127711.37   -39940.992     2870.567   -42811.559    49.980075   0.97793554 
   15900    229.64447     192.0616    127841.48   -39986.604    2857.2137   -42843.818    50.639907   0.97694031 
   16000    228.58192    105.01774    127920.05   -39931.122    2843.9936   -42775.116    50.987365   0.97634026 
   16100    232.82404    234.37617    127918.22   -39872.608    2896.7738   -42769.382    51.301627   0.97635422 
   16200    232.37968    70.348027    127997.63   -39925.803     2891.245   -42817.048    51.466963   0.97574846 
   16300      226.579    116.83802    127781.77   -39937.294    2819.0736   -42756.367    51.721578   0.97739681 
   16400    231.10523   -81.733918    127782.21   -39837.955    2875.3884   -42713.344    52.050513   0.97739345 
   16500    233.17486   -16.028338     127514.2    -39833.38    2901.1385   -42734.518    52.646278   0.97944774 
   16600    230.67623    338.58056    127596.05   -39810.797    2870.0509   -42680.848    53.010698   0.97881944 
   16700    230.93882   -287.64614    127376.83   -39830.765     2873.318   -42704.083    53.401185     0.980504 
   16800    232.17103    -61.82533    127366.06   -39832.412     2888.649   -42721.061    53.400456   0.98058692 
   16900     234.7903     153.9837    127142.19   -39799.289    2921.2378   -42720.527    53.606881   0.98231349 
   17000    228.89784    121.66588    127172.55   -39821.836    2847.9242    -42669.76    54.120234   0.98207903 
   17100    235.43203    74.517636     127148.7   -39749.913    2929.2221   -42679.135    54.452657   0.98226319 
   17200    232.26136    18.778273    127210.16   -39754.892    2889.7729   -42644.665    55.029543   0.98178863 
   17300    227.85433    276.47736    126982.32   -39813.963     2834.941   -42648.904    55.099211   0.98355025 
   17400    226.50214    131.93138    127015.71   -39823.065    2818.1172   -42641.182    55.214189   0.98329165 
   17500    233.25379    124.55959     127030.7   -39810.714    2902.1207   -42712.834    55.499447   0.98317564 
   17600    230.63526    116.75406    126927.96   -39765.592    2869.5411   -42635.134    55.479352   0.98397149 
   17700    232.14916    128.18454    127099.73   -39782.507    2888.3768   -42670.884    55.940698   0.98264168 
   17800    228.61432    268.02547    127056.02   -39769.679    2844.3968   -42614.076    56.148421   0.98297972 
   17900    236.06656    76.299891    126977.88   -39731.163    2937.1168    -42668.28    56.634464   0.98358466 
   18000    232.68944    303.54435    127290.05   -39689.974     2895.099   -42585.073     56.83182   0.98117243 
   18100    228.06814    200.87411    127388.77    -39810.42    2837.6012   -42648.021    57.111945   0.98041211 
   18200    231.19143    99.771089    127273.94   -39800.149    2876.4609    -42676.61    57.408671   0.98129662 
   18300    234.81734    155.39593    127227.55   -39692.981    2921.5742   -42614.555    57.791146   0.98165448 
   18400    229.69457   -311.15487     126941.2   -39754.313    2857.8371    -42612.15    58.174264   0.98386884 
   18500    230.45478    92.107936     126868.9   -39708.996    2867.2956   -42576.291    58.139803   0.98442949 
   18600    230.37621    33.205332     126432.6   -39773.625    2866.3181   -42639.943    58.081513   0.98782667 
   18700    233.49649    37.900033    126653.55   -39746.263    2905.1402   -42651.404    58.353129   0.98610336 
   18800    230.70635    0.6572097    126463.36   -39733.878    2870.4256   -42604.303    58.544623   0.98758636 
   18900    228.57284    19.982842    126465.08   -39754.016    2843.8807   -42597.897    59.076924   0.98757295 
   19000    228.92382    84.048351    126499.08   -39717.204    2848.2476   -42565.452    59.889487   0.98730752 
   19100    229.57623   -60.930653    126588.16   -39779.078    2856.3648   -42635.443     60.57275   0.98661275 
   19200    229.54466    126.50231    126594.26   -39733.023    2855.9719   -42588.995    60.661073   0.98656523 
   19300    229.84363     77.79119    126811.97    -39676.97    2859.6917   -42536.662    61.145823   0.98487148 
   19400    228.03892   -32.335955       126588   -39679.488    2837.2377   -42516.726    61.277539   0.98661395 
   19500    232.33858    83.628012    126380.87   -39671.492    2890.7337   -42562.226    61.325612   0.98823099 
   19600    234.00988    248.17383    126532.07   -39700.778    2911.5278   -42612.306    61.530339   0.98705008 
   19700    239.38622    22.797078    126567.94   -39674.416    2978.4197   -42652.835    61.891852   0.98677032 
   19800    230.78766    56.474693    126733.83   -39722.814    2871.4372   -42594.252    62.353867    0.9854787 
   19900    233.99773   -144.22941    126750.54   -39732.594    2911.3766    -42643.97    62.888181    0.9853488 
   20000    228.41365   -188.56116    126703.05   -39783.302    2841.9001   -42625.202    63.014973   0.98571808 
   20100    230.09549    151.44249    126507.24   -39760.737    2862.8254   -42623.562    63.441022   0.98724386 
   20200    232.65653    191.19357       126708   -39819.258    2894.6895   -42713.948    63.769782   0.98567957 
   20300    226.84121    351.82274    126809.64   -39846.705    2822.3359   -42669.041    64.028984    0.9848896 
   20400    225.34419    87.005241    126918.31   -39843.495    2803.7102   -42647.205    64.190118   0.98404626 
   20500    224.54361   -20.703083    126951.85   -39799.937    2793.7494   -42593.687    64.316829   0.98378627 
   20600     229.5229    202.16803     127102.9    -39825.87    2855.7013   -42681.571    64.453643   0.98261713 
   20700    232.44952   -65.061822    127194.49   -39775.076    2892.1139    -42667.19    64.724577   0.98190957 
   20800    230.01064    166.94987    127043.79   -39793.813    2861.7696   -42655.582    65.031305   0.98307432 
   20900    227.27212   -63.839329    126866.69   -39837.152    2827.6972    -42664.85    65.309108   0.98444668 
   21000     226.2705    4.8915605    126828.46    -39915.13    2815.2352   -42730.365    66.114148   0.98474343 
   21100    227.42982   -24.816246    126833.46   -39937.182    2829.6593   -42766.841    66.280636   0.98470457 
   21200    225.47742    72.769572    126753.55   -39903.753    2805.3677    -42709.12    66.457031   0.98532537 
   21300    223.66289    92.100226    126744.43    -39911.24    2782.7916   -42694.032    66.816865   0.98539632 
   21400    227.32071   -37.525166    127176.36   -39862.154    2828.3018   -42690.455    67.221238   0.98204956 
   21500     230.5535    119.74743    126916.55   -39847.737    2868.5239   -42716.261    67.243341   0.98405991 
   21600     230.5957    255.49554    126919.25   -39776.315    2869.0489   -42645.364      67.5571   0.98403902 
   21700    229.64207    203.19577    126942.88   -39745.572     2857.184   -42602.756    67.862347   0.98385582 
   21800    232.04761    10.563954    126624.95   -39728.821    2887.1134   -42615.935    68.129317   0.98632606 
   21900    227.85751   -81.773476    126599.26   -39741.421    2834.9806   -42576.402    68.216157   0.98652626 
   22000    231.02372    40.278139     126486.8   -39773.063    2874.3743   -42647.438    68.403695   0.98740332 
   22100    231.26507    20.251279     126621.3   -39704.309    2877.3771   -42581.686    68.855206   0.98635453 
   22200    227.38541    65.882555    126299.08   -39719.387    2829.1068   -42548.494    69.196373   0.98887091 
   22300    228.37352    -5.940537    126112.72   -39687.475    2841.4008   -42528.876    69.524246   0.99033224 
   22400    231.90184    272.63949    126060.46   -39639.815    2885.2997   -42525.115    69.911347   0.99074277 
   22500    233.52246    145.12883    126081.16   -39629.014    2905.4634   -42534.477    70.070958    0.9905801 
   22600    235.05222   -16.851685    126224.74   -39614.825    2924.4965   -42539.322    70.487661   0.98945336 
   22700    234.25499    87.137335    125797.48   -39638.832    2914.5774    -42553.41    70.513867   0.99281396 
   22800    235.18323    158.10904    126207.97   -39612.206    2926.1265   -42538.333    71.204902   0.98958479 
   22900    233.46959    199.77638    126150.18    -39659.37    2904.8056   -42564.176    71.445303   0.99003813 
   23000    230.00589   -60.519612    126469.24   -39648.272    2861.7105   -42509.982    71.860637   0.98754049 
   23100     231.6342    173.41659    126524.61   -39772.195    2881.9698   -42654.165    72.305202   0.98710826 
   23200    231.29048    394.68523    126597.01   -39727.002    2877.6933   -42604.696    72.850655   0.98654377 
   23300    223.58572   -84.866588    126534.29   -39778.891    2781.8314   -42560.722    73.384451   0.98703275 
   23400    233.47261    39.781596    126524.26   -39703.469    2904.8431   -42608.312    73.836999   0.98711104 
   23500     228.0867    109.20719    126238.98   -39763.069    2837.8321   -42600.901    74.066123   0.98934175 
   23600    234.91893     174.7482    126498.79   -39757.295    2922.8381   -42680.133    74.318035   0.98730979 
   23700    226.66913     36.53574    126622.08   -39787.136     2820.195   -42607.331    74.497801   0.98634841 
   23800    227.27324    98.766775    126559.45   -39848.364    2827.7112   -42676.075    74.784035   0.98683658 
   23900    225.93933    213.69476    126695.46   -39857.875    2811.1149    -42668.99    75.179839    0.9857772 
   24000    231.65064    121.77969    126841.88   -39794.865    2882.1744   -42677.039    75.678816   0.98463921 
   24100    230.54741    69.345747     127066.3    -39792.62     2868.448   -42661.068    76.368176   0.98290023 
   24200    224.62808    223.95474    127123.55   -39857.641    2794.8004   -42652.441    76.641643   0.98245756 
   24300    231.66137    94.385086     127471.2   -39821.756    2882.3079   -42704.064    76.831921   0.97977813 
   24400    226.44217   -40.224322    127228.73   -39892.053     2817.371   -42709.424    77.109876   0.98164538 
   24500     232.5017    206.06754    127324.82   -39846.283    2892.7632   -42739.046    77.439225   0.98090451 
   24600    232.24438    85.621947    127271.79   -39854.892    2889.5617   -42744.454    77.968214   0.98131327 
   24700    226.88289    131.84174    127130.97   -39882.774    2822.8545   -42705.628     78.43243   0.98240024 
   24800    230.06703    244.08103    127124.72   -39889.212    2862.4712   -42751.683    78.672645    0.9824485 
   24900    232.62021    3.6706391    127044.48   -39836.588    2894.2376   -42730.826    78.840384   0.98306899 
   25000    231.97685   -32.625259    126872.93    -39802.37     2886.233   -42688.603    79.153131   0.98439829 
   25100    231.75993    251.82288    127053.61   -39805.712    2883.5342   -42689.246    79.736856   0.98299836 
   25200    227.00353    14.418464    126968.03   -39844.838    2824.3555   -42669.194    79.674867   0.98366094 
   25300    233.75647    164.44845    127058.18   -39848.003    2908.3749   -42756.378    80.051721     0.982963 
   25400    229.50577   -14.095296    127164.82    -39820.84    2855.4881   -42676.328    80.413967   0.98213871 
   25500    232.69878    271.05873    127029.97   -39764.551    2895.2152   -42659.766    80.783012   0.98318131 
   25600    228.11003    1.8650773    126972.77   -39837.487    2838.1224   -42675.609    81.246314   0.98362422 
   25700    228.78981    125.01455    127032.34   -39852.695    2846.5801   -42699.275    81.794175   0.98316298 
   25800    231.62105    35.193293    127197.74   -39838.126    2881.8062   -42719.932    81.974835   0.98188451 
   25900    226.96098    119.72914    127318.48   -39775.594    2823.8261    -42599.42    82.439092    0.9809534 
   26000     231.7141    59.407573    127464.88   -39701.351    2882.9639   -42584.315    82.825097   0.97982672 
   26100    226.50836    65.340029    127146.26   -39787.676    2818.1947   -42605.871    83.108846   0.98228205 
   26200    228.39901    38.441159    126975.43   -39771.005     2841.718   -42612.723    83.136899   0.98360363 
   26300    231.57448     199.7088    127123.82   -39747.245    2881.2268   -42628.472    83.860833   0.98245547 
   26400    233.65709    66.361804    127084.41   -39730.531    2907.1384    -42637.67    84.328375   0.98276016 
   26500    228.42765    276.34842    127367.85    -39789.01    2842.0742   -42631.084    84.998216   0.98057313 
   26600    228.20561     190.2987    127413.63   -39843.662    2839.3117   -42682.974    85.101496    0.9802208 
   26700    229.33685    166.89205     127285.7   -39885.209    2853.3864   -42738.595    85.316922   0.98120598 
   26800    229.60406    36.350852    127344.47   -39814.725     2856.711   -42671.436    85.579846   0.98075317 
   26900    232.15226    224.35232    127252.34   -39810.196    2888.4155   -42698.612    85.373428   0.98146322 
   27000       229.53   -269.28982    127245.64   -39882.639    2855.7896   -42738.428    85.777405   0.98151492 
   27100    229.30781    116.62097    127090.76   -39892.893    2853.0251   -42745.918    86.106299     0.982711 
   27200    225.71156    169.65345    127158.63   -39908.922    2808.2809   -42717.203    86.407629   0.98218648 
   27300    228.95912    4.8062414    127424.71   -39940.835    2848.6867   -42789.522    86.744126   0.98013556 
   27400    228.68941    85.561061    127124.32   -39891.341    2845.3311   -42736.672    86.813495   0.98245163 
   27500    230.14599    216.85882    127380.48   -39812.825    2863.4536   -42676.278    87.096444   0.98047588 
   27600    229.90785    103.92281    127400.58   -39846.491    2860.4907   -42706.982    87.364291   0.98032123 
   27700    229.46249    108.04111    127374.01   -39851.379    2854.9497   -42706.328    87.634953    0.9805257 
   27800    231.44116    53.775403    127225.97   -39795.891    2879.5681   -42675.459    87.745988   0.98166668 
   27900    231.12269    38.180441    127167.83   -39807.401    2875.6057   -42683.007     88.38608   0.98211548 
   28000    230.09586   -80.243632    127108.45   -39833.091    2862.8299   -42695.921    88.654973   0.98257423 
   28100    232.14249     62.03678    126792.85   -39826.118    2888.2939   -42714.412    88.208573   0.98502001 
   28200    231.74005    94.719224     126753.6   -39861.446    2883.2868   -42744.733    88.545769   0.98532502 
   28300    231.03131    129.13857    126582.25   -39852.124    2874.4687   -42726.592    88.826917   0.98665878 
   28400    231.15703    113.08651    126876.18   -39890.915    2876.0329   -42766.948    89.132921   0.98437302 
   28500    231.02407   -50.959185    127017.33   -39923.111    2874.3786   -42797.489    89.418071   0.98327915 
   28600    229.33209   -12.144855    127098.86   -39867.724    2853.3271   -42721.051     90.09417   0.98264839 
   28700    223.81762     271.9494    127157.51    -39862.75    2784.7167   -42647.467    90.493249   0.98219516 
   28800    229.56545   -5.0505876    127176.93   -39814.581    2856.2307   -42670.812    90.282016   0.98204517 
   28900    229.06669   -42.923523    127235.09   -39784.483    2850.0251   -42634.508    90.496907   0.98159626 
   29000    229.37065   -9.0635703    127289.11   -39861.696     2853.807   -42715.503    91.088198   0.98117967 
   29100    229.45588    122.13168    127263.49   -39790.066    2854.8674   -42644.934    91.296558   0.98137722 
   29200    229.56586    12.780031    127201.47   -39754.745    2856.2358    -42610.98    91.703207   0.98185569 
   29300    225.45828    141.00905    126992.19   -39815.793    2805.1296   -42620.922    91.907103   0.98347377 
   29400    229.12282    201.35173    127077.12    -39862.88    2850.7235   -42713.603    92.436223    0.9828165 
   29500    226.52218    72.272383     126968.5   -39887.744    2818.3665   -42706.111    92.606256   0.98365732 
   29600     230.7246     104.8012    126847.88   -39800.265    2870.6526   -42670.917    92.961572   0.98459264 
   29700    225.28526   -19.448436     126711.4   -39845.847    2802.9769   -42648.824    92.997108   0.98565314 
   29800    228.89955    215.87734    126565.08   -39819.563    2847.9456   -42667.509    93.322805   0.98679264 
   29900    230.05171    218.00079    126742.57   -39850.748    2862.2807   -42713.029    93.940035   0.98541075 
   30000     226.7643    88.060701    126625.42   -39835.584     2821.379   -42656.963    94.135841   0.98632244 
   30100    229.89572    110.31875    126642.65   -39834.268    2860.3398   -42694.608    94.820258   0.98618823 
   30200    231.23782     39.82494    126613.65   -39842.269    2877.0381   -42719.307    95.367293   0.98641409 
   30300    226.91346     174.3501    126630.26   -39803.188    2823.2349   -42626.423    95.500341   0.98628475 
   30400    233.18218    248.98676    126788.12   -39779.474    2901.2296   -42680.704    95.923804   0.98505674 
   30500    227.55741    28.440288    126912.45   -39784.988    2831.2468   -42616.235    96.441364   0.98409171 
   30600     229.5009   -90.381101    126859.55   -39772.314    2855.4275   -42627.742    96.523524   0.98450207 
   30700    225.26808     90.89258    126714.64   -39781.135    2802.7631   -42583.898    96.429798   0.98562796 
   30800    229.80198   -27.788308    126611.85   -39704.013    2859.1735   -42563.187    96.277396   0.98642814 
   30900    228.45582    113.16994    126567.74   -39822.791    2842.4248   -42665.216    96.058598   0.98677188 
   31000    222.65474    115.07931    126489.15   -39859.389    2770.2483   -42629.637      96.5849   0.98738501 
   31100    223.95612    143.65017    126518.21   -39836.567    2786.4399   -42623.007    96.998435   0.98715823 
   31200    224.50319    330.45781    126271.48   -39837.977    2793.2464   -42631.223    97.269077   0.98908707 
   31300    226.62109    230.88671    126317.38   -39785.953    2819.5972    -42605.55    97.647061   0.98872767 
   31400    228.48297    122.52095    126360.39    -39740.78    2842.7625   -42583.543    98.095207   0.98839114 
   31500    229.57064    299.26591       126512   -39798.576    2856.2952   -42654.871    98.683011   0.98720666 
   31600    228.14514    18.822022     126576.3   -39722.657    2838.5592   -42561.216     98.92621   0.98670516 
   31700    229.22007    65.956623    126656.98   -39758.169    2851.9334   -42610.102    98.804156   0.98607662 
   31800    234.95769    21.452645    126650.01   -39703.404    2923.3204   -42626.725    99.142775   0.98613089 
   31900    234.28017    51.828156    126608.24   -39716.729    2914.8908   -42631.619    99.934261   0.98645627 
   32000    233.11858    392.72448    126617.24   -39706.519    2900.4384   -42606.957    100.24064   0.98638616 
   32100    228.26304   -47.684443    126718.68   -39703.546    2840.0262   -42543.572    100.53705    0.9855965 
   32200    230.83797    8.3276682    126785.23     -39696.5    2872.0633   -42568.564      101.173   0.98507916 
   32300    232.45972   -24.438383    126880.39   -39676.509    2892.2408    -42568.75    101.47771   0.98434041 
   32400    231.22354   -52.305973    126791.93   -39743.135    2876.8605   -42619.996    101.44609   0.98502712 
   32500    227.82004    73.848375    126870.38    -39759.32    2834.5145   -42593.834    101.93305   0.98441801 
   32600    232.32618    277.19895    127161.68   -39702.724    2890.5793   -42593.303    102.35609   0.98216297 
   32700    229.50169    210.78926    127171.39   -39777.273    2855.4374    -42632.71    102.56355   0.98208794 
   32800    231.71555    96.847431    127131.49   -39838.619     2882.982   -42721.601    102.92752   0.98239615 
   32900    229.38762     247.1079    127241.55    -39847.63    2854.0181   -42701.648    103.40809   0.98154643 
   33000    229.62833    81.515346    127184.82   -39905.693     2857.013   -42762.706    103.93933   0.98198424 
   33100    230.76692    138.70443    127040.24   -39836.567    2871.1793   -42707.747    103.96747   0.98310182 
   33200    228.56538     35.12902    126988.33   -39849.409    2843.7879   -42693.197    104.39289   0.98350365 
   33300    229.13684    28.154278    126799.03   -39772.383     2850.898   -42623.281     104.9012   0.98497199 
   33400     227.9518    85.242883    126673.38   -39855.507    2836.1538   -42691.661    105.35409   0.98594901 
   33500    228.68595    167.84307     126544.3   -39820.791     2845.288   -42666.079    105.58083   0.98695472 
   33600    229.99388   -185.35654    126703.72   -39787.859    2861.5611    -42649.42    105.40398   0.98571293 
   33700    226.11598   -7.0757806    126728.06   -39774.122    2813.3127   -42587.435     105.3445   0.98552356 
   33800    229.75729    116.68149    126693.03   -39771.258    2858.6175   -42629.876    105.13485   0.98579609 
   33900    230.22089    168.43411    126689.19   -39775.834    2864.3855   -42640.219    105.62026   0.98582595 
   34000    229.66491    308.04693    127082.29   -39734.244    2857.4681   -42591.712    106.50755    0.9827765 
   34100    232.23314     67.55956    127133.69   -39762.164    2889.4218   -42651.586    107.03351    0.9823792 
   34200    229.65169    93.732761    127216.01   -39784.458    2857.3036   -42641.762    107.41291   0.98174349 
   34300    227.15593    49.424951    127136.68   -39845.202    2826.2516   -42671.453    107.76926   0.98235609 
   34400    229.45079    138.19674    126969.95   -39782.824     2854.804   -42637.628    107.46344    0.9836461 
   34500    226.48777    28.944903    127083.76    -39806.77    2817.9385   -42624.709    107.79828   0.98276516 
   34600    233.11067    295.35808    126924.35   -39774.516    2900.3399   -42674.856    107.65333   0.98399946 
   34700    226.33898   -32.359373    126877.45   -39844.367    2816.0872   -42660.454    108.06503   0.98436317 
   34800    225.50714    126.62032     126782.5   -39807.151    2805.7375   -42612.888    108.29703   0.98510041 
   34900    223.69407    12.038399    126799.93   -39802.689    2783.1795   -42585.868    108.54062   0.98496496 
   35000    228.40922    167.47071    126705.73    -39882.41    2841.8449   -42724.255    109.13861   0.98569727 
   35100    224.89571    113.83506    126624.83   -39805.095    2798.1301   -42603.226    109.94527   0.98632699 
   35200    224.61144    297.12859     126691.7   -39789.252    2794.5933   -42583.846    110.50782   0.98580639 
   35300    230.30917    41.161207    126601.22    -39769.63    2865.4839   -42635.114    110.89497   0.98651096 
   35400    230.49023    114.29022    126660.53   -39803.292    2867.7366   -42671.029    111.45314     0.986049 
   35500    232.37535    147.76312    126774.04   -39694.971    2891.1911   -42586.162    111.69538   0.98516612 
   35600    229.51463    90.816932    126800.36   -39749.173    2855.5984   -42604.772    111.99595   0.98496164 
   35700    232.75151    84.851153    126815.56   -39716.432    2895.8713   -42612.303     112.3326   0.98484355 
   35800    230.74927     325.9998    126958.87    -39768.81    2870.9596   -42639.769    112.70212   0.98373188 
   35900    232.48897   -29.423754    127310.43   -39720.498    2892.6048   -42613.103    113.38314    0.9810154 
   36000    233.45774    196.76309    127138.32   -39694.869    2904.6581   -42599.527    113.30446   0.98234338 
   36100    234.10933   -84.122179    127089.67   -39719.535    2912.7651     -42632.3    113.73672   0.98271942 
   36200    230.25132    93.559073    127033.11   -39759.789    2864.7642   -42624.554     113.9924   0.98315699 
   36300    226.02531    115.78384    127172.26   -39821.926    2812.1846   -42634.111    114.31691   0.98208128 
   36400    229.27164    184.05754    127233.42    -39757.47     2852.575   -42610.045     114.7638   0.98160915 
   36500    228.33304     29.08367    127314.43   -39738.653    2840.8971   -42579.551     114.9884   0.98098453 
   36600    226.43602   -68.657428    127312.33   -39868.208    2817.2946   -42685.503    115.19746   0.98100074 
   36700    228.81839    119.36756    127346.73   -39807.356    2846.9358   -42654.292    115.85278   0.98073574 
   36800     230.7459    47.430713    127263.62   -39805.694    2870.9177   -42676.612    115.83225   0.98137621 
   36900    233.31958   -16.007422    127113.77   -39850.289    2902.9391   -42753.228    115.58692   0.98253316 
   37000    230.86964    38.557815    126937.41   -39799.003    2872.4572    -42671.46    116.37248   0.98389822 
   37100    232.25626    144.55432    126923.74   -39793.969    2889.7094   -42683.678    116.97768   0.98400415 
   37200     229.6405    158.88755    126805.04   -39852.185    2857.1644   -42709.349    117.25002   0.98492528 
   37300    227.72333    266.11086    126741.65   -39865.568    2833.3112    -42698.88    117.49852   0.98541792 
   37400    226.01073    296.19879    126780.92   -39882.831    2812.0032   -42694.834    117.66762   0.98511269 
   37500    229.03615    32.897377    126859.62   -39895.257    2849.6451   -42744.902    118.05242   0.98450153 
   37600    230.98491   -122.56771    126821.01   -39857.736    2873.8915   -42731.628    118.35834   0.98480126 
   37700    227.15132    93.149218    126726.77   -39861.613    2826.1942   -42687.808    118.24086   0.98553363 
   37800    226.23719    157.12627    127147.79   -39959.039    2814.8208   -42773.859    118.32887   0.98227023 
   37900    224.28531    311.24978     127291.6   -39909.018    2790.5357   -42699.554    118.61543   0.98116051 
   38000    228.28659    33.533987    127497.77   -39875.704    2840.3192   -42716.023     119.0592    0.9795739 
   38100     230.0083    47.972674       127424   -39827.438    2861.7405   -42689.179    119.28726   0.98014105 
   38200    225.85662    140.71948    127382.15   -39856.016    2810.0858   -42666.102    119.80686   0.98046303 
   38300    233.17839   -26.955368    127186.51   -39785.898    2901.1825    -42687.08    120.41171   0.98197123 
   38400    225.79411    132.56598    126867.52   -39843.515     2809.308   -42652.823    120.34842   0.98444026 
   38500    231.35046   -109.01107    126833.15   -39856.191    2878.4396   -42734.631    120.33778   0.98470703 
   38600    229.81277    8.2820965    126853.11   -39824.353    2859.3078    -42683.66    120.61295   0.98455207 
   38700     231.3936    262.33968    126771.78   -39839.519    2878.9763   -42718.495    120.98801   0.98518367 
   38800    227.53919    73.759195    127069.93   -39859.525    2831.0201   -42690.545    121.51378   0.98287208 
   38900    228.26167    273.94125    127205.05   -39794.346    2840.0092   -42634.355    122.02088   0.98182806 
   39000    232.28851    280.13217       127290   -39834.457    2890.1107   -42724.568    122.28844   0.98117285 
   39100    228.77657    -39.36524    127180.86   -39798.773    2846.4154   -42645.188    122.33768   0.98201481 
   39200    225.93559    1.4533055    127058.47   -39820.043    2811.0682   -42631.111    122.47609   0.98296073 
   39300    232.33039    110.85801    127004.71   -39823.957    2890.6317   -42714.588    122.50191   0.98337685 
   39400    231.42882   -88.316649     126974.5   -39787.592    2879.4145   -42667.006    123.00376   0.98361079 
   39500    236.12388    257.47695    126980.52   -39772.232      2937.83   -42710.062    123.58356   0.98356418 
   39600    227.22951    -71.39408    126740.54   -39813.958    2827.1671   -42641.125     123.9113   0.98542654 
   39700    230.16256    210.96165    126760.04   -39764.472    2863.6598   -42628.132     124.4515   0.98527494 
   39800    229.02588    28.577618    126680.38   -39819.813    2849.5173    -42669.33    124.45799   0.98589451 
   39900    225.53756    39.690392    126676.77   -39853.684    2806.1161     -42659.8    124.85526   0.98592264 
   40000    222.75017    193.21964    126387.45   -39867.537    2771.4356   -42638.973    124.89999   0.98817957 
   40100    229.93264    160.84241    126649.07   -39767.209    2860.7991   -42628.009    125.10289   0.98613825 
   40200    228.25369    73.601083    126585.13   -39804.969    2839.9098   -42644.879    125.06611   0.98663639 
   40300    232.61344    45.425386     126521.1   -39783.584    2894.1534   -42677.737    124.71627   0.98713565 
   40400    236.63234    159.19193    126529.46   -39687.195    2944.1562   -42631.351    125.06714   0.98707045 
   40500    233.97613    348.53941    126635.69   -39695.939    2911.1079   -42607.046     125.7078   0.98624245 
   40600    236.08853    174.45301    126579.26   -39742.035    2937.3901   -42679.426    126.18871    0.9866821 
   40700    228.01019    137.52114    126710.85   -39790.996    2836.8802   -42627.876    126.61544   0.98565741 
   40800    227.76326   -13.943473    126726.04   -39839.979    2833.8079   -42673.787    126.99269   0.98553929 
   40900    225.45199    234.15615    126648.11   -39857.076    2805.0514   -42662.128    126.95471   0.98614571 
   41000    230.23289    160.67909    126697.61   -39770.639    2864.5349   -42635.174    127.36605   0.98576047 
   41100    232.68333   -140.48707    126622.63   -39753.717    2895.0229    -42648.74    127.41035   0.98634418 
   41200     230.7188    262.28667    126729.76   -39782.515    2870.5805   -42653.096    127.92825   0.98551036 
   41300    225.29308    104.08946    126698.58   -39954.698    2803.0742   -42757.772    128.09361   0.98575286 
   41400    226.68249    291.81682    126796.12   -39883.691    2820.3612   -42704.052    128.17706   0.98499457 
   41500    225.13663    55.383363    127055.36   -39866.327    2801.1276   -42667.455    128.53194   0.98298481 
   41600    232.38975    70.575571    127152.12   -39846.197    2891.3703   -42737.567    128.52227   0.98223682 
   41700     230.0668    35.118107    126918.74   -39840.064    2862.4684   -42702.532    128.38936   0.98404292 
   41800    229.28674    133.04535    127099.84   -39847.383     2852.763   -42700.146    128.48034   0.98264082 
   41900     228.5344    21.871995    127034.92   -39814.487    2843.4024    -42657.89    128.69069   0.98314303 
   42000    228.14493    201.16023    127108.35   -39786.843    2838.5567     -42625.4    129.14032   0.98257507 
   42100    228.94433    21.289313    126988.84   -39781.247    2848.5027    -42629.75    129.36939   0.98349971 
   42200    230.94203    151.77711    126871.34   -39725.415    2873.3579   -42598.773    129.74347   0.98441057 
   42300    230.32843   0.38983911    126792.57   -39697.296    2865.7236   -42563.019    129.51023   0.98502216 
   42400    231.41223    96.830218    126755.11   -39723.547    2879.2081   -42602.755    130.26874   0.98531329 
   42500    229.21753    253.38003    126909.71   -39719.076    2851.9018   -42570.978    131.15456   0.98411296 
   42600     231.9729     104.8755    126661.92   -39715.075    2886.1839   -42601.259     131.3025    0.9860382 
   42700    229.45521    78.425266    126511.44   -39726.125     2854.859   -42580.984    131.75762   0.98721102 
   42800    228.62382    173.56572    126678.35   -39644.234     2844.515   -42488.749    132.35351   0.98591027 
   42900    229.86703    249.34791    126661.14   -39718.761    2859.9828   -42578.744    132.66745   0.98604425 
   43000    230.37022    -63.52562    126583.78   -39758.515    2866.2436   -42624.758     132.6106   0.98664691 
   43100    228.57626    78.206838    126665.82   -39743.224    2843.9233   -42587.147    133.20606   0.98600781 
   43200    231.86298     46.19019    126763.45   -39701.319    2884.8162   -42586.136    133.71785   0.98524841 
   43300    234.65399   -74.281719    126661.58   -39729.009    2919.5417   -42648.551    134.31991   0.98604084 
   43400    233.53623    125.92809    126811.93   -39684.233    2905.6347   -42589.867    134.83873    0.9848718 
   43500     235.2789    10.887726    126800.98   -39704.995    2927.3168   -42632.312    134.87934   0.98495686 
   43600      232.375    120.44848    126820.44   -39627.071    2891.1868   -42518.258    135.08865   0.98480567 
   43700    233.91989    44.250553    127115.29   -39654.369    2910.4081   -42564.777    136.00152   0.98252136 
   43800    233.28791  -0.15203237    127174.51   -39665.959    2902.5451   -42568.504    136.64086   0.98206387 
   43900    228.93827    -7.123009     127233.7   -39706.981    2848.4273   -42555.408    137.10566   0.98160698 
   44000    229.24511   -102.43781    126937.18    -39738.89     2852.245   -42591.135     137.3488   0.98389997 
   44100    234.14481    66.728257     126864.3   -39751.015    2913.2066   -42664.222     137.4067   0.98446525 
   44200    228.29394    262.24302    126731.54   -39781.244    2840.4106   -42621.655    137.32725    0.9854965 
   44300    227.79828    64.156168    126787.53   -39784.874    2834.2436   -42619.118    137.30592   0.98506129 
   44400    228.83743   -229.50758    126819.48   -39752.012    2847.1727   -42599.185    137.66328   0.98481313 
   44500     226.7986    70.763944    126847.79   -39804.335    2821.8057   -42626.141    138.00667   0.98459336 
   44600     227.3192    320.41774     126696.5   -39855.501     2828.283   -42683.784    138.35701   0.98576906 
   44700    224.73683    200.26103    126911.37   -39819.441    2796.1534   -42615.595    138.62638   0.98410008 
   44800    225.93431    108.36071    126755.23   -39785.561    2811.0524   -42596.613    139.18946   0.98531231 
   44900    232.10961    175.57285     126829.6   -39740.393    2887.8848   -42628.278    139.60037   0.98473459 
   45000    230.34362    220.15933    126609.06   -39739.514    2865.9125   -42605.427    139.93902   0.98644987 
   45100    227.93006    26.470548     126518.7   -39671.686    2835.8832   -42507.569    140.53018   0.98715443 
   45200    234.35051    127.72623    126455.46   -39738.355    2915.7658   -42654.121    140.78533   0.98764807 
   45300    235.10299     23.97022    126318.22   -39744.726    2925.1282   -42669.854    140.92318    0.9887211 
   45400    232.39898    171.02631     126348.6   -39718.494    2891.4851   -42609.979    141.62384   0.98848339 
   45500    231.61093    125.87941    126613.67   -39721.778    2881.6803   -42603.458    141.93247   0.98641399 
   45600    228.72274    73.441896    126565.32    -39722.77    2845.7457   -42568.516    142.34031   0.98679076 
   45700    232.65371   -36.916214    126427.29   -39743.982    2894.6545   -42638.636    142.83127   0.98786814 
   45800    237.09343    109.75632    126673.34   -39683.401     2949.893   -42633.294     143.6051   0.98594933 
   45900    235.36937    27.598171    126765.18   -39630.475    2928.4424   -42558.917    143.93124   0.98523499 
   46000    230.44041    183.79483    126817.28   -39609.824    2867.1168   -42476.941    144.22288   0.98483023 
   46100    236.68223    232.06961    126800.06    -39547.71    2944.7769   -42492.487    144.01903   0.98496398 
   46200    238.00116    229.84477    126900.16   -39530.468    2961.1869   -42491.655    143.82043   0.98418706 
   46300    232.15083    14.616813    126584.14   -39551.102    2888.3977     -42439.5    143.79969    0.9866441 
   46400    232.50154    172.63604    126512.11   -39584.823    2892.7612   -42477.584    144.29999   0.98720578 
   46500    230.43741    82.871852    126521.31   -39607.147    2867.0795   -42474.226    144.60566   0.98713402 
   46600    233.79432    389.65578    126730.25   -39597.347    2908.8458   -42506.193    145.38188   0.98550654 
   46700    224.11139    150.46502    126845.17   -39676.827    2788.3718   -42465.199    145.80569   0.98461371 
   46800     230.1335   -68.424038    126967.09   -39735.989    2863.2982   -42599.287    145.93188   0.98366819 
   46900    235.32089    117.45921    126875.56   -39668.406    2927.8392   -42596.245    146.34422   0.98437787 
   47000    229.50545    28.617313    126671.54   -39663.085    2855.4841   -42518.569    147.03455   0.98596334 
   47100    235.72528    131.22241    126566.51   -39644.364    2932.8706   -42577.235    147.42533   0.98678147 
   47200    236.16503    160.71697    126715.16   -39724.213    2938.3419   -42662.555    147.85215   0.98562388 
   47300    234.97094    141.46976    126778.44   -39767.542    2923.4852   -42691.027    148.12571   0.98513195 
   47400     226.5357    94.821599     126995.2   -39737.575    2818.5348   -42556.109    148.66346   0.98345049 
   47500      234.093    310.43094    127087.66   -39679.662     2912.562   -42592.224     149.0662   0.98273503 
   47600    232.60004   -77.606561    127118.53   -39632.244    2893.9867   -42526.231    149.11738   0.98249632 
   47700    234.21348   -6.8045608    127253.02   -39670.776     2914.061   -42584.837    149.62028   0.98145799 
   47800    232.75685   -32.109161     127031.2   -39682.324    2895.9378   -42578.262    150.09487   0.98317176 
   47900    230.05755     26.28118    126991.61   -39772.194    2862.3533   -42634.547    150.64812   0.98347828 
   48000    228.73445    32.664792    127023.99   -39807.868    2845.8915   -42653.759    151.07871   0.98322762 
   48100     229.2108    28.252514    126941.02   -39789.517    2851.8181   -42641.335    150.73899   0.98387023 
   48200    229.66108    186.49725    126808.01   -39811.334    2857.4205   -42668.754    151.22173   0.98490224 
   48300    230.30605    7.7048387    126820.31   -39791.927    2865.4451   -42657.372    151.42969   0.98480674 
   48400     234.2644    189.51607    126957.01   -39711.362    2914.6945   -42626.056    151.81396   0.98374632 
   48500    229.94123    118.07565    127017.32   -39761.132    2860.9061   -42622.038    152.00826    0.9832792 
   48600    231.34633     30.74096    126769.36   -39770.179    2878.3881   -42648.568     152.1779   0.98520252 
   48700     235.8334    91.836547    126875.63   -39727.616    2934.2159   -42661.832    152.35047   0.98437734 
   48800    227.83688   -102.53552    126758.04   -39746.387    2834.7239   -42581.111     152.5812   0.98529049 
   48900    231.65595    62.625275    126966.96   -39717.457    2882.2404   -42599.697    153.29561   0.98366919 
   49000    231.73482    329.34984    127326.98   -39767.684    2883.2217   -42650.906    153.90294   0.98088792 
   49100    231.59703    271.71695    127187.07   -39779.114    2881.5073   -42660.622    153.77508   0.98196687 
   49200    230.07305    86.492965    127178.62   -39813.625    2862.5462   -42676.171    154.61053   0.98203216 
   49300    230.41743   -143.22998    127105.24   -39772.353    2866.8309   -42639.184    154.72677    0.9825991 
   49400     233.8647    -44.61883    126960.08   -39763.452    2909.7215   -42673.174    155.30844   0.98372256 
   49500    230.32886    211.37515     127055.8   -39766.396    2865.7289   -42632.125     155.9667   0.98298146 
   49600    234.39185    63.743203    127176.66   -39753.914    2916.2802   -42670.195    156.60081   0.98204727 
   49700    232.51942   0.28967026    127049.84   -39778.637    2892.9836    -42671.62    156.08875   0.98302757 
   49800    226.17996    78.764594    126807.97   -39860.427    2814.1087   -42674.536     155.9334   0.98490255 
   49900    231.30394   -164.66765    126704.92   -39750.985    2877.8607   -42628.846    156.62707   0.98570353 
   50000    230.55556    121.56282    126618.37   -39781.516    2868.5495   -42650.066    156.67504   0.98637733 
   50100    233.14217    263.35023    126536.29   -39797.084    2900.7318   -42697.815    156.95774    0.9870172 
   50200    229.66002    172.66128    126572.68   -39839.786    2857.4072   -42697.194    157.16751    0.9867334 
   50300    228.53848    85.250031    126513.56   -39807.094    2843.4531   -42650.547     157.4012   0.98719449 
   50400    225.74663    133.68038    126568.52   -39808.221    2808.7173   -42616.938    157.82889    0.9867658 
   50500    228.38228    -58.46961    126679.43   -39828.184    2841.5098   -42669.693    158.29897   0.98590191 
   50600    230.67235    212.22853    126728.89   -39856.317    2870.0026   -42726.319    158.67264   0.98551711 
   50700    229.84902   -93.330978    126883.99    -39892.76    2859.7588   -42752.519    159.11693   0.98431245 
   50800    228.72645    188.27001    126788.78   -39900.757    2845.7919   -42746.549    159.36344   0.98505163 
   50900    233.69579     151.1293    126935.89   -39816.423    2907.6199   -42724.043    160.01159   0.98390999 
   51000    227.89065    137.69688    127108.37   -39855.051     2835.393   -42690.444     160.4613   0.98257491 
   51100    233.77151    158.45064    127272.34   -39895.758    2908.5621    -42804.32     161.0436   0.98130896 
   51200    230.00913   -49.763898     127217.5   -39885.603    2861.7509   -42747.353    160.84908   0.98173201 
   51300    229.15568    249.51961    127218.85   -39932.227    2851.1323    -42783.36    160.97174    0.9817216 
   51400    225.81703    12.399374    127294.85   -39931.185    2809.5932   -42740.778     161.0432   0.98113547 
   51500    226.41523    36.975212    126982.01   -39937.486    2817.0359   -42754.522    161.22562   0.98355264 
   51600     228.9366    140.16481    126929.06    -39866.41    2848.4066   -42714.816    161.51893   0.98396298 
   51700    229.39685   -68.392265    127037.32    -39848.96    2854.1329   -42703.093    162.09032   0.98312445 
   51800    227.87699   -180.85691    126817.87   -39891.297    2835.2229    -42726.52    162.39362   0.98482564 
   51900    227.51827    339.27436    126962.41   -39935.093    2830.7598   -42765.852    163.21623   0.98370449 
   52000     227.3893     68.42552    127004.08    -39952.28    2829.1552   -42781.435     163.3404   0.98338171 
   52100    225.89676    247.87045    127019.97   -39886.631    2810.5852   -42697.216    163.90349   0.98325872 
   52200    226.26746    386.23363    126935.33   -39910.968    2815.1974   -42726.165    163.97293   0.98391434 
   52300    225.04628    221.55789    126961.79   -39890.696    2800.0036   -42690.699    164.25777   0.98370931 
   52400    229.78993    25.128362    126998.12   -39829.723    2859.0236   -42688.747     164.5994   0.98342791 
   52500    227.35745    64.186581    126852.81   -39811.859    2828.7589   -42640.618    164.84285    0.9845544 
   52600     229.7035    86.523401    126736.36   -39833.499    2857.9482   -42691.447    165.14929   0.98545905 
   52700     229.0761     22.63085    126761.67   -39860.138    2850.1422    -42710.28    165.57519   0.98526225 
   52800    228.21806   -18.414848    126653.98    -39814.19    2839.4665   -42653.657    165.96828       0.9861 
   52900    230.12502    295.65855    126931.76   -39803.521    2863.1927   -42666.713    166.19263     0.983942 
   53000    230.29287    49.771995    126781.15   -39757.446    2865.2811   -42622.727    166.24108    0.9851109 
   53100    231.58688    17.514302    126875.18   -39796.282    2881.3811   -42677.663    166.82256   0.98438077 
   53200    234.31639    228.98018     126935.6   -39810.924    2915.3413   -42726.265    167.08674   0.98391226 
   53300    228.58867   -78.839566    126973.07   -39814.376    2844.0777   -42658.454    167.59863   0.98362187 
   53400    222.43922    46.936672    126876.05    -39885.98    2767.5668   -42653.547     167.5717   0.98437402 
   53500     226.5404    -101.2055    126989.33   -39873.033    2818.5932   -42691.626     168.1808   0.98349598 
   53600    229.71052    165.55488    126861.77   -39883.057    2858.0356   -42741.093    168.66016   0.98448482 
   53700    225.65222    66.730088     126695.3   -39932.942    2807.5426   -42740.484    168.46898   0.98577844 
   53800    231.81044    3.4325449    126798.06   -39811.469    2884.1626   -42695.632    169.02986   0.98497952 
   53900    231.81479    134.44717    126868.51   -39868.789    2884.2167   -42753.006     169.5663   0.98443254 
   54000    231.77226    52.753547    126805.32   -39856.299    2883.6875   -42739.987    169.65848   0.98492313 
   54100    231.14244    52.604589    126698.73   -39864.403    2875.8514   -42740.255    169.89981   0.98575171 
   54200    229.84712    60.157678    126842.77   -39834.423    2859.7352   -42694.158    170.70265   0.98463229 
   54300    226.84803    184.57433    126994.29   -39790.757    2822.4208   -42613.178    171.16277   0.98345753 
   54400    225.47604    39.941668    127256.43   -39832.228    2805.3506   -42637.579    171.84864    0.9814317 
   54500    228.98891    77.716763    127136.91   -39806.209    2849.0573   -42655.266    171.71708   0.98235435 
   54600    235.95878    228.57711    127328.19   -39719.201    2935.7758   -42654.977    171.68573   0.98087859 
   54700     233.5517    293.92683     127456.4   -39745.889    2905.8272   -42651.716    171.93125   0.97989191 
   54800    229.00065    218.58125    127540.03   -39822.531    2849.2034   -42671.734    172.34171   0.97924936 
   54900    232.98012    26.020521       127386   -39891.808    2898.7157   -42790.523    172.61675    0.9804334 
   55000    227.28557    211.65404    127433.83   -39947.499    2827.8646   -42775.364     173.0285   0.98006545 
   55100    225.30646   -126.65642    127500.47   -39906.542    2803.2407   -42709.783    173.78219   0.97955321 
   55200    223.90473    -95.59862    127137.33   -39903.001    2785.8005   -42688.802    173.09224   0.98235107 
   55300    226.96086    44.269491    126964.24    -39858.62    2823.8246   -42682.444     173.2145   0.98369032 
   55400    230.08726    45.704677    126914.48    -39830.13    2862.7229   -42692.853    173.38104     0.984076 
   55500    233.79918     218.1929    127075.62   -39766.585    2908.9063   -42675.491    174.08699   0.98282812 
   55600    231.03186    51.486645    127041.89   -39814.762    2874.4755   -42689.238    174.15148   0.98308903 
   55700    231.46525    50.262689    126993.71   -39823.486    2879.8677   -42703.354    174.64357   0.98346206 
   55800     230.0001    151.77543    126863.24   -39817.063    2861.6385   -42678.701     174.9991   0.98447344 
   55900     233.4605    272.62386    127094.66   -39779.096    2904.6925   -42683.788    175.75272   0.98268088 
   56000    234.90852    205.65543    127020.89   -39776.601    2922.7086    -42699.31    176.08373   0.98325155 
   56100     233.7589   -13.082169    126995.26   -39743.369    2908.4051   -42651.774    176.00089   0.98345004 
   56200    230.95958    177.51582    127008.51   -39739.231    2873.5763   -42612.807      176.038   0.98334746 
   56300    228.33632     114.0613    126932.24    -39773.38    2840.9379   -42614.318    176.72658   0.98393829 
   56400     234.0988       215.08    126871.84   -39752.552    2912.6341   -42665.187     177.1408   0.98440672 
   56500    225.26827    8.4256086    126970.61    -39842.98    2802.7656   -42645.745    177.67224   0.98364097 
   56600    226.44692   -153.43468    126977.39   -39855.841    2817.4302   -42673.271    178.15555   0.98358839 
   56700    222.84912    82.595441    126742.34   -39876.389    2772.6667   -42649.055    178.61822   0.98541256 
   56800    227.97492    141.47523    126706.18   -39798.121    2836.4415   -42634.562    178.40571   0.98569376 
   56900     231.6778    193.42875    126810.77       -39765    2882.5123   -42647.512    178.49738   0.98488077 
   57000    234.25293    266.11163    126802.28   -39710.159    2914.5518   -42624.711    178.75805   0.98494669 
   57100    231.85351    156.88468    126925.34   -39758.658    2884.6984   -42643.357    179.09888   0.98399177 
   57200    230.79352    118.05778    127015.75   -39810.946    2871.5101   -42682.456    179.51503   0.98329135 
   57300    228.39359   -69.007959    126729.38   -39850.945    2841.6504   -42692.595    180.06714   0.98551328 
   57400    223.88466    195.41125    126674.39   -39868.895    2785.5508   -42654.445    180.48377   0.98594115 
   57500    227.21479    69.289587       126869   -39932.449     2826.984   -42759.433    180.81535   0.98442879 
   57600    228.67495    27.629886    126950.42   -39904.555    2845.1511   -42749.706     181.3292   0.98379735 
   57700    226.03209   -69.446871    126944.87   -39948.733    2812.2689   -42761.002    181.51694   0.98384036 
   57800    227.88334    103.03749    127035.91   -39981.841    2835.3019   -42817.143    182.02195   0.98313533 
   57900    225.94705    166.52492    127148.88   -39952.388    2811.2109   -42763.599    182.45906    0.9822618 
   58000    220.57712    -16.05449    127028.04   -39933.266    2744.3987   -42677.664    182.39468   0.98319625 
   58100    227.15041    70.904456    127144.07   -39857.649    2826.1829   -42683.832    182.69292   0.98229901 
   58200    231.45023    242.84306    127147.59   -39815.326    2879.6809   -42695.007     182.9225    0.9822718 
   58300    233.34246    230.79921       127276   -39745.122    2903.2238   -42648.345    183.70743   0.98128078 
   58400    230.56305    105.36905    127369.35   -39741.281    2868.6426   -42609.923    183.66874   0.98056159 
   58500    230.24883    151.79897    127176.46   -39745.658    2864.7332   -42610.392    182.90224   0.98204883 
   58600    229.87235    93.025577    127387.94   -39701.227     2860.049   -42561.276    183.22936    0.9804185 
   58700    233.81862    122.70461    127365.48   -39708.584    2909.1481   -42617.732    183.43102    0.9805914 
   58800    236.20347    230.72344    127172.84   -39782.385    2938.8202   -42721.205    183.79159   0.98207677 
   58900    232.84178    174.38815    127310.93   -39838.846    2896.9944    -42735.84      184.406   0.98101155 
   59000    226.44654    14.822414    127139.89   -39836.546    2817.4254   -42653.971    184.64022   0.98233128 
   59100    231.71668    175.30935    127140.29   -39841.058     2882.996   -42724.054    184.63152   0.98232815 
   59200      230.727    173.59804    127395.18   -39848.017    2870.6825   -42718.699    185.23877   0.98036274 
   59300    229.76521    5.1099355    127505.57   -39845.082     2858.716   -42703.798    185.69331   0.97951402 
   59400    224.20392    177.58974    127347.19   -39885.747     2789.523    -42675.27    185.79269   0.98073218 
   59500    226.85031    139.04355    127157.47   -39834.017    2822.4492   -42656.467    185.80929    0.9821955 
   59600    229.57941    55.022912    127339.35   -39835.065    2856.4043   -42691.469    186.76976   0.98079256 
   59700    226.71278   -76.350169    127240.97   -39873.175     2820.738   -42693.913    186.98548   0.98155088 
   59800     227.5712    14.309739    127172.07   -39884.474    2831.4183   -42715.892    187.41144   0.98208274 
   59900    227.48374    146.95113    127244.03   -39857.005    2830.3302   -42687.335    187.71389   0.98152728 
   60000    228.88689     284.8898    127210.18   -39894.872    2847.7881    -42742.66    188.13391    0.9817885 
   60100    228.18509   -69.725919    127157.73   -39845.612    2839.0563   -42684.669    188.58738   0.98219343 
   60200    231.51156    178.95194    127200.96   -39816.895    2880.4439   -42697.339    188.74936   0.98185966 
   60300    233.76106    41.449029    127276.85   -39775.839    2908.4321   -42684.271    189.14267   0.98127422 
   60400    230.59522    95.796401    127324.46   -39718.996     2869.043   -42588.039    190.04927   0.98090726 
   60500    237.38943    99.799287    127436.13   -39758.571    2953.5758   -42712.147    190.45563   0.98004774 
   60600    227.21776    127.70989     127454.4    -39822.39    2827.0209   -42649.411     190.7638   0.97990722 
   60700     229.4514    138.61072    127684.07   -39850.876    2854.8116   -42705.688    191.04858   0.97814462 
   60800    230.44032    396.04062    127619.71   -39823.517    2867.1157   -42690.633     191.3363   0.97863794 
   60900    233.60313    196.33583    127561.47   -39835.053     2906.467    -42741.52    191.51859   0.97908472 
   61000    232.16188    248.22305    127718.52   -39896.576    2888.5351   -42785.111       191.54    0.9778808 
   61100    232.19811    150.73546    127673.76   -39936.023     2888.986   -42825.009    191.69959   0.97822362 
   61200    230.04926    47.634888    127686.33     -39927.4    2862.2501    -42789.65    191.70973   0.97812737 
   61300    229.34126    39.599596    127801.85    -39921.88    2853.4413   -42775.321    191.81795   0.97724325 
   61400    227.11717     122.7231     127652.5   -39961.896    2825.7694   -42787.665    191.96216    0.9783866 
   61500    230.44588    263.27291    127554.65   -39959.658    2867.1849   -42826.843    192.55154   0.97913711 
   61600    228.51492    100.08965    127538.97   -39918.057      2843.16   -42761.217    192.65483   0.97925747 
   61700    226.98096    21.338816     127346.8   -39996.073    2824.0746   -42820.148    192.52254   0.98073521 
   61800    224.00947    141.43978    127120.57   -40058.606    2787.1037   -42845.709    192.60548   0.98248058 
   61900    225.73091    50.252742       127157   -39999.424    2808.5217   -42807.946    193.07845   0.98219912 
   62000    227.74399    307.68422    127201.52    -39947.55    2833.5682   -42781.118    192.95251   0.98185536 
   62100    227.50151    27.015709    127323.27    -39952.04    2830.5513   -42782.592    193.25174   0.98091649 
   62200    230.52875    248.70801    127363.24   -39896.146    2868.2159   -42764.362    193.68695   0.98060859 
   62300    230.63855     24.41139    127274.71   -39938.206    2869.5821   -42807.788    194.52276   0.98129068 
   62400     232.8484   -60.207192    127133.15   -39882.837    2897.0768   -42779.914    194.48529   0.98238339 
   62500    229.33295    125.01468    127107.24   -39912.984    2853.3378   -42766.322    194.54078   0.98258365 
   62600    231.86004   -26.506971    127145.18   -39921.868    2884.7797   -42806.648    194.84929   0.98229038 
   62700    227.80798    446.38472    127318.74   -39943.903    2834.3644   -42778.268    195.31069   0.98095133 
   62800    228.11356    44.607645    127391.02   -39930.483    2838.1663    -42768.65    195.65501    0.9803948 
   62900    229.37089    141.25347    127565.64   -39884.693      2853.81   -42738.503    196.44381   0.97905272 
   63000    231.24049    78.556691    127607.52   -39831.198    2877.0713    -42708.27    196.57191   0.97873145 
   63100    234.97289   -87.533161    127348.47   -39824.267    2923.5095   -42747.776    196.35802   0.98072233 
   63200     230.1567    31.577622    127322.12   -39866.893    2863.5869    -42730.48    196.78363   0.98092535 
   63300    228.92809    189.11717     127420.9   -39894.022    2848.3007   -42742.323    196.88415   0.98016486 
   63400    230.94172    223.36683    127634.13   -39805.691    2873.3541   -42679.045    197.74049   0.97852736 
   63500    229.72645     87.18508    127605.36   -39888.616    2858.2338    -42746.85    197.87233   0.97874801 
   63600    231.45551    152.82126    127882.77   -39896.167    2879.7466   -42775.913    198.64115   0.97662487 
   63700    230.63886    154.31243    127778.91   -39901.394    2869.5859    -42770.98    198.44587   0.97741868 
   63800    221.59502    275.61592    127719.56   -40010.006    2757.0634    -42767.07    198.76726   0.97787283 
   63900    229.72444    11.654911    127856.99   -39976.272    2858.2088   -42834.481    198.52775   0.97682174 
   64000    226.16443    257.77899       127676   -39958.378    2813.9155   -42772.293    198.49559   0.97820647 
   64100    228.67113    -17.37558    127776.67   -39878.067    2845.1036   -42723.171     198.7785   0.97743582 
   64200    231.60817   -46.893558    127658.06   -39876.422    2881.6459   -42758.068    199.17633   0.97834398 
   64300    232.30671    55.560592    127750.76   -39789.591    2890.3372   -42679.928    199.97753     0.977634 
   64400    231.40088   -95.532305    127636.98   -39807.612    2879.0668   -42686.679    199.45255   0.97850552 
   64500    231.39139    161.45214    127372.27   -39773.439    2878.9487   -42652.387     199.6975   0.98053912 
   64600    230.69873    234.98296    127211.85   -39834.088    2870.3308   -42704.418    199.78235   0.98177564 
   64700    231.20073    139.22665    127372.42    -39846.71    2876.5767   -42723.287    200.29343   0.98053797 
   64800    235.72343   -23.929974    127536.39   -39877.447    2932.8476   -42810.294    200.35532   0.97927728 
   64900    227.23837    291.22563     127365.1   -39857.107    2827.2774   -42684.385    200.30527   0.98059433 
   65000    230.33269    180.49357    127288.51   -39819.311    2865.7766   -42685.087    200.60502    0.9811843 
   65100    230.11427    89.914487    127180.31   -39843.535     2863.059   -42706.594    200.71978   0.98201905 
   65200     232.3676     217.9022    127310.42   -39840.506    2891.0947     -42731.6    201.13835    0.9810155 
   65300    230.42658    111.23121    127246.44   -39837.613    2866.9447   -42704.558    201.76357   0.98150876 
   65400    233.44917    51.522461     127430.8   -39764.889    2904.5515   -42669.441    202.14857   0.98008877 
   65500    231.19564    52.460617    127430.29   -39828.289    2876.5133   -42704.802    202.86166   0.98009265 
   65600    228.82671   0.86330313    127283.99   -39852.651    2847.0393    -42699.69    203.26577   0.98121921 
   65700    228.52264   -68.046512    127204.98   -39890.681    2843.2561   -42733.937    203.61136    0.9818286 
   65800    226.41511    93.146011    127226.77   -39915.441    2817.0344   -42732.475    204.17724   0.98166046 
   65900    227.10174    114.85614    127092.21   -39872.631    2825.5774   -42698.209    204.23345   0.98269978 
   66000    231.07719   -98.447956    127060.72   -39765.606    2875.0396   -42640.645    204.86678   0.98294336 
   66100    230.98238    -74.83262    126908.53   -39710.307      2873.86   -42584.167    205.18427   0.98412212 
   66200     233.4173   -14.907735    126786.59   -39684.049     2904.155   -42588.204    205.17231   0.98506861 
   66300    230.95681    109.68346    126779.74   -39721.575    2873.5418   -42595.116    205.40975   0.98512183 
   66400    233.14699    21.564578    126796.87   -39760.974    2900.7918   -42661.765    205.39303   0.98498876 
   66500    230.19911    164.65549    126610.23    -39772.39    2864.1146   -42636.504    205.47674   0.98644079 
   66600    229.46477    174.86067    126675.68   -39801.197     2854.978   -42656.175    205.70093   0.98593106 
   66700    227.29154    76.682231    126895.96   -39819.161    2827.9388     -42647.1    206.16074    0.9842196 
   66800     232.5735    43.349605    126624.53   -39756.286    2893.6564   -42649.943    205.98009   0.98632937 
[...]
   84600    227.30441    102.42659    126960.81   -39940.389     2828.099   -42768.488    260.64863   0.98371684 
   84700    223.80078    126.11873    126902.95   -39952.285    2784.5071   -42736.792    260.95152   0.98416536 
   84800    228.79469    32.626107    126875.25   -39917.819     2846.641    -42764.46    261.24925   0.98438024 
   84900    230.42994    1.3730094    127012.13   -39899.253    2866.9865    -42766.24    261.46025   0.98331939 
   85000    236.07644   -7.8356221    127024.59   -39850.466    2937.2397   -42787.706    261.17497   0.98322293 
   85100    226.63827    186.69009     127294.1   -39845.978     2819.811   -42665.789     261.9198   0.98114122 
   85200    228.53688    251.50206    127281.39   -39848.499    2843.4333   -42691.933    262.26678   0.98123919 
   85300    226.90984   -157.06948    127311.24   -39892.867    2823.1898   -42716.056    262.43974   0.98100914 
   85400    226.32608    353.99037    127466.95   -39855.543    2815.9267    -42671.47     262.7715   0.97981076 
   85500    231.44966    97.042134     127492.8   -39808.445    2879.6738   -42688.119    263.34543   0.97961213 
   85600    230.52485   -141.14142    127594.01   -39794.822    2868.1674   -42662.989    263.83449   0.97883507 
   85700    227.35078    100.95321    127297.01   -39841.607    2828.6759   -42670.283    263.42688   0.98111879 
   85800     229.5878    248.14954    127446.14    -39855.63    2856.5088   -42712.139     263.8018   0.97997074 
   85900    230.03313    43.393749    127084.53   -39741.777    2862.0495   -42603.827    263.45836   0.98275923 
   86000    228.61646     149.7998    127042.68   -39794.879    2844.4235   -42639.302    263.47876   0.98308296 
   86100    225.89904    160.74605    126871.14   -39775.695    2810.6136   -42586.309    263.86004   0.98441217 
   86200    230.44907    90.324986    126728.56   -39735.007    2867.2246   -42602.232    264.24717   0.98551971 
   86300    230.65964    117.06574    126806.81    -39751.72    2869.8444   -42621.565    264.56779   0.98491158 
   86400    231.33967    187.83957    126920.28   -39774.502    2878.3053   -42652.807    264.96267   0.98403103 
   86500    228.48544    34.013971    127083.38   -39756.203    2842.7933   -42598.996    265.47139    0.9827681 
   86600    231.37442   -34.716808    127228.36   -39700.449    2878.7376   -42579.186    265.27112   0.98164822 
   86700    231.40073    165.55947    127410.33   -39698.273     2879.065   -42577.338    265.61278   0.98024622 
   86800    227.54009   -17.489034    127448.96   -39766.095    2831.0313   -42597.126    266.30317    0.9799491 
   86900    234.09815   -121.69447    127213.08   -39745.908    2912.6261   -42658.534    266.89287   0.98176612 
   87000    234.05604    43.570958    127014.78   -39752.576    2912.1021   -42664.678    267.21864   0.98329892 
   87100    225.06268   -16.796835    126961.35   -39774.127    2800.2076   -42574.335    267.33324    0.9837127 
   87200    228.88602    247.27646    127081.22   -39763.557    2847.7773   -42611.334    267.69296   0.98278477 
   87300    229.98518    50.434906    127021.81   -39749.813    2861.4529   -42611.266    268.17559   0.98324446 
   87400    236.63693   -49.150111    126858.36   -39781.822    2944.2133   -42726.035    267.95672   0.98451129 
   87500    232.98338   -78.277812    126809.11   -39799.587    2898.7562   -42698.343     268.4545   0.98489371 
   87600    224.62986    38.837647     126570.8   -39795.868    2794.8225    -42590.69    268.96229   0.98674807 
   87700    230.75288     89.30689    126650.83   -39795.218    2871.0045   -42666.222    269.19539   0.98612452 
   87800     228.8946    154.17029    126846.95   -39779.605     2847.884   -42627.489    269.90174   0.98459988 
   87900    230.83837    -63.21643    127015.85   -39798.859    2872.0682   -42670.927     270.4527   0.98329057 
   88000    223.67421   -47.846767    126856.39   -39820.646    2782.9324   -42603.578    270.53866   0.98452658 
   88100    227.42157    249.02574     126634.7   -39747.181    2829.5567   -42576.738    270.20557   0.98625018 
   88200    227.90171    20.760011       126934    -39711.45    2835.5306    -42546.98    271.15091   0.98392465 
   88300    230.92054     103.3909    127033.94    -39739.74    2873.0905    -42612.83    271.56818   0.98315055 
   88400    223.99752    243.46119    126875.44   -39852.618     2786.955   -42639.573    272.01242   0.98437877 
   88500    229.58833    148.92057    127074.38   -39761.612    2856.5153   -42618.127    272.61849   0.98283766 
   88600    230.84157    88.150748    126929.91   -39710.557     2872.108   -42582.665    272.08619   0.98395633 
   88700    232.20343   -49.321692    126989.86   -39679.921    2889.0522   -42568.973    272.39425   0.98349184 
   88800    232.17203    97.745776    126822.55   -39625.766    2888.6614   -42514.428     272.1637   0.98478931 
   88900    231.92404    107.26622    126966.98   -39667.571     2885.576   -42553.147    273.01345   0.98366904 
   89000     228.9668    179.42714    127019.06   -39658.657    2848.7823   -42507.439    273.54621   0.98326578 
   89100    227.51588    39.670138    127008.05   -39760.803    2830.7301   -42591.533    273.52072   0.98335101 
   89200    226.98152    93.088808    126791.47   -39783.557    2824.0817   -42607.639    273.68147   0.98503073 
   89300    229.67935    267.85074    126851.61   -39799.779    2857.6478   -42657.427    274.34999   0.98456374 
   89400    228.61753     111.5548    126838.39   -39826.715    2844.4368   -42671.151    274.86187   0.98466629 
   89500     222.5681   -8.6169494    126874.25    -39868.72    2769.1703    -42637.89    275.50467   0.98438798 
   89600    222.44324    175.43718    127024.44   -39911.656    2767.6167   -42679.273    276.00678   0.98322414 
   89700    224.78251    111.96849    127034.28   -39890.055    2796.7218   -42686.776    276.19275   0.98314795 
   89800    228.23242    102.61626     127229.8   -39848.998    2839.6452   -42688.643    276.31076   0.98163706 
   89900    225.08566   -36.449224    127027.35   -39912.885    2800.4935   -42713.379    276.42359   0.98320161 
   90000    228.62346    3.2702126    126894.59   -39828.227    2844.5105   -42672.737    277.00467   0.98423025 
   90100    228.20606    79.523834    127130.73   -39847.332    2839.3172    -42686.65    277.66557   0.98240207 
   90200    225.14747    233.34475    127156.09   -39875.088    2801.2625    -42676.35    278.02197   0.98220616 
   90300    225.41346    229.57911    127091.78   -39886.296     2804.572   -42690.868    277.83975   0.98270317 
   90400     227.0158   -41.262865    127095.72   -39872.399    2824.5081   -42696.907    278.13693   0.98267271 
   90500    225.33891    226.88537    127348.34   -39849.093    2803.6444   -42652.737    278.75525   0.98072334 
   90600    232.15688    155.03044    127001.95   -39747.694    2888.4729   -42636.167     278.2258   0.98339823 
   90700    230.15769     109.2097    126911.77    -39739.59    2863.5993    -42603.19    278.99897   0.98409696 
   90800    232.26818   -17.909569    127036.91   -39757.435    2889.8578   -42647.293    279.44915   0.98312755 
   90900    226.11653    95.130171    126990.71   -39854.728    2813.3195   -42668.047     279.7495   0.98348526 
   91000    227.57235    251.94776     126865.4    -39874.92    2831.4327   -42706.352    280.00294   0.98445668 
   91100    223.48334     174.7664    127050.28   -39849.966    2780.5576   -42630.523     280.9708   0.98302413 
   91200    226.38702    143.17949    127037.51   -39817.045    2816.6849    -42633.73    281.77915   0.98312293 
   91300     231.8014    123.88977    126999.38   -39713.431    2884.0501   -42597.482    282.49002    0.9834181 
   91400     234.6763      52.4503    127077.01    -39688.76    2919.8193   -42608.579    282.51426   0.98281739 
   91500    229.91209   -199.85591    126603.17   -39695.661    2860.5435   -42556.204    282.63376   0.98649575 
   91600     226.7156    113.41241    126437.02   -39712.112    2820.7731   -42532.885    283.05019   0.98779211 
   91700    225.05928   -117.49438    126230.79    -39773.28    2800.1653   -42573.446    283.53681   0.98940593 
   91800    227.51717    253.69383    126107.76   -39743.995    2830.7461   -42574.741    282.81967    0.9903712 
   91900    230.35245    105.20141    126287.88   -39728.004    2866.0224   -42594.027    283.06792   0.98895865 
   92000    227.11529    170.77073    126191.15   -39738.548    2825.7459   -42564.294    282.90685   0.98971675 
   92100    228.84274    213.68922    126319.57   -39789.947    2847.2388   -42637.186    282.82448   0.98871057 
   92200    232.06651    156.80499    126236.65    -39741.27    2887.3486   -42628.619      283.352   0.98936002 
   92300    231.47571    71.353358    126324.62   -39665.327     2879.998   -42545.325    283.75526   0.98867104 
   92400    234.71842    217.26349    126409.16   -39676.049    2920.3434   -42596.392    284.16649   0.98800985 
   92500    228.97543   -85.512241       126413   -39713.305    2848.8897   -42562.195    284.90342   0.98797979 
   92600    230.92948    363.19108    126473.73   -39668.083    2873.2017   -42541.285    285.62262   0.98750541 
   92700    235.30931     226.2461    126557.25   -39650.048    2927.6952   -42577.743    286.15834   0.98685369 
   92800     224.8546     24.28084    126758.75    -39696.52    2797.6187   -42494.139    286.82124   0.98528498 
   92900    230.46763   -83.427113    126560.37   -39662.441    2867.4555   -42529.896     286.6658   0.98682937 
   93000    231.91849    95.935027    126411.08   -39688.208     2885.507   -42573.715    286.80928   0.98799483 
   93100    231.45898     196.9405    126601.85   -39638.739    2879.7897   -42518.529    287.33863   0.98650609 
   93200    228.76982    154.27189    126428.19       -39650    2846.3315   -42496.331     287.0148   0.98786107 
   93300    228.26419    156.63449    126449.88   -39669.518    2840.0404   -42509.558    287.83562   0.98769166 
   93400    233.38722    508.55263    126450.32   -39711.556    2903.7807   -42615.337    288.01894   0.98768819 
   93500    230.58116    66.602598    126658.31   -39757.209     2868.868   -42626.077    288.75122   0.98606631 
   93600    227.76805    246.39131    126736.28   -39832.708    2833.8676   -42666.575    289.17151   0.98545966 
   93700    229.02766   -3.4964251    126834.52   -39802.632    2849.5395   -42652.171    289.70293   0.98469634 
   93800    228.42297    284.94802    126780.55   -39770.904     2842.016    -42612.92    289.55309   0.98511553 
   93900    227.63416    -138.8797    126747.76    -39751.02    2832.2018   -42583.221    289.43717   0.98537037 
   94000    230.51415    142.17218    126551.34   -39762.645    2868.0343   -42630.679    289.24416   0.98689979 
   94100    229.05445    73.463878    126552.44   -39771.864    2849.8728   -42621.736    289.44714   0.98689121 
   94200    230.45074    5.5202649    126615.65   -39766.029    2867.2453   -42633.274    289.59789   0.98639855 
   94300    230.54706   -13.568805    126818.45   -39720.912    2868.4438   -42589.355    289.69367   0.98482114 
   94400    230.47105    70.199128    126657.21   -39710.499    2867.4981   -42577.997    289.42351   0.98607489 
   94500     232.4851    146.06789    126762.53   -39644.524    2892.5566   -42537.081    289.92933   0.98525562 
   94600    232.16338    257.13848    126475.05   -39683.784    2888.5539   -42572.338    289.81784   0.98749512 
   94700    230.97794    15.029825    126558.13    -39743.94    2873.8046   -42617.744    290.38501   0.98684681 
   94800     228.5818     128.9279    126505.36   -39728.627    2843.9922   -42572.619    290.54255   0.98725846 
   94900    228.86023    19.135827    126542.24   -39692.216    2847.4564   -42539.672    290.29019   0.98697075 
   95000    237.41368    20.672691    126546.48   -39686.279    2953.8775   -42640.157     290.7356   0.98693767 
   95100    235.67488    -11.03423    126604.97   -39685.344    2932.2435   -42617.587    291.15551   0.98648174 
   95200    231.37024    71.152533     126462.8   -39696.262    2878.6857   -42574.948    291.07083   0.98759078 
   95300    231.67157    199.02497    126603.55   -39584.096    2882.4348   -42466.531     291.5129    0.9864928 
   95400    231.84506     91.23797    126429.54   -39647.222    2884.5933   -42531.815    290.96722   0.98785056 
   95500    227.68408    170.16864    126604.04   -39654.021    2832.8228   -42486.844    291.68449     0.986489 
   95600    235.73825    332.35388    126760.02   -39635.428     2933.032    -42568.46    291.96074   0.98527514 
   95700    229.70545    93.569811    126771.06   -39706.808    2857.9725   -42564.781    292.79083    0.9851893 
   95800     227.4931   -29.754907    126642.06   -39765.268    2830.4466   -42595.715    292.66009   0.98619281 
   95900    228.51382    37.357525    126761.98   -39712.591    2843.1463   -42555.737    293.31547    0.9852599 
   96000    232.62349    88.914911    126611.42   -39811.976    2894.2785   -42706.254     293.3275    0.9864315 
   96100    230.64937    127.30849    126517.31   -39762.975    2869.7166   -42632.692    293.65567   0.98716524 
   96200    226.42359     77.17091    126463.36   -39811.915    2817.1399   -42629.055    293.66008   0.98758641 
   96300    226.68421     18.33358    126323.57   -39778.872    2820.3826   -42599.254    294.12155   0.98867927 
   96400    233.52549   -237.58774    126235.88   -39752.263    2905.5011   -42657.764    294.37121   0.98936604 
   96500    235.95728    70.092982    126299.05   -39817.083    2935.7572    -42752.84    294.24519   0.98887121 
   96600    232.26954    178.12153    126377.76   -39815.782    2889.8747   -42705.657    295.14319   0.98825533 
   96700    228.70733    193.09467    126484.92   -39904.186     2845.554    -42749.74    295.28447     0.987418 
   96800    226.49969    261.82646    126641.06   -39951.731    2818.0867   -42769.818    296.11843   0.98620065 
   96900    227.76683    217.01253    126596.11   -39892.562    2833.8524   -42726.414    296.59603   0.98655079 
   97000    229.40098     20.12868    126634.72   -39892.293    2854.1843   -42746.478    297.25937   0.98624999 
   97100    225.45237    226.19357    126544.03    -39892.15     2805.056   -42697.207    297.45306   0.98695681 
   97200    226.56026    59.504992     126711.7   -39897.254    2818.8403   -42716.095    298.15113   0.98565079 
   97300    225.30394     219.6678    126765.14   -39887.466    2803.2094   -42690.675    298.50258   0.98523529 
   97400     221.1141    271.13136    126862.77   -39860.557    2751.0798   -42611.637    298.98001   0.98447707 
   97500    232.63395    99.789685    127008.99   -39765.368    2894.4086   -42659.777    299.38546   0.98334371 
   97600    230.58298   -21.602074    126884.42    -39835.95    2868.8906   -42704.841    299.56569   0.98430913 
   97700     231.4471   -4.5891264    126906.61   -39781.844    2879.6419   -42661.486     300.0695   0.98413702 
   97800    232.46486    249.87056    127054.65   -39747.746    2892.3048    -42640.05    299.88414    0.9829903 
   97900    232.77338    52.981058    126904.64   -39717.768    2896.1434   -42613.912    300.16707   0.98415225 
   98000    232.65515    77.020535     126968.8   -39728.937    2894.6724    -42623.61    301.08739   0.98365499 
   98100    230.89916    145.52537    127140.25   -39810.663    2872.8246   -42683.487    301.74769   0.98232848 
   98200    231.39251    170.36189    127121.94   -39796.477    2878.9628    -42675.44    301.82261   0.98246999 
   98300    233.57098    36.683738    127012.02   -39828.068     2906.067   -42734.135    301.61199   0.98332027 
   98400    227.56572    168.00409     127001.4   -39858.762    2831.3502   -42690.112    301.40593   0.98340244 
   98500    227.12642   -29.444015    126886.15   -39859.958    2825.8844   -42685.842    301.52263   0.98429573 
   98600    229.18257    190.09087    126902.89   -39883.134    2851.4669   -42734.601    301.74155   0.98416582 
   98700    225.92754    167.95595    126797.84    -39931.82    2810.9681   -42742.788    301.24702   0.98498122 
   98800    227.35478     262.9826    126963.13   -39903.041    2828.7257   -42731.767    302.11005   0.98369889 
   98900    229.13235    77.968182    127121.77   -39906.449     2850.842   -42757.291    302.58405   0.98247128 
   99000    226.78436   -12.783364    127234.71    -39956.21    2821.6286   -42777.838    303.01761   0.98159923 
   99100    227.65941   -109.53182    127292.53   -39879.144    2832.5159   -42711.659    303.02814   0.98115334 
   99200    224.46466    222.45306    127212.26   -39861.477    2792.7671   -42654.244    303.01007   0.98177243 
   99300    227.61987   -6.5914785    127194.45   -39801.213    2832.0239   -42633.237    302.94439   0.98190989 
   99400    236.22598    152.95027    127184.38   -39769.665    2939.1003   -42708.766    303.95574   0.98198762 
   99500    237.27145   -28.985192    126997.31   -39664.255    2952.1079   -42616.363    304.18509   0.98343412 
   99600    234.73663    167.32999    127008.66   -39699.493      2920.57   -42620.063    304.73215   0.98334625 
   99700    232.63368    40.578853     127068.3   -39702.228    2894.4053   -42596.633    304.82542   0.98288473 
   99800    235.24512    138.51157    126866.57   -39708.831    2926.8965   -42635.727    304.71415   0.98444761 
   99900    230.26566    37.469888     126938.9   -39777.718    2864.9426    -42642.66     304.9259   0.98388664 
  100000    231.99225   -8.4442622    126872.56   -39785.675    2886.4246   -42672.099    304.91473   0.98440109 
  100100    230.81367    95.654052    126834.15   -39713.385    2871.7608   -42585.146    304.80085   0.98469924 
  100200    233.74718   -125.62101    126790.07   -39716.764    2908.2593   -42625.023    305.39972   0.98504161 
  100300    232.61014   -88.818461    126531.73    -39706.46    2894.1124   -42600.572    305.09746   0.98705275 
  100400    232.05047    80.779479    126515.68   -39740.462     2887.149   -42627.611    305.54392   0.98717798 
  100500    232.44293    150.71965    126542.64   -39644.886    2892.0319   -42536.918    306.40996   0.98696767 
  100600    228.71683   -186.40274    126599.79   -39726.335    2845.6722   -42572.007    306.92355    0.9865221 
  100630    231.52947    247.32785    126611.91   -39708.134    2880.6668   -42588.801    307.12555   0.98642765 
Loop time of 110.569 on 6 procs for 100000 steps with 4175 atoms

Performance: 390.707 ns/day, 0.061 hours/ns, 904.414 timesteps/s
98.9% CPU use with 6 MPI tasks x no OpenMP threads

MPI task timing breakdown:
Section |  min time  |  avg time  |  max time  |%varavg| %total
---------------------------------------------------------------
Pair    | 79.923     | 83.996     | 93.822     |  49.2 | 75.97
Neigh   | 5.3866     | 5.4285     | 5.5331     |   2.1 |  4.91
Comm    | 8.5041     | 18.291     | 22.404     | 105.2 | 16.54
Output  | 0.17662    | 0.17798    | 0.18409    |   0.6 |  0.16
Modify  | 1.9365     | 1.9739     | 1.9962     |   1.4 |  1.79
Other   |            | 0.7007     |            |       |  0.63

Nlocal:        695.833 ave         704 max         684 min
Histogram: 1 0 1 0 0 1 0 0 0 3
Nghost:        1489.50 ave        1512 max        1475 min
Histogram: 2 1 0 0 0 2 0 0 0 1
Neighs:        0.00000 ave           0 max           0 min
Histogram: 6 0 0 0 0 0 0 0 0 0
FullNghs:      19925.0 ave       20353 max       19410 min
Histogram: 1 0 0 0 2 0 1 1 0 1

Total # of neighbors = 119550
Ave neighs/atom = 28.634731
Neighbor list builds = 5800
Dangerous builds = 0

undump              1
unfix               2
unfix               3
unfix               4


################################################
#######         Run Simulation         #########
################################################

reset_timestep      0
log                 log.run_${NAME}
log                 log.run_liquid_density_MLmW
