
# Create simulation box of size 50 x 50 x 50 Angstrom
#
lattice	            sc 1
Lattice spacing in x,y,z = 1.0000000 1.0000000 1.0000000
region 	            all block 0 50 0 50 0 50 units box
create_box          1 all
Created orthogonal box = (0.0000000 0.0000000 0.0000000) to (50.000000 50.000000 50.000000)
  1 by 2 by 3 MPI processor grid

# fill box with 4175 randomly distributed atoms
#
create_atoms        1 random 4175 63782 all
Created 4175 atoms
  create_atoms CPU = 0.001 seconds
mass                1 18.015

# Define potential
#
pair_style          sw
pair_coeff          * * ML_mW.sw mW
Reading sw potential file ML_mW.sw with DATE: 2019-02-27

# Run minimization
#
minimize            1.0e-8 1.0e-8 10000 1000
WARNING: Using 'neigh_modify every 1 delay 0 check yes' setting during minimization (../min.cpp:187)
Neighbor list info ...
  update every 1 steps, delay 0 steps, check yes
  max neighbors/atom: 2000, page size: 100000
  master list distance cutoff = 6.0032907
  ghost atom cutoff = 6.0032907
  binsize = 3.0016454, bins = 17 17 17
  1 neighbor lists, perpetual/occasional/extra = 1 0 0
  (1) pair sw, perpetual
      attributes: full, newton on
      pair build: full/bin/atomonly
      stencil: full/bin/3d
      bin: standard
Per MPI rank memory allocation (min/avg/max) = 4.255 | 4.258 | 4.261 Mbytes
Step Temp E_pair E_mol TotEng Press 
       0            0    7792709.3            0    7792709.3    5898794.3 
     630            0   -45180.336            0   -45180.336   -154.07449 
Loop time of 1.14554 on 6 procs for 630 steps with 4175 atoms

98.5% CPU use with 6 MPI tasks x no OpenMP threads

Minimization stats:
  Stopping criterion = max force evaluations
  Energy initial, next-to-last, final = 
      7792709.32924461  -45180.0188663597   -45180.336116598
  Force two-norm initial, final = 2.0191930e+08 4.9721331
  Force max component initial, final = 1.0948746e+08 0.73126211
  Final line search alpha, max atom move = 0.053306038 0.038980685
  Iterations, force evaluations = 630 1000

MPI task timing breakdown:
Section |  min time  |  avg time  |  max time  |%varavg| %total
---------------------------------------------------------------
Pair    | 0.88029    | 0.99158    | 1.064      |   6.2 | 86.56
Neigh   | 0.023837   | 0.024547   | 0.0254     |   0.3 |  2.14
Comm    | 0.036365   | 0.10941    | 0.22164    |  18.9 |  9.55
Output  | 0          | 0          | 0          |   0.0 |  0.00
Modify  | 0          | 0          | 0          |   0.0 |  0.00
Other   |            | 0.02001    |            |       |  1.75

Nlocal:        695.833 ave         704 max         685 min
Histogram: 1 1 0 0 1 0 0 1 0 2
Nghost:        1494.17 ave        1515 max        1468 min
Histogram: 1 1 0 0 0 0 1 1 1 1
Neighs:        0.00000 ave           0 max           0 min
Histogram: 6 0 0 0 0 0 0 0 0 0
FullNghs:      19997.0 ave       20462 max       19320 min
Histogram: 1 1 0 0 0 0 0 2 0 2

Total # of neighbors = 119982
Ave neighs/atom = 28.738204
Neighbor list builds = 26
Dangerous builds = 0

# Add velocity/set timestep
#
velocity            all create ${TEMP} 120598 rot yes dist gaussian
velocity            all create 225 120598 rot yes dist gaussian
timestep            5.0

# Define output
#
compute	            1 all msd
thermo	            100
thermo_style        custom step temp press vol etotal ke pe c_1[4] density

# Neighbor lists
#
neigh_modify        delay 0 every 1 check yes

# Set fixes
#
fix                 1 all momentum 10 linear 1 1 1 rescale
fix                 2 all nve
fix                 3 all temp/csvr ${TEMP} ${TEMP} 500.0 928347
fix                 3 all temp/csvr 225 ${TEMP} 500.0 928347
fix                 3 all temp/csvr 225 225 500.0 928347
fix                 4 all press/berendsen iso ${PRES} ${PRES} 1000.0 modulus 20000
fix                 4 all press/berendsen iso -900 ${PRES} 1000.0 modulus 20000
fix                 4 all press/berendsen iso -900 -900 1000.0 modulus 20000

# Run 0.5 ns equilibration
#
dump                1 all custom 1000 eq.${NAME}.dump id type x y z vx vy vz
dump                1 all custom 1000 eq.liquid_density_MLmW.dump id type x y z vx vy vz
run                 100000
Per MPI rank memory allocation (min/avg/max) = 3.506 | 3.508 | 3.511 Mbytes
Step Temp Press Volume TotEng KinEng PotEng c_1[4] Density 
     630          225    869.67124       125000   -42380.908    2799.4278   -45180.336 2.7295415e-33   0.99914793 
     700    143.26418   -723.34314    126297.27   -41509.502    1782.4787    -43291.98   0.27043455   0.98888514 
     800    177.05242   -944.17537     126807.5   -40713.802    2202.8688   -42916.671    0.6269688   0.98490619 
     900    198.43376   -955.05588    127056.96   -40260.395    2468.8932   -42729.288    1.0846295   0.98297244 
    1000     207.0145   -752.65213    127208.99   -39977.139    2575.6539   -42552.793     1.500307   0.98179767 
    1100    217.62182   -941.82006    127568.28   -39782.455    2707.6291   -42490.084    1.9123228   0.97903251 
    1200    217.02242   -703.92461    127932.28   -39812.608    2700.1715    -42512.78    2.3153876   0.97624687 
    1300    220.01515   -748.86098    128112.71   -39791.263    2737.4068    -42528.67    2.7304184   0.97487202 
    1400    216.78567   -853.52517    128457.74   -39786.322    2697.2259   -42483.548    3.0934781   0.97225353 
    1500    219.93825   -801.49749    128645.63   -39729.322      2736.45   -42465.771    3.4483617   0.97083352 
    1600    229.43822   -609.18176    128770.94   -39633.914    2854.6477   -42488.561    3.7156108   0.96988879 
    1700    225.16561   -1004.1144    128633.99   -39670.529    2801.4883   -42472.017    4.0766536   0.97092134 
    1800    222.69654   -841.89466    129226.91   -39756.286    2770.7684   -42527.055    4.4389984   0.96646658 
    1900    224.63545    -904.6472    129165.93   -39757.249    2794.8921   -42552.141    4.7625673   0.96692285 
    2000    228.92712   -809.58608    129218.45   -39730.018    2848.2886   -42578.307    5.0187482   0.96652985 
    2100    226.06325   -947.27873    129145.03   -39690.753    2812.6567   -42503.409    5.4763166   0.96707931 
    2200    225.64785   -776.92083     129417.6   -39722.264    2807.4882   -42529.752    5.7908016   0.96504257 
    2300    227.91989   -863.52034    129332.02   -39724.204    2835.7568    -42559.96    6.0913143   0.96568116 
    2400    230.18438   -811.34598    129639.58   -39743.183    2863.9313   -42607.114    6.4752094    0.9633901 
    2500    231.62685   -909.84878    129563.07   -39732.977    2881.8783   -42614.855    6.7892567   0.96395906 
    2600    227.21782   -778.62674    129618.91   -39684.319    2827.0217    -42511.34    7.0983338   0.96354375 
    2700    227.77184   -599.73438    129803.95   -39710.676    2833.9147   -42544.591    7.3239701   0.96217017 
    2800     233.4075   -900.87855    130149.68   -39718.995     2904.033   -42623.028    7.5518422   0.95961424 
    2900    223.86842   -780.55891     130087.1   -39822.298    2785.3487   -42607.646    7.7892603    0.9600759 
    3000    228.51759   -867.58296    130181.47   -39881.613    2843.1933   -42724.806    7.9542648   0.95937995 
    3100    225.84951    -798.6105    130581.81   -39867.898    2809.9973   -42677.895    8.2732371   0.95643865 
    3200     220.9976   -753.56389    130534.42   -39923.405    2749.6303   -42673.035    8.5690033   0.95678588 
    3300    229.12341   -923.00698    130371.22   -39921.542    2850.7308   -42772.273    8.7739001   0.95798357 
    3400    223.83368   -899.51174    130240.14   -39975.986    2784.9165   -42760.903      9.06692   0.95894779 
    3500    225.57932   -900.30701    130217.32   -40026.642    2806.6356   -42833.278    9.2960903   0.95911582 
    3600    221.31066    -812.3902    130089.11   -40090.855    2753.5254    -42844.38    9.5828715    0.9600611 
    3700    219.80371   -964.67365    130301.81   -40158.318    2734.7761   -42893.094    9.8445631   0.95849389 
    3800    220.25508   -768.54319    130306.28   -40124.605    2740.3919   -42864.997    10.127833   0.95846102 
    3900    221.14455   -946.19459    130612.36   -40166.224    2751.4587   -42917.683    10.415619   0.95621498 
    4000    222.83516   -917.76109    130570.46   -40171.078     2772.493   -42943.571    10.516432   0.95652177 
    4100    222.69478   -971.19881     130784.3   -40164.287    2770.7464   -42935.033    10.781204    0.9549578 
    4200    225.50719    -998.6578    131080.05   -40170.974    2805.7382   -42976.712    10.858796   0.95280321 
    4300    220.17407   -924.83171    131180.24   -40184.055     2739.384   -42923.439    11.128174    0.9520755 
    4400    222.39625    -942.8408    131381.89   -40165.918    2767.0322    -42932.95     11.32557   0.95061418 
    4500    222.01451   -750.82747    131459.87   -40173.155    2762.2826   -42935.438    11.552065   0.95005035 
    4600    225.62434   -979.48146    131601.05   -40239.425    2807.1958    -43046.62    11.848503   0.94903109 
    4700    228.40068   -836.22043    131779.42   -40158.743    2841.7387   -43000.482    11.906771   0.94774653 
    4800    226.40145   -799.16463    131893.73   -40229.072    2816.8645   -43045.936    11.975312   0.94692515 
    4900    231.32009   -795.40653    131990.26   -40126.046    2878.0617   -43004.108    12.135505   0.94623261 
    5000    229.12994    -592.4327    132248.95   -40096.959    2850.8121   -42947.771    12.324365   0.94438174 
    5100    225.29479   -937.43702    132287.05   -40175.016    2803.0955   -42978.112    12.498526   0.94410972 
    5200    223.97798   -815.20087    132443.63    -40247.47    2786.7119   -43034.182    12.728208   0.94299359 
    5300    220.41091   -870.70866     132591.6   -40236.237    2742.3307   -42978.568     12.89054   0.94194119 
    5400    223.14404   -945.32003    132655.07   -40273.912    2776.3361   -43050.248    13.074566   0.94149053 
    5500     224.4507   -906.00153    132477.72    -40284.38    2792.5934   -43076.973    13.231168   0.94275092 
    5600    225.01762   -968.31989    132462.31   -40293.454    2799.6469   -43093.101    13.364576    0.9428606 
    5700    228.58313   -864.44839    132529.25   -40313.992    2844.0087   -43158.001    13.577479   0.94238439 
    5800    224.58156   -970.98025    132520.32   -40345.539    2794.2215    -43139.76    13.805305   0.94244784 
    5900     222.4687   -963.00777     132547.6   -40385.229    2767.9336   -43153.163    13.928674   0.94225387 
    6000    221.32588   -848.63547    132572.47   -40383.092    2753.7147   -43136.807     13.86996   0.94207715 
    6100    227.43187   -1017.2612    132548.73   -40314.103    2829.6848   -43143.788       13.992   0.94224589 
    6200    222.45525   -875.66027    132424.97   -40368.839    2767.7662   -43136.605    14.116121   0.94312645 
    6300    223.85871   -915.25936    132714.13   -40337.674    2785.2279   -43122.902    14.499122   0.94107156 
    6400    222.94265   -1010.4542    132715.69   -40315.242    2773.8304   -43089.072    14.504708   0.94106048 
    6500    226.48718   -910.61255    132696.51   -40252.833    2817.9311   -43070.764    14.645499   0.94119652 
    6600      225.446   -837.88006    132819.57   -40322.604    2804.9769   -43127.581    14.812849    0.9403245 
    6700    219.00311   -1042.9543       132905   -40386.306     2724.815   -43111.121    14.927712   0.93972001 
    6800     220.2275   -976.06249    132905.19   -40302.969    2740.0488   -43043.018     15.28361   0.93971872 
    6900    230.95518   -1122.4761    132898.66   -40256.935    2873.5215   -43130.457    15.355219   0.93976488 
    7000    228.62465   -880.47531    132908.51   -40267.416    2844.5253   -43111.941    15.590534   0.93969523 
    7100    228.19915   -1063.3156     132883.1   -40307.813    2839.2313   -43147.044    15.547521   0.93987492 
    7200    225.32841   -985.63126    132850.84   -40369.703    2803.5139   -43173.217    15.686306   0.94010311 
    7300    221.41759   -1075.8221     132614.1   -40446.937    2754.8558   -43201.793    15.792261   0.94178139 
    7400    221.89873   -914.54885    132759.93   -40466.752    2760.8421   -43227.594    15.990775   0.94074688 
    7500    221.58515   -1009.2036    132634.67   -40431.412    2756.9405   -43188.352      16.1737   0.94163533 
    7600    219.04207   -883.10865    132857.09   -40509.888    2725.2998   -43235.188     16.22178   0.94005892 
    7700    226.26168   -1015.7027    132784.65   -40414.095    2815.1255   -43229.221    16.302289   0.94057174 
    7800    227.17935   -1120.7402       132692   -40401.137     2826.543    -43227.68    16.500455   0.94122846 
    7900    222.36358   -900.76072    132578.13    -40481.57    2766.6257   -43248.196    16.587612   0.94203691 
    8000     226.6502   -883.31206    132685.62   -40466.997    2819.9594   -43286.956    16.721263   0.94127374 
    8100    222.13555   -730.11616    132651.65   -40559.833    2763.7885   -43323.622    16.813246   0.94151477 
    8200    224.15544     -868.715    132768.28   -40586.156    2788.9198   -43375.076    16.915206   0.94068771 
    8300    223.83833   -933.96923    132601.58   -40585.764    2784.9744   -43370.739    17.102892   0.94187032 
    8400     223.5909   -776.33793     132816.8   -40547.409    2781.8958   -43329.305    17.365509    0.9403441 
    8500    229.25347   -724.04339    132807.19   -40469.731     2852.349    -43322.08    17.616514   0.94041213 
    8600     227.5302   -911.26675    133025.51   -40484.964    2830.9082   -43315.872     17.62778   0.93886875 
    8700    225.95081   -928.82124    133279.15   -40485.733    2811.2576   -43296.991    17.631934   0.93708198 
    8800    218.95924   -799.79417    133137.08   -40531.824    2724.2692   -43256.094    17.595861   0.93808195 
    8900    223.85437   -1012.8561    133156.75   -40638.767    2785.1739   -43423.941    17.559482   0.93794337 
    9000     224.1767   -918.70775    133304.48   -40585.185    2789.1843   -43374.369    17.778925   0.93690394 
    9100    220.61216   -958.02028     133343.7   -40654.437    2744.8347   -43399.271    17.866983   0.93662837 
    9200    224.48774   -859.18225    133102.84   -40566.079    2793.0542   -43359.134    17.859949   0.93832325 
    9300      221.491    -928.4006    133283.26   -40614.921    2755.7691    -43370.69    18.020594   0.93705309 
    9400     223.7496   -827.79885    133293.46    -40571.08    2783.8703    -43354.95    18.112865   0.93698136 
    9500    221.39199   -964.75612     133324.3   -40605.179    2754.5373   -43359.716    18.148595   0.93676466 
    9600    223.58305   -797.64779    133323.75   -40581.304    2781.7982   -43363.102    18.309947    0.9367685 
    9700    227.68067   -858.30264    133451.24   -40518.566    2832.7804   -43351.347    18.277025   0.93587363 
    9800    226.90653   -982.91512    133546.99     -40585.6    2823.1487   -43408.748    18.510996   0.93520256 
    9900    222.21532   -904.31432    133569.13    -40657.69    2764.7811   -43422.471    18.585292   0.93504755 
   10000    222.82652   -751.05801    133728.38   -40663.668    2772.3855   -43436.054    18.717423   0.93393411 
   10100    227.06363   -1034.0518    133658.98   -40648.417    2825.1033    -43473.52    18.839008   0.93441904 
   10200    221.25513   -972.88369    133671.03   -40689.869    2752.8345   -43442.703    18.871299   0.93433479 
   10300    222.12689    -690.1033    133611.21   -40678.056    2763.6808   -43441.736    19.017995   0.93475312 
   10400    225.81233   -828.46942     133538.4   -40621.777    2809.5347   -43431.312    19.233138   0.93526274 
   10500    223.67582   -1034.8729    133588.35   -40583.306    2782.9524   -43366.258    19.416028   0.93491305 
   10600    225.83945   -828.59395    133525.89   -40509.221    2809.8722   -43319.093    19.317174   0.93535039 
   10700    228.68956    -920.9191     133664.5   -40500.023    2845.3329   -43345.355    19.416239   0.93438041 
   10800    227.28978   -869.60225    133629.62   -40479.272    2827.9169   -43307.189     19.47514   0.93462433 
   10900    227.19077   -803.49481    133684.32   -40501.665     2826.685    -43328.35    19.512604   0.93424188 
   11000    228.59822     -984.717    133656.94   -40487.126    2844.1965   -43331.323    19.575367   0.93443326 
   11100    223.58618    -763.8984    133582.05   -40551.426    2781.8371   -43333.263    19.823836   0.93495714 
   11200    224.43531   -860.20613    133523.28   -40544.018    2792.4019    -43336.42     19.97891   0.93536863 
   11300    224.27193   -784.83664    133599.49   -40546.875    2790.3691   -43337.244     20.21802   0.93483511 
   11400    228.51504    -761.6541     133653.4   -40564.121    2843.1615   -43407.282    20.233926     0.934458 
   11500     226.6922   -888.24036    133618.51   -40606.365    2820.4819   -43426.847    20.401652   0.93470205 
   11600     221.3612    -920.7846    133601.43   -40621.166    2754.1541    -43375.32    20.466773   0.93482152 
   11700    227.96345   -903.47681    133646.02   -40523.384    2836.2988   -43359.683    20.442674    0.9345096 
   11800     221.9645   -805.28617     133725.8    -40580.78    2761.6604   -43342.441     20.68027   0.93395209 
   11900    227.88998   -830.58708    133778.03   -40593.907    2835.3846   -43429.292     20.67562   0.93358746 
   12000    226.35843   -903.63214    133730.14     -40601.9    2816.3292    -43418.23    20.803568   0.93392177 
   12100    226.05789   -900.39265    133723.82    -40566.99    2812.5899    -43379.58    20.924066   0.93396589 
   12200    223.38204   -946.81351    133976.92   -40564.282    2779.2972    -43343.58    21.026272   0.93220155 
   12300    223.48677   -793.02919     133823.6   -40574.989    2780.6003   -43355.589    21.186414   0.93326957 
   12400    226.96366   -935.46839    133838.33   -40553.008    2823.8594   -43376.868    21.426712   0.93316684 
   12500     222.5379   -894.09606    133706.55   -40652.712    2768.7945   -43421.506    21.598794   0.93408658 
   12600    224.70854   -1054.0312     133569.5   -40571.946    2795.8014   -43367.747    21.812258   0.93504496 
   12700    228.28555   -673.29182    133619.35   -40535.734    2840.3063    -43376.04    21.778223   0.93469613 
   12800    228.07674   -897.22856    133619.53   -40511.569    2837.7082   -43349.277     21.73235   0.93469487 
   12900    222.71336   -913.94557    133207.14   -40566.332    2770.9776    -43337.31    21.808567   0.93758859 
   13000    229.55783   -795.57794    133205.21   -40509.793    2856.1358   -43365.929    21.877401   0.93760214 
   13100    225.36027   -1042.9528    133335.16   -40526.579    2803.9102   -43330.489    22.210498   0.93668835 
   13200    231.88573   -835.72129    133464.47   -40451.508    2885.0993   -43336.607    22.431685   0.93578084 
   13300     228.9156   -741.39966    133492.84   -40486.369    2848.1453   -43334.515    22.518216   0.93558194 
   13400    225.73884   -719.03205    133489.24    -40566.76    2808.6204    -43375.38    22.397526   0.93560719 
   13500     222.6712    -868.0847    133627.92   -40601.852    2770.4531   -43372.305     22.57577   0.93463621 
   13600    225.39426   -859.39498    133615.89   -40624.039    2804.3331   -43428.372    22.556872   0.93472037 
   13700    224.04499   -870.74566    133677.76   -40628.333    2787.5456   -43415.879    22.750942   0.93428774 
   13800    229.44997   -684.25597    133888.58   -40536.199    2854.7938   -43390.993    22.917621   0.93281662 
   13900    228.48792   -801.26181    133957.55   -40600.117    2842.8241   -43442.941    22.937813   0.93233636 
   14000    225.67995   -936.88545    133994.04   -40579.393    2807.8877    -43387.28    23.093807   0.93208242 
   14100    225.57668   -965.12004    133972.06   -40580.839    2806.6028   -43387.442    23.186622   0.93223536 
   14200    225.99155    -993.3377    133892.66   -40624.493    2811.7645   -43436.258     23.36993   0.93278821 
   14300      225.372   -901.67477    133930.69   -40695.749    2804.0562   -43499.805     23.50074   0.93252329 
   14400    222.51449   -936.70818    133923.15   -40682.324    2768.5033   -43450.827    23.525454   0.93257585 
   14500    223.68581   -835.13898    134056.78    -40636.98    2783.0768   -43420.057     23.46728   0.93164619 
   14600    223.80699   -793.38748    134162.26    -40639.04    2784.5844   -43423.624    23.602406   0.93091372 
   14700    227.10765    -762.2683    134293.82   -40682.162    2825.6509   -43507.813    23.721728   0.93000177 
   14800    223.20916   -960.00615    134161.16   -40731.987    2777.1463   -43509.133    23.805613    0.9309214 
   14900    217.39388   -947.82707    133982.53   -40801.917    2704.7932    -43506.71    23.901468    0.9321625 
   15000    218.01403   -713.55965     134174.9   -40804.885     2712.509   -43517.394    24.056151   0.93082603 
   15100    220.16134   -773.21703    134165.19    -40837.49    2739.2257   -43576.716    24.015377   0.93089341 
   15200    222.14413   -946.51318     134164.5   -40764.993    2763.8953   -43528.888    24.029725   0.93089821 
   15300    222.78303   -913.44909    134175.84   -40766.686    2771.8444    -43538.53    24.202021   0.93081954 
   15400    223.40081   -874.82563    134329.82   -40760.581    2779.5308   -43540.112     24.31628   0.92975253 
   15500    220.87365   -759.90913    134503.43   -40741.314    2748.0882   -43489.402    24.297653   0.92855247 
   15600    225.38078   -913.03931    134552.77   -40675.139    2804.1653   -43479.304    24.479937   0.92821193 
   15700    221.85712   -879.17588    134500.57   -40761.828    2760.3243   -43522.152    24.479729   0.92857224 
   15800    223.49179    -940.6331    134459.32   -40754.829    2780.6627   -43535.491    24.504868   0.92885708 
   15900    223.19833   -860.89379    134406.07   -40792.037    2777.0116   -43569.049    24.368737   0.92922506 
   16000    225.38445   -960.41697    134562.92   -40729.786    2804.2111   -43533.997    24.427418   0.92814196 
   16100    225.85624   -724.39804    134619.96   -40688.248     2810.081   -43498.329    24.430116   0.92774871 
   16200    226.03558   -930.08885    134472.89   -40763.907    2812.3123   -43576.219    24.508997   0.92876337 
   16300     223.5538    -834.6286    134482.76   -40786.324    2781.4343   -43567.758    24.425457   0.92869522 
   16400    228.32695   -942.30719    134541.72   -40680.843    2840.8213   -43521.664    24.575143   0.92828821 
   16500     226.8362   -1140.5582    134456.19   -40679.294    2822.2736   -43501.568    24.704829   0.92887867 
   16600    228.79284   -860.43314    134616.45   -40673.391     2846.618   -43520.009    24.862999   0.92777291 
   16700    226.70675   -927.33039    134797.93   -40713.732     2820.663   -43534.395    24.758391   0.92652383 
   16800    225.97423    -820.0229    134594.49   -40708.189     2811.549   -43519.738     24.78157   0.92792428 
   16900    228.92569   -879.30759    134497.32   -40671.837    2848.2708   -43520.108    24.538929   0.92859462 
   17000    226.65812   -843.74922    134525.57   -40700.913    2820.0579   -43520.971    24.527587   0.92839962 
   17100    233.53052    -923.7879     134577.6   -40630.577    2905.5637   -43536.141    24.776962   0.92804072 
   17200    224.67446   -1104.9612    134546.58    -40659.16    2795.3775   -43454.537    25.101356   0.92825469 
   17300     223.6454   -904.35293    134544.94   -40719.797     2782.574   -43502.371    25.048515   0.92826599 
   17400    225.40812   -880.99983    134706.59   -40744.079    2804.5056   -43548.585    25.161616   0.92715203 
   17500    227.66023    -820.3019    134756.12   -40726.301    2832.5261   -43558.827     25.33221   0.92681129 
   17600    223.04266   -918.11359    134861.46   -40700.117    2775.0747   -43475.192    25.344575   0.92608737 
   17700    228.70778   -871.22788    134835.42   -40731.045    2845.5596   -43576.605    25.289572   0.92626618 
   17800    229.11705   -888.83713    134700.25   -40747.687    2850.6517   -43598.339     25.37528   0.92719569 
   17900    226.90244   -889.09153    134598.59    -40719.61    2823.0977   -43542.708    25.386196   0.92789597 
   18000    230.46039   -852.62526    134799.38   -40672.542    2867.3654   -43539.907    25.554106   0.92651382 
   18100    222.47437   -885.53659    134722.44   -40764.777    2768.0041   -43532.781    25.638401   0.92704297 
   18200    226.75221   -927.80627     134641.3    -40768.53    2821.2286   -43589.758    25.466215   0.92760161 
   18300    225.62245   -992.06507    134504.75   -40679.343    2807.1722   -43486.515    25.452316   0.92854336 
   18400    226.94745   -767.61625    134748.07    -40737.11    2823.6578   -43560.768    25.772453   0.92686662 
   18500    229.81916   -991.10733    135004.46   -40708.617    2859.3873   -43568.004     25.84931   0.92510639 
   18600    222.77991   -939.13353    134836.81   -40776.616    2771.8056   -43548.421    26.002163   0.92625665 
   18700    228.41399   -943.34575    134997.66   -40755.908    2841.9043   -43597.813    26.105698   0.92515303 
   18800     232.2744   -947.30242    134888.91    -40741.35    2889.9351   -43631.285    26.005075   0.92589885 
   18900    227.67398   -937.99439    135027.89    -40792.59    2832.6972   -43625.287    25.910674    0.9249459 
   19000     227.8439   -911.96992    134914.78   -40768.517    2834.8112   -43603.329    26.045133   0.92572134 
   19100    221.80245   -822.86232    134913.23   -40829.232    2759.6441   -43588.876    26.180437   0.92573196 
   19200    223.17878   -938.73839    134897.16   -40796.033    2776.7683   -43572.801    26.231633   0.92584225 
   19300    229.90804   -814.35694    134956.69   -40736.895    2860.4931   -43597.388    26.190923   0.92543383 
   19400    231.41261   -818.97212       134992   -40750.931    2879.2128   -43630.144    26.206178    0.9251918 
   19500    225.06699   -771.75448    134994.76   -40747.038    2800.2612   -43547.299    26.081219   0.92517286 
   19600    222.92086   -792.84831    135148.34   -40780.678    2773.5593   -43554.237    26.231942   0.92412152 
   19700    228.81095   -910.65204    135112.46   -40776.551    2846.8432   -43623.394     26.27074   0.92436691 
   19800    224.76852   -964.46424    134829.28   -40817.646    2796.5477   -43614.193    26.555947   0.92630836 
   19900    225.52324   -909.49356    134866.09   -40820.354    2805.9378   -43626.292    26.757814   0.92605556 
   20000    223.43415   -935.53902    134984.27   -40871.241    2779.9456   -43651.186    26.752921   0.92524477 
   20100    226.26271   -821.21512    134985.17   -40831.352    2815.1383    -43646.49    26.802932    0.9252386 
   20200    226.85294   -889.08874    134964.59   -40902.156    2822.4819   -43724.638    26.758238   0.92537973 
   20300    219.43044   -831.94473    134933.48   -40928.944    2730.1318   -43659.076     26.83171   0.92559307 
   20400    225.41256   -793.16511    135080.81     -40938.7    2804.5608   -43743.261    26.778466   0.92458354 
   20500    219.42425    -916.6036    135052.31   -40914.097    2730.0549   -43644.152    26.629719   0.92477866 
   20600     223.4644   -888.53717     135210.9   -40939.819     2780.322   -43720.141    26.888525   0.92369397 
   20700    225.71127   -958.30779     135289.6   -40872.805    2808.2773   -43681.083    27.177295   0.92315666 
   20800    225.99209   -870.90445    135315.98   -40862.316    2811.7712   -43674.087    27.228668   0.92297669 
   20900    222.22866   -748.90828    135213.84   -40913.434     2764.947   -43678.382    27.054429   0.92367385 
   21000    220.30133   -774.20161    135200.09    -41000.42    2740.9674   -43741.387    27.232485   0.92376783 
   21100    222.42094   -814.53484    135385.63   -40996.746    2767.3394   -43764.086    27.220314   0.92250182 
   21200    222.05397   -832.37421    135397.17    -40964.66    2762.7736   -43727.434    27.136484   0.92242318 
   21300    223.05884   -824.36404    135582.95   -40967.735     2775.276   -43743.011    27.218037   0.92115928 
   21400    224.20809   -1020.8659     135473.8   -40947.368    2789.5748   -43736.943    27.155698   0.92190141 
   21500     222.1026   -1108.2057    135402.46   -40945.147    2763.3785   -43708.525    27.127311   0.92238718 
   21600    227.47121   -977.89129    135259.95   -40898.144    2830.1743   -43728.318    27.002917   0.92335898 
   21700     227.3741   -859.82358    135248.05   -40877.999    2828.9661   -43706.965    27.090387   0.92344022 
   21800    230.96731   -915.48472    135413.99    -40864.72    2873.6724   -43738.393    27.232631   0.92230863 
   21900    222.43208   -933.18821    135241.33    -40882.96    2767.4779   -43650.438    27.309333    0.9234861 
   22000    223.70973   -922.41961    135230.28   -40925.211    2783.3744   -43708.585    27.450744    0.9235616 
   22100    226.45454   -932.29711     135048.7   -40868.404    2817.5251   -43685.929    27.337462   0.92480337 
   22200    224.39085   -808.05252    135113.08   -40888.448    2791.8488   -43680.297    27.387096   0.92436273 
   22300    230.33791   -922.20147     135164.1    -40867.12    2865.8415   -43732.961    27.478414    0.9240138 
   22400     229.7878   -839.59063    135121.82   -40840.651    2858.9971   -43699.649    27.467939   0.92430293 
   22500    224.76782   -957.23565    135166.72   -40857.184     2796.539   -43653.723    27.632527    0.9239959 
   22600    229.98234   -824.86055    135176.85    -40830.15    2861.4175   -43691.568    27.651442   0.92392664 
   22700    224.37601   -970.09124    135051.12   -40838.823    2791.6641   -43630.487    27.833271   0.92478679 
   22800    227.44283    -935.6889     135021.1   -40824.059    2829.8212   -43653.881    27.732959   0.92499239 
   22900    229.37422   -819.53336    134937.62   -40873.396    2853.8513   -43727.247     27.52198   0.92556464 
   23000    226.96145   -856.87627    134962.91   -40846.333    2823.8319   -43670.165    27.489609   0.92539124 
   23100    224.08649   -967.41108    135009.66   -40947.846     2788.062   -43735.908    27.720349   0.92507076 
   23200    226.53301   -988.32497    135048.61    -40882.94    2818.5013   -43701.442    27.843314   0.92480399 
   23300    224.55991   -976.17563    135083.03   -40923.541    2793.9522   -43717.494    27.783949    0.9245683 
   23400    227.82151   -895.59064    135104.02   -40840.249    2834.5327   -43674.782    27.803902   0.92442467 
   23500    222.53105   -899.25537    135099.57    -40855.74    2768.7094   -43624.449    27.903837   0.92445515 
   23600    226.64725   -870.04849    135029.84   -40830.392    2819.9227   -43650.315    27.865414   0.92493255 
   23700    226.16633   -913.00978    135097.63   -40877.586    2813.9392   -43691.526    28.012934   0.92446844 
   23800    221.74167   -818.29318    135188.68   -40936.401    2758.8879   -43695.289    28.126224   0.92384575 
   23900    219.91549   -968.49487    134876.78   -40946.255    2736.1668   -43682.421    28.243925   0.92598217 
   24000    225.46597   -974.13904    134921.17   -40860.948    2805.2253   -43666.173    28.089645   0.92567748 
   24100    222.70959   -886.81161    134730.85   -40867.224    2770.9308   -43638.155    28.284599    0.9269851 
   24200    222.42098   -900.30528    134903.86   -40924.376    2767.3398   -43691.716    28.497416   0.92579625 
   24300    217.90211    -941.0072    134698.75   -40904.377    2711.1165   -43615.493    28.673879   0.92720599 
   24400    222.18149   -921.28492    134771.36   -40928.567    2764.3601   -43692.928    28.572606   0.92670646 
   24500    223.25972   -1041.8327    134693.34   -40869.411    2777.7754   -43647.187    28.494217   0.92724323 
   24600    223.86754   -753.07994    134863.29   -40841.748    2785.3378   -43627.086    28.551307   0.92607477 
   24700     225.6053   -864.54651    134882.57   -40858.337    2806.9589   -43665.296    28.707255   0.92594239 
   24800    220.03296   -1107.5185    134609.59   -40866.462    2737.6283   -43604.091    28.982623   0.92782018 
   24900    224.49959   -794.18966    134598.76   -40818.189    2793.2017   -43611.391    28.798514   0.92789484 
   25000    228.29861   -897.71307    134750.32   -40794.655    2840.4687   -43635.123    28.888775   0.92685118 
   25100    224.56668   -921.08954    134720.66   -40807.813    2794.0365   -43601.849    28.820064   0.92705522 
   25200    221.77842   -792.72292    134816.16   -40845.394    2759.3451   -43604.739    28.999074   0.92639849 
   25300    223.62855   -949.96585    134917.65   -40839.278    2782.3643   -43621.642    29.028939   0.92570165 
   25400    225.58916   -998.23339    134929.12    -40840.08     2806.758   -43646.838    28.852689   0.92562298 
   25500     222.9505   -895.18417    134772.38   -40796.481    2773.9281   -43570.409    28.897268   0.92669942 
   25600    222.51384   -987.68808    134711.92   -40878.079    2768.4952   -43646.574    29.018575   0.92711537 
   25700    224.26665   -899.96805    134805.72   -40895.275    2790.3035   -43685.578    29.274214   0.92647026 
   25800    225.07038   -810.55238    135068.46   -40869.473    2800.3035   -43669.776    29.350153   0.92466804 
   25900    224.99727   -996.82044     135097.1    -40817.22    2799.3938   -43616.614    29.448743   0.92447204 
   26000    225.01938   -939.42972    134919.52   -40759.388    2799.6689   -43559.057    29.492183   0.92568879 
   26100    227.40652   -892.96396    134907.82     -40838.6    2829.3694    -43667.97    29.503688   0.92576908 
   26200    227.64031   -814.49993    135088.74   -40842.931    2832.2783   -43675.209    29.548088   0.92452925 
   26300    222.30089    -843.5235    135097.76   -40818.348    2765.8457   -43584.194    29.531293    0.9244675 
   26400    226.64013   -860.77122    135036.05   -40806.112    2819.8341   -43625.946    29.933271   0.92489002 
   26500    223.68084   -902.70947    135000.68   -40863.693    2783.0149   -43646.708    29.984269   0.92513234 
   26600    223.54982    -976.4794    134960.12   -40916.789    2781.3848   -43698.174    29.875289   0.92541034 
   26700     219.7556   -1023.7025    135085.36   -40941.912    2734.1775   -43676.089    30.112828   0.92455237 
   26800    227.47191   -825.33646    135096.39    -40869.45     2830.183   -43699.633    30.129731    0.9244769 
   26900    225.41129   -796.40983    134988.36   -40878.897    2804.5449   -43683.442    30.119243   0.92521676 
   27000    227.69706   -1035.7258     135176.8   -40923.063    2832.9843   -43756.048    30.175126   0.92392697 
   27100    224.06241   -700.19178    135293.16   -40919.249    2787.7624   -43707.011    30.042725   0.92313237 
   27200    220.05856   -872.24262    135147.34    -40934.25    2737.9468   -43672.196    30.111101   0.92412837 
   27300    222.82173   -922.60219    135248.02   -40964.428    2772.3259   -43736.754    30.328412   0.92344042 
   27400    226.42217   -919.43877     135365.2   -40919.586    2817.1222   -43736.708    30.437254   0.92264106 
   27500     228.8447    -874.1847    135417.02   -40858.614    2847.2631   -43705.877     30.64903   0.92228798 
   27600    223.88063    -860.1089    135277.48   -40881.924    2785.5006   -43667.424    30.720626   0.92323935 
   27700    221.28493   -928.99632    135301.72   -40880.368    2753.2052   -43633.573    30.730605   0.92307393 
   27800    230.82316   -955.55982    135418.18   -40820.431     2871.879    -43692.31    30.693599    0.9222801 
   27900    225.13608   -937.00251    135165.67   -40856.534    2801.1209   -43657.654    30.572256   0.92400308 
   28000    224.91157   -969.57222    135165.43   -40898.046    2798.3275   -43696.373    30.580769   0.92400468 
   28100    226.65439   -965.48083    135115.27   -40884.549    2820.0115    -43704.56    30.650976   0.92434774 
   28200    228.73869   -836.01654     134968.9    -40928.15    2845.9441   -43774.094    30.797872   0.92535016 
   28300    225.26778   -858.92431    134949.45   -40908.476    2802.7595   -43711.236    30.975534    0.9254835 
   28400    222.13688   -851.63228    134950.27   -40945.108    2763.8051   -43708.913    30.881394   0.92547787 
   28500    221.26165   -987.62006    135183.29   -40958.547    2752.9156   -43711.462    30.881681   0.92388264 
   28600    223.11293   -797.45238    135107.59   -40918.735     2775.949   -43694.684    30.979086   0.92440029 
   28700    223.27819   -918.42939    135245.46   -40916.732    2778.0052   -43694.737    31.173304    0.9234579 
   28800    225.75528    -971.9897     135038.6   -40880.779    2808.8249   -43689.604    31.213149    0.9248725 
   28900    228.51587   -899.68724    134993.15   -40845.875    2843.1719   -43689.047    31.273665    0.9251839 
   29000    225.26231   -917.24459    134845.77    -40929.09    2802.6914   -43731.781    31.290033    0.9261951 
   29100    226.59616   -951.98804    134784.04   -40861.086    2819.2871   -43680.373    31.335711   0.92661927 
   29200    226.75023   -1038.8726    134685.03   -40831.953    2821.2039   -43653.157    31.363065   0.92730047 
   29300    221.90297   -801.47821    134959.58   -40890.372    2760.8949   -43651.267    31.470719   0.92541405 
   29400    221.71703     -850.603    135060.67    -40951.43    2758.5814   -43710.012    31.485669    0.9247214 
   29500    222.06145   -946.63414    135122.17    -40976.53    2762.8666   -43739.397    31.477778   0.92430055 
   29600    226.38427   -789.09994    135029.31   -40885.693    2816.6508   -43702.344    31.631667   0.92493616 
   29700    219.02106   -913.20847    135121.38   -40923.647    2725.0384   -43648.685     31.64303   0.92430594 
   29800     225.6238   -805.87901    135153.62   -40899.194     2807.189   -43706.383    31.492265   0.92408546 
   29900    223.52689   -985.59146    135197.31   -40935.798    2781.0994   -43716.897    31.670317   0.92378682 
   30000    225.10738   -920.53269     135111.3   -40898.689    2800.7637   -43699.453    31.833757   0.92437487 
   30100    225.20489   -771.07382    135256.51   -40892.948     2801.977   -43694.925    32.008697   0.92338249 
   30200    224.43063   -738.64165    135195.84    -40907.63    2792.3437   -43699.974    31.931416   0.92379687 
   30300     228.3801   -879.65166     135220.8   -40879.373    2841.4826   -43720.856    31.827203    0.9236263 
   30400    225.37549   -984.55481    135025.11   -40865.606    2804.0996   -43669.706    31.867557   0.92496491 
   30500    227.80678   -859.29301    134919.41   -40858.263    2834.3494   -43692.613    32.008771   0.92568955 
   30600    224.48524   -893.43715     134915.2   -40839.705    2793.0231   -43632.728    31.945395   0.92571849 
   30700    221.26722   -1034.5759    134991.97   -40838.104    2752.9848   -43591.089    32.038057   0.92519198 
   30800     227.0058   -771.00292    135003.01   -40781.658    2824.3838   -43606.042    32.222601   0.92511632 
   30900    224.34595   -971.79096    135017.22   -40913.609    2791.2901   -43704.899    32.184542     0.925019 
   31000    218.60523   -1043.7085    135042.79   -40957.168    2719.8647   -43677.033    32.304185   0.92484386 
   31100    220.34175   -859.89203     134815.5   -40958.585    2741.4703   -43700.055    32.293836   0.92640305 
   31200    225.42254   -1001.2637    134842.54   -40975.374     2804.685   -43780.059     32.42003   0.92621731 
   31300    223.09295   -720.84492     134727.5   -40936.677    2775.7005   -43712.378    32.504925   0.92700819 
   31400    224.36754    -839.6881    134825.18   -40895.193    2791.5588   -43686.752    32.568735   0.92633651 
   31500    224.86582   -893.55563    134935.18   -40948.968    2797.7583   -43746.726    32.701815   0.92558141 
   31600    227.52922   -898.13354    134974.47   -40871.809    2830.8961   -43702.705    32.516006   0.92531195 
   31700    227.60707   -992.43755    134827.95   -40906.673    2831.8646   -43738.538    32.604903   0.92631751 
   31800    227.56076   -819.12564    134782.42   -40833.949    2831.2885   -43665.238     32.58333   0.92663045 
   31900      227.168   -902.15293    134797.25   -40823.445    2826.4018   -43649.847    32.558504    0.9265285 
   32000    226.90049     -957.014    134862.97   -40815.533    2823.0734   -43638.606    32.578752     0.926077 
   32100    225.72567   -1072.9925    134920.32   -40837.313    2808.4564    -43645.77    32.667382   0.92568333 
   32200    224.98652   -952.52673    134872.07   -40832.169      2799.26   -43631.429    32.668411   0.92601452 
   32300    231.65754   -917.12734    134927.85   -40819.648    2882.2602   -43701.908    32.728944   0.92563168 
   32400    226.16958   -889.88612    134922.88   -40881.816    2813.9795   -43695.795     32.75482    0.9256658 
   32500    225.10927   -731.90314    135051.55   -40887.297    2800.7873   -43688.085    32.780837   0.92478384 
   32600    225.09512    -850.5186    134910.45   -40839.728    2800.6113    -43640.34    32.996252   0.92575107 
   32700    227.32549   -969.36367    134921.03   -40914.529    2828.3613   -43742.891    32.964563   0.92567846 
   32800    222.17163    -695.0094    135005.66   -40957.309    2764.2374   -43721.547    33.033693   0.92509816 
   32900     221.0298   -1026.3925    134843.58   -40961.816    2750.0309   -43711.847    33.120294   0.92621015 
   33000    218.98572   -815.94445    134817.85   -41005.172    2724.5987    -43729.77    32.976764   0.92638694 
   33100    225.11767   -920.57707    134765.74   -40927.987    2800.8918   -43728.879    33.213195   0.92674513 
   33200    223.94098    -982.9214    134697.05   -40966.724    2786.2515   -43752.976    33.473128    0.9272177 
   33300    224.18059   -912.53484     134622.1   -40885.544    2789.2327   -43674.776    33.315706   0.92773392 
   33400    224.06038   -891.47699    134777.28   -40974.506    2787.7371   -43762.243    33.295976   0.92666578 
   33500    224.08119   -904.27446    134807.87    -40931.88     2787.996   -43719.877     33.45772   0.92645549 
   33600    222.83776   -967.26223    134854.31   -40899.128    2772.5254   -43671.654    33.498543   0.92613643 
   33700    225.54407   -914.88632    134859.19    -40886.24     2806.197   -43692.437    33.416359   0.92610295 
   33800    226.63207   -1051.9679    134803.99   -40884.037    2819.7338   -43703.771    33.569552   0.92648215 
   33900    222.26769   -1004.4469    134995.39    -40886.33    2765.4326   -43651.763    33.849053   0.92516858 
   34000    226.80931   -1051.2867    134918.99   -40845.219    2821.9391   -43667.158    34.088275   0.92569248 
   34100    226.96832   -868.72065    134753.62   -40867.863    2823.9174    -43691.78    33.882801    0.9268285 
   34200    224.16195   -868.30487    134932.82   -40852.621    2789.0008   -43641.621    33.837801   0.92559758 
   34300     219.2126   -867.98701    134753.25   -40886.093    2727.4215   -43613.514    33.894799   0.92683099 
   34400    223.96437   -1097.5943    134784.63   -40806.676    2786.5425   -43593.218    34.027157   0.92661526 
   34500    223.47075   -936.38648    134820.61   -40827.916    2780.4009   -43608.317    34.267984   0.92636797 
   34600    226.76795   -878.74069    134784.51   -40809.688    2821.4244   -43631.113    34.029479   0.92661608 
   34700     220.0896   -959.40734    134790.25   -40895.319    2738.3331   -43633.652    34.247477   0.92657657 
   34800    218.63852   -926.83892    134757.83   -40873.676    2720.2789   -43593.955    34.304469   0.92679949 
   34900    227.21409   -901.81374    134732.54   -40890.164    2826.9753   -43717.139    34.435454   0.92697347 
   35000    220.62514   -872.69707    134657.85    -40967.01    2744.9962   -43712.006    34.470698   0.92748762 
   35100    223.37777   -870.18378    134683.68   -40902.874    2779.2441   -43682.118    34.513416   0.92730975 
   35200     224.9239   -792.29639    134781.52    -40898.83    2798.4809   -43697.311     34.56685    0.9266366 
   35300    222.75177   -1128.3436    134927.83   -40885.109    2771.4554   -43656.564      34.4705   0.92563181 
   35400    221.43729   -962.91796    134806.55   -40902.414    2755.1008   -43657.515    34.257192   0.92646456 
   35500    224.79732   -866.54775    134789.07   -40803.403     2796.906   -43600.309    34.297518   0.92658472 
   35600    224.99793   -899.56413    134989.69   -40857.508    2799.4019    -43656.91    34.617542   0.92520761 
   35700    227.47206   -917.57798     134812.1   -40819.209    2830.1849   -43649.394    34.639292   0.92642641 
   35800    223.22509   -790.66242     134755.9   -40857.274    2777.3446   -43634.619    34.600668   0.92681279 
   35900    227.47348     -944.616    134890.59   -40810.757    2830.2026   -43640.959    34.762559   0.92588736 
   36000    229.64356   -774.04135    135152.09   -40789.675    2857.2024   -43646.877    34.932498   0.92409586 
   36100    225.59769    -857.3934    135245.54   -40807.704    2806.8641   -43614.568    34.987612   0.92345736 
   36200    224.72682   -805.98086    135284.09   -40845.465    2796.0288   -43641.494    35.280795   0.92319421 
   36300    222.11061    -988.7987    135034.18   -40907.741    2763.4782   -43671.219    35.303319   0.92490283 
   36400     223.5186   -997.23408    135007.28    -40858.19    2780.9963   -43639.186    35.249055   0.92508711 
   36500    222.86317   -762.42237    135134.89   -40831.938    2772.8416   -43604.779    35.352015   0.92421353 
   36600     218.4368    -996.9998    134941.19   -40970.054     2717.769   -43687.823    35.273648   0.92554013 
   36700    223.39933   -792.91452     134823.9    -40917.36    2779.5124   -43696.872    35.290078   0.92634531 
   36800    224.60393   -1000.4967    135143.47   -40900.006    2794.4998   -43694.506    35.272526   0.92415482 
   36900    224.90794   -892.04497    135006.89   -40942.318    2798.2824   -43740.601    35.440559   0.92508973 
   37000    225.80873   -903.03023    135081.15   -40882.232    2809.4899   -43691.722    35.225917   0.92458121 
   37100    226.95075   -959.89259    135002.51   -40880.699    2823.6988   -43704.398    35.370195   0.92511977 
   37200    225.74946   -971.16158    134959.27   -40951.441    2808.7525   -43760.194    35.521006   0.92541618 
   37300    222.37676   -826.43809    134982.85   -40958.255    2766.7897   -43725.045    35.634586   0.92525451 
   37400    225.08633   -870.06131    135128.37   -40994.335    2800.5019   -43794.837    35.823587   0.92425808 
   37500    221.60379   -973.65675    135166.93   -41007.198    2757.1724   -43764.371    35.739364   0.92399442 
   37600     225.8424   -883.68083     135027.8   -40968.017    2809.9089   -43777.926      35.6099   0.92494653 
   37700    224.43787   -1001.0125    135019.46   -40963.014    2792.4337   -43755.448     35.68472   0.92500366 
   37800    219.85349   -946.33584    134907.25    -41062.98    2735.3954   -43798.376    35.692074   0.92577304 
   37900     221.5363   -1008.8328    134918.76   -41027.708    2756.3327   -43784.041    35.775816   0.92569401 
   38000    222.52552   -984.55802    134886.16   -41004.452    2768.6406   -43773.093    35.894799   0.92591773 
   38100    226.15955   -1009.3118    134897.62    -40953.59    2813.8547   -43767.445    35.716366   0.92583907 
   38200    223.20858   -946.91602    134900.17   -40968.776     2777.139   -43745.915     35.72569    0.9258216 
   38300    227.90454   -967.33562    134968.62   -40910.047    2835.5658   -43745.613    35.858209   0.92535203 
   38400    224.39736   -936.11569    134818.03   -40970.321    2791.9297   -43762.251     35.82084   0.92638569 
   38500    223.63608   -921.86437    135092.42   -40975.483     2782.458   -43757.941    36.152817   0.92450409 
   38600    227.68699   -877.47768    135142.42   -40928.239     2832.859   -43761.098     36.14403     0.924162 
   38700    225.60097   -944.05251     135201.3   -40932.862     2806.905   -43739.767    36.299143   0.92375954 
   38800    228.80688    -1029.368    135050.93   -40964.745    2846.7926   -43811.537     36.59173    0.9247881 
   38900    226.77724   -1066.2056    135039.67   -40936.118      2821.54   -43757.658    36.644096   0.92486519 
   39000    225.17383   -963.44714    134951.35   -40988.818    2801.5906   -43790.409    36.471875    0.9254705 
   39100    228.23646   -984.86735    135051.27   -40954.867    2839.6955   -43794.562    36.539462   0.92478577 
   39200    225.09689   -986.57365     135187.7   -40993.561    2800.6333   -43794.194    36.507805   0.92385245 
   39300     223.8445   -1037.6206    135096.43   -40985.849    2785.0511     -43770.9    36.443534   0.92447665 
   39400    224.33705   -962.24687    135237.69   -40948.438    2791.1794   -43739.617    36.726519   0.92351099 
   39500    233.59222   -966.10223    135363.71   -40948.779    2906.3314    -43855.11    36.596813   0.92265118 
   39600     226.5338   -966.95113    135195.31   -41006.614    2818.5111   -43825.125    36.471156   0.92380045 
   39700    223.82969   -881.12059    135345.31   -40963.613    2784.8668    -43748.48    36.450185   0.92277663 
   39800    225.21275   -912.00056    135496.15   -41041.233    2802.0748   -43843.308    36.274189   0.92174935 
   39900    223.24362   -940.57737    135428.89   -41090.057    2777.5751   -43867.632    36.364476   0.92220712 
   40000    221.58977   -920.60068    135390.69   -41122.613     2756.998   -43879.612    36.552876   0.92246737 
   40100    226.81347   -788.24745    135374.51    -41036.73    2821.9908   -43858.721    36.873001   0.92257763 
   40200    228.89919   -870.62185    135306.42   -41060.409    2847.9411   -43908.351    36.877715    0.9230419 
   40300    227.01129   -920.49971    135300.95   -41038.871     2824.452   -43863.323    36.807448   0.92307916 
   40400    226.91255   -943.46482     135263.5   -40942.556    2823.2236    -43765.78    36.847518   0.92333475 
   40500    228.33212    -1016.017    135145.29   -40958.091    2840.8857   -43798.977    36.871801   0.92414237 
   40600     223.7841   -892.91087    135142.31    -40989.31    2784.2997    -43773.61    36.909182   0.92416277 
   40700     225.7145   -999.87427    135043.37   -41021.657    2808.3175   -43829.975    37.164567   0.92483985 
   40800    221.43765   -1086.0205    135167.29   -41064.829    2755.1053   -43819.935    37.119395   0.92399197 
   40900    220.16725   -891.92773    134908.85   -41095.691    2739.2991    -43834.99    37.088615   0.92576204 
   41000    221.70709   -878.39966    135025.16   -41007.448    2758.4577   -43765.905    37.017621   0.92496458 
   41100    227.62345    -1005.196    135083.94   -40985.113    2832.0684   -43817.181     37.09932   0.92456207 
   41200    223.00913   -936.10993     134925.5   -41007.173    2774.6575   -43781.831    37.028377   0.92564781 
   41300     220.4306   -916.22814    134999.36    -41156.24    2742.5757   -43898.815    37.204691   0.92514138 
   41400     221.8032   -680.18153    135269.54   -41090.973    2759.6535   -43850.626    37.379879   0.92329354 
   41500    224.11558   -833.52032    135515.25   -41083.232    2788.4239   -43871.656    37.627061   0.92161946 
   41600    224.38342   -895.24171    135595.18   -41047.899    2791.7564   -43839.656    37.371513    0.9210762 
   41700    222.71848   -910.10875    135650.71   -41032.385    2771.0413   -43803.426    37.408612   0.92069913 
   41800    222.00556   -912.02017    135654.41   -41053.772    2762.1712   -43815.943    37.506354   0.92067403 
   41900    228.49547    -847.1247    135465.26   -41029.964     2842.918   -43872.882    37.688527   0.92195955 
   42000    222.12216   -891.28077    135350.77   -41023.883     2763.622   -43787.505     37.80285    0.9227394 
   42100    221.75064   -949.20091    135404.21   -41021.604    2758.9996   -43780.603    37.845428   0.92237526 
   42200     224.6329   -928.72238    135440.16   -40963.119    2794.8603    -43757.98    37.877543   0.92213041 
   42300    227.80102   -963.94414    135546.37    -40938.24    2834.2778   -43772.518    37.809324   0.92140784 
   42400    225.77377   -871.39653    135543.14   -40981.904    2809.0549   -43790.959    37.699811   0.92142981 
   42500     229.0491   -861.25716    135547.86   -40980.407    2849.8062   -43830.213    37.874868   0.92139774 
   42600    226.08397   -971.97763    135587.19   -40984.861    2812.9144   -43797.776     38.06968   0.92113044 
   42700     225.1974   -842.50788    135417.19   -41004.023    2801.8838   -43805.907    37.986622   0.92228681 
   42800     228.7378   -914.55703    135351.75   -40952.243    2845.9331   -43798.176    37.944467   0.92273275 
   42900    224.95905   -890.11186    135268.34   -41041.427    2798.9182   -43840.346    37.946264   0.92330172 
   43000    224.68457   -859.92119    135264.37   -41079.265    2795.5033   -43874.768    37.960252   0.92332884 
   43100    224.34878    -900.8992    135362.65   -41064.488    2791.3254   -43855.813    37.990885   0.92265844 
   43200    224.66033   -977.20333    135393.15   -41019.442    2795.2016   -43814.643    38.057788    0.9224506 
   43300    223.35854   -995.05124    135372.38   -41025.459    2779.0049   -43804.464    37.961384   0.92259214 
   43400    224.01603   -867.54361    135401.02   -40976.992    2787.1853   -43764.177    38.055593   0.92239695 
   43500    224.54794   -885.43811     135426.5   -40990.668    2793.8032   -43784.471     38.06883    0.9222234 
   43600    227.97664   -871.52802    135273.74   -40896.279    2836.4628   -43732.742    38.085937   0.92326488 
   43700    224.32967   -1047.6867    135215.26   -40923.238    2791.0875   -43714.326    38.277517   0.92366417 
   43800    225.41017   -900.08974    135215.61   -40920.153     2804.531   -43724.684    38.261409   0.92366177 
   43900    228.61796   -813.82256    135240.38   -40957.985     2844.442   -43802.427    38.404359   0.92349261 
   44000    225.88471   -891.55403    135253.35   -41003.985    2810.4352    -43814.42    38.313769   0.92340408 
   44100     224.1988    -1004.564    135249.21    -41028.18    2789.4593   -43817.639     38.33742   0.92343231 
   44200    223.52161   -975.79725       135202   -41073.328    2781.0337   -43854.362    38.494617   0.92375473 
   44300    220.27941   -844.35677    135186.03   -41079.866    2740.6946    -43820.56    38.607268   0.92386391 
   44400    227.03678   -868.87549    135101.71   -41054.255    2824.7692   -43879.024    38.657655    0.9244405 
   44500     225.0268    -827.9666    135147.84   -41074.346    2799.7612   -43874.107    38.741486   0.92412495 
   44600     218.6461   -809.64046    135201.38    -41142.38    2720.3732   -43862.753    38.482672   0.92375903 
   44700    224.80733   -913.26182    135242.89   -41110.951    2797.0306   -43907.981    38.584887   0.92347546 
   44800    223.42714   -953.69433    135148.06   -41083.107    2779.8584   -43862.966    38.448206   0.92412348 
   44900    225.47848   -988.73747    135120.44   -41020.316    2805.3809   -43825.697    38.459527   0.92431237 
   45000    223.43559   -888.46058    135153.75    -41008.22    2779.9635   -43788.184    38.510055   0.92408454 
   45100    227.57604   -958.01549    135095.91   -40951.961    2831.4785    -43783.44    38.654052   0.92448021 
   45200    221.07152   -1011.3277    135096.65   -40998.712      2750.55   -43749.262    38.956492   0.92447509 
   45300    224.57479   -881.24188    135189.48   -40996.816    2794.1373   -43790.953    38.962904   0.92384034 
   45400    227.37343   -800.12215    135124.52   -40977.369    2828.9578   -43806.327    38.965936   0.92428441 
   45500     224.3955   -876.43835     135225.8    -40988.44    2791.9066   -43780.347    38.931911   0.92359219 
   45600    226.51394   -794.52255    135245.42   -40981.243    2818.2641   -43799.507    38.915011    0.9234582 
   45700    218.72827   -911.61613    135338.31   -40976.038    2721.3955   -43697.434    38.765934   0.92282438 
   45800    233.03305   -953.10326    135414.55   -40922.331    2899.3741   -43821.705    38.923526   0.92230479 
   45900    229.14643    -886.1776    135124.26   -40852.195    2851.0172   -43703.212    38.877588   0.92428619 
   46000    228.50215   -895.09429    135273.08   -40829.959    2843.0012    -43672.96    38.889958   0.92326936 
   46100    231.68462   -933.50298    135134.33   -40785.808    2882.5972   -43668.405    38.840426   0.92421735 
   46200    230.22319   -940.85643    135192.33   -40772.335    2864.4142   -43636.749    39.138866   0.92382086 
   46300    227.98918   -830.65064    135209.22   -40795.549    2836.6188   -43632.168    39.132958   0.92370545 
   46400    228.24585   -823.67483    135236.01   -40830.537    2839.8123   -43670.349    39.295692   0.92352242 
   46500    229.36305   -844.05672    135258.06   -40853.169    2853.7124   -43706.881    39.397411    0.9233719 
   46600    229.01013   -811.46886    135327.86    -40839.46    2849.3214   -43688.782    39.393909   0.92289563 
   46700    225.19673   -912.89545    135303.04   -40935.118    2801.8755   -43736.994    39.508402   0.92306496 
   46800    222.65626   -903.43193    135237.61   -41002.314    2770.2672   -43772.581    39.484042   0.92351149 
   46900    227.37634   -821.76345    135154.42   -40930.367     2828.994   -43759.361    39.505616   0.92407993 
   47000    227.66307   -1003.2375    135188.67   -40916.767    2832.5614   -43749.329    39.483241   0.92384582 
   47100    228.53092   -874.04845    135351.79   -40882.482    2843.3592   -43725.841    39.742589   0.92273244 
   47200    222.37983   -1002.7502     135191.7    -40932.46    2766.8279   -43699.288    39.649406   0.92382513 
   47300     225.4905   -883.25779    135102.12   -40966.216    2805.5305   -43771.747    39.655647   0.92443772 
   47400    221.09256   -931.06637    135093.57   -40913.291    2750.8118   -43664.102    39.617185   0.92449618 
   47500    228.63981   -1016.7043    135032.89   -40852.166    2844.7139    -43696.88     39.68395   0.92491161 
   47600    230.90199   -902.53375    134912.87   -40812.534    2872.8597   -43685.393    39.818002   0.92573445 
   47700    231.38978   -963.14703    135047.24   -40867.118    2878.9288   -43746.047    39.880079   0.92481335 
   47800     231.6314   -900.84118    135082.99   -40892.573     2881.935   -43774.508    39.677224   0.92456857 
   47900    222.79307   -848.83986     135180.6   -40985.743    2771.9693   -43757.713    39.575821   0.92390097 
   48000    223.42224   -969.74617    135049.95   -41005.973    2779.7974   -43785.771    39.724463   0.92479482 
   48100    225.04271   -1066.1931     135096.5   -40974.727    2799.9592   -43774.686     39.98276   0.92447617 
   48200     222.8557   -860.50536    135042.81   -41007.855    2772.7486   -43780.604    40.127492   0.92484372 
   48300    220.92816   -930.81051    134886.79   -40989.714    2748.7664   -43738.481     39.93145   0.92591345 
   48400     230.3866   -860.72912    134982.79   -40899.237    2866.4473   -43765.684    40.024131   0.92525494 
   48500    225.03392   -857.75903    134819.63   -40965.453    2799.8498   -43765.303     40.26844   0.92637465 
   48600    222.26847   -959.36256    134802.56   -40961.173    2765.4424   -43726.615    40.379468     0.926492 
   48700    225.59546   -887.15792     134703.3    -40916.88    2806.8365   -43723.716     40.49288    0.9271747 
   48800    226.43209   -869.74316    134758.21   -40945.162    2817.2457   -43762.407    40.336142   0.92679687 
   48900    225.38147   -821.02791    134906.83   -40931.064    2804.1739   -43735.238    40.287932   0.92577591 
   49000    224.54773   -877.52544    134935.69   -40978.144    2793.8007   -43771.945    40.336247    0.9255779 
   49100    224.14965    -894.2493    134903.41   -40973.838    2788.8478   -43762.685    40.820036   0.92579938 
   49200    224.53297   -884.02621    134839.99   -40992.942     2793.617   -43786.559    40.821096   0.92623479 
   49300    226.68561   -786.68341     134728.1   -40940.601    2820.3999   -43761.001    40.736974   0.92700402 
   49400    224.62958   -999.82018    134816.32   -40910.838    2794.8191   -43705.657     40.88293   0.92639742 
   49500     227.4951   -833.59349    134805.62   -40938.253    2830.4715   -43768.724    40.785447   0.92647095 
   49600     225.4315    -993.4823    134532.23    -40950.46    2804.7964   -43755.256    40.813791   0.92835366 
   49700    224.03592   -754.46569    134716.96   -40963.347    2787.4328    -43750.78    40.829259   0.92708066 
   49800    220.01178   -740.41762    134738.02   -41009.232    2737.3648   -43746.597    41.089334   0.92693575 
   49900    226.29865   -851.96467    134852.68   -40891.026    2815.5855   -43706.611    41.217939   0.92614767 
   50000    229.32547   -898.37064    134740.68   -40933.671    2853.2448   -43786.916     41.00445   0.92691751 
   50100    224.61104   -927.53113    134773.13   -40948.445    2794.5884   -43743.034     41.12269   0.92669431 
   50200    224.06636   -857.81795    134773.46   -40988.046    2787.8115   -43775.858    41.212604   0.92669201 
   50300    226.46682   -878.12379    134737.64   -40953.078    2817.6778   -43770.756    41.404796   0.92693839 
   50400    224.05081   -910.69239     134776.3   -40968.932    2787.6181    -43756.55    41.179456   0.92667247 
   50500    222.34564   -977.35724    134747.04   -41008.363    2766.4025   -43774.766    41.259401   0.92687376 
   50600    222.60649   -828.85449    134920.03   -41028.587    2769.6479   -43798.235    41.412454    0.9256853 
   50700    221.24579   -952.50925    134955.43   -41034.625    2752.7183   -43787.343    41.486215   0.92544252 
   50800    223.95886   -921.35801    134870.94   -41024.269    2786.4739   -43810.743    41.687891   0.92602226 
   50900    230.27396   -933.51999     134902.1   -40928.584    2865.0459    -43793.63    41.650305   0.92580836 
   51000    222.42563   -929.01953    134932.62   -40966.956    2767.3977   -43734.354     41.80535   0.92559894 
   51100    225.87665   -940.86181    135101.72   -41007.455    2810.3349    -43817.79    41.956941    0.9244404 
   51200     225.5881   -1034.3922    135211.47   -40993.574    2806.7449   -43800.318    42.030193   0.92369007 
   51300    223.79395   -744.84684    135130.27   -41051.652    2784.4222   -43836.074    41.855312   0.92424511 
   51400    219.29784   -865.70373    135213.39   -41050.239    2728.4821   -43778.721    42.021878   0.92367693 
   51500    223.90514   -852.40172    135334.63   -41053.534    2785.8056   -43839.339    41.876525   0.92284947 
   51600    223.42237   -985.13915    135254.72   -41012.356     2779.799   -43792.155    42.171583   0.92339471 
   51700    223.57284    -903.8352    135171.04   -41010.091    2781.6711   -43791.762    42.259122   0.92396635 
   51800    223.53455   -787.34894    135295.55   -41042.223    2781.1948   -43823.417    42.261408   0.92311602 
   51900    224.85834   -892.97112    135203.44    -41079.62    2797.6652   -43877.285    42.291273   0.92374491 
   52000    223.00839   -906.40294    135255.44   -41103.559    2774.6483   -43878.207    42.650354   0.92338978 
   52100    219.67879   -978.89959    135284.48   -41046.464    2733.2218   -43779.685    42.508264   0.92319155 
   52200    221.14917   -998.43233    135075.62   -41063.025    2751.5161   -43814.541    42.562256   0.92461903 
   52300     224.6409   -927.89409    135177.27   -41034.461    2794.9599   -43829.421    42.639756   0.92392373 
   52400    221.67836   -1090.5021    134985.82   -40968.656    2758.1002   -43726.756    42.674433   0.92523414 
   52500    223.72924   -914.48237    135060.38   -40955.182     2783.617   -43738.799    42.655544   0.92472339 
   52600    227.30187   -1076.7012    134953.22   -40978.565    2828.0674   -43806.633    42.340586   0.92545768 
   52700    226.65442   -957.61821     134869.3   -41008.155    2820.0118   -43828.167    42.345077    0.9260335 
   52800    226.47883    -952.5807    134858.19   -40964.613    2817.8272    -43782.44    42.678941   0.92610978 
   52900    223.72806   -932.36939    134850.28   -40959.283    2783.6025   -43742.886    42.678719   0.92616414 
   53000    224.14209   -971.42641    134879.79   -40931.942    2788.7537   -43720.696    42.946241   0.92596149 
   53100    225.38797   -867.97134    135000.79   -40971.772    2804.2548   -43776.026    43.144598   0.92513156 
   53200    224.68469    -980.4636    134819.98   -40976.462    2795.5047   -43771.967    43.163432   0.92637229 
   53300    226.47043   -1058.9417    134787.94   -40965.093    2817.7227   -43782.816    43.021419    0.9265925 
   53400    222.65019    -989.5046    134747.44   -41049.078    2770.1917    -43819.27    42.968514   0.92687096 
   53500    221.08781    -827.7958    134578.94   -41056.043    2750.7527   -43806.795    42.811427   0.92803144 
   53600    221.02925   -899.93418    134726.48   -41050.717    2750.0241   -43800.741     42.96382   0.92701517 
   53700    223.83213   -857.56147    134795.78   -41074.467    2784.8972   -43859.364    43.140499   0.92653856 
   53800     227.0198   -801.62904    134787.15   -40960.828    2824.5579   -43785.386    43.106363   0.92659794 
   53900    223.77402   -1009.0731    134891.18   -41006.889    2784.1742   -43791.063    43.018079   0.92588327 
   54000    222.96535   -755.64078    134876.68   -40979.689    2774.1128   -43753.802    43.164062   0.92598286 
   54100    221.36525   -1009.4391    135068.14    -40990.45    2754.2045   -43744.655    43.383291   0.92467024 
   54200    222.99587   -1040.2336    134718.31   -40986.355    2774.4926   -43760.847     43.37448    0.9270714 
   54300     221.9733   -860.08977    134654.84   -40961.657    2761.7699   -43723.427     43.40774   0.92750839 
   54400    224.62182   -706.62279    134774.96    -40985.07    2794.7225   -43779.793    43.436983   0.92668168 
   54500     222.6204   -904.39657     134793.6   -40966.081     2769.821   -43735.902    43.548325   0.92655357 
   54600    227.35142   -893.97594     134887.1   -40856.577    2828.6839    -43685.26    43.593344   0.92591133 
   54700    229.24395   -1020.6571    134872.54   -40874.525    2852.2306   -43726.755    43.538888   0.92601129 
   54800     225.5449   -849.92209    134797.69   -40936.947    2806.2073   -43743.154    43.672141   0.92652544 
   54900    221.18383   -838.63899    134910.34   -40978.956    2751.9474   -43730.904    43.634809    0.9257518 
   55000    222.28496   -884.84657    134899.64   -41036.716    2765.6475   -43802.364    43.866573   0.92582527 
   55100    221.98537   -920.54776    134988.67   -41008.825      2761.92   -43770.745     44.00216   0.92521463 
   55200     218.5213   -892.63678    135077.86   -41011.128    2718.8204   -43729.949    44.222405   0.92460374 
   55300    221.68499   -1006.2671     135069.8   -40962.849    2758.1827   -43721.031    44.297038   0.92465889 
   55400    226.69648     -781.764    135158.37   -40922.926    2820.5352   -43743.461    44.358133   0.92405295 
   55500    226.87499   -926.76134    135167.39   -40854.126    2822.7562   -43676.883    44.102474   0.92399128 
   55600    225.18563   -881.09269    135082.43   -40903.093    2801.7373    -43704.83    44.158035   0.92457244 
   55700    229.02212   -931.18151    135187.76   -40888.167    2849.4706   -43737.638    44.245469   0.92385204 
   55800    229.41276   -743.26506    135144.52   -40898.701    2854.3309   -43753.031    44.193923   0.92414763 
   55900     224.4799   -843.07582    135185.72   -40848.301    2792.9567   -43641.258    44.306297   0.92386597 
   56000    228.47289   -801.06624    135079.14   -40844.674    2842.6371   -43687.311    44.407134   0.92459494 
   56100    232.83696   -833.85859    135112.33   -40813.697    2896.9345   -43710.632    44.460063   0.92436786 
   56200     227.5671   -849.54178    135180.51   -40814.901    2831.3674   -43646.269    44.629111   0.92390159 
   56300    227.57908   -838.63061    135183.27   -40849.096    2831.5164   -43680.613    44.617699   0.92388275 
   56400    224.47981   -876.98029    135168.14   -40843.466    2792.9556   -43636.422    44.580133   0.92398613 
   56500    223.94524   -815.86594    135225.94   -40929.236    2786.3046   -43715.541    44.574389    0.9235912 
   56600    221.68455   -1092.2994       135176   -40951.562    2758.1773   -43709.739    44.639697   0.92393246 
   56700     221.8278      -813.57    135117.97   -40988.138    2759.9595   -43748.098    44.668718   0.92432923 
   56800    227.05043   -1074.5083    135254.82   -40913.971     2824.939    -43738.91    44.842579   0.92339399 
   56900     223.5407   -1004.0725    135194.95   -40886.925    2781.2712   -43668.196    44.982323   0.92380295 
   57000     224.9261   -980.45098    135150.39   -40820.882    2798.5083    -43619.39    44.942632   0.92410751 
   57100    227.09567   -823.04381     135193.8   -40889.657    2825.5019   -43715.159    44.826168    0.9238108 
   57200    222.00183   -921.14234    135142.81   -40940.587    2762.1248   -43702.712    44.981771   0.92415931 
   57300    222.63259   -1003.5356    134995.98   -40991.012    2769.9726   -43760.985    45.132878   0.92516451 
   57400    225.13207   -835.50621    135182.14   -40998.976    2801.0709   -43800.047    45.315812    0.9238905 
   57500     219.6661   -955.25435    135073.77   -41049.768    2733.0639   -43782.832    45.313232   0.92463172 
   57600    220.62004   -1024.4882    135107.57   -40999.263    2744.9328   -43744.196    45.239069   0.92440038 
   57700    221.27412   -904.06451       134955   -41046.869    2753.0708    -43799.94    45.262277   0.92544543 
   57800    217.57838   -879.35004    134993.73   -41072.524    2707.0887   -43779.613    45.173158   0.92517994 
   57900    222.50933   -810.28288     135001.6   -41049.548    2768.4391   -43817.987    45.353773   0.92512601 
   58000    220.62006   -989.69498    134900.97   -41061.743    2744.9329   -43806.676    45.471745   0.92581612 
   58100    221.22361   -862.84875    134881.75   -40989.265    2752.4423   -43741.708    45.531012   0.92594801 
   58200    226.57612   -981.86633    134927.38   -40945.666    2819.0377   -43764.703    45.526469   0.92563492 
   58300    228.60792   -903.77663    135002.25   -40890.642    2844.3172   -43734.959    45.190426   0.92512156 
   58400    227.01491   -877.19283    134901.67    -40896.84    2824.4971   -43721.337    45.317495   0.92581133 
   58500    227.58063   -887.76269    134844.91   -40901.495    2831.5357   -43733.031     45.35442   0.92620101 
   58600    226.04724   -1021.4523    134878.14   -40860.109    2812.4574   -43672.567    45.595929   0.92597279 
   58700    227.75412   -1055.9485    134785.82   -40861.104    2833.6943   -43694.798    45.759414   0.92660707 
   58800    226.83305      -796.17    134956.42   -40917.013    2822.2344   -43739.247    45.977645   0.92543573 
   58900    224.71099   -743.08467    134903.97   -40960.329    2795.8319   -43756.161    45.943941   0.92579552 
   59000    226.37711   -1005.4949       134909   -40957.021    2816.5616   -43773.583    45.960371   0.92576103 
   59100    225.45969   -830.23777    134811.62   -40961.014    2805.1472   -43766.161     45.98056   0.92642969 
   59200    218.99999   -918.32025    134899.27    -40982.69    2724.7762   -43707.467    46.216869   0.92582777 
   59300    224.95407   -874.29347    135057.38   -40970.384    2798.8562   -43769.241    46.055461   0.92474392 
   59400    222.96046   -976.06368     134971.9   -41034.686     2774.052   -43808.738    46.139252   0.92532959 
   59500    226.11305   -844.31577    134932.73   -41000.619    2813.2762   -43813.895    46.285666   0.92559821 
   59600    222.92374   -959.00017    134799.87   -40988.169    2773.5952   -43761.764    46.334443   0.92651044 
   59700    224.73236   -969.45039    134813.46     -41013.4    2796.0978   -43809.498    46.463035   0.92641706 
   59800    226.33632   -953.38955    134823.06   -41012.783    2816.0541   -43828.837    46.374662   0.92635113 
   59900    224.52458   -823.70938    134856.72   -40983.093    2793.5126   -43776.606    46.215952   0.92611986 
   60000    221.16772   -920.67767    134835.81   -41025.379    2751.7469   -43777.126    46.300563   0.92626348 
   60100    224.83746    -955.6626    134798.73   -40988.489    2797.4054   -43785.894    46.284744   0.92651829 
   60200     224.6326   -964.46805    135047.59   -40958.988    2794.8566   -43753.845    46.565225   0.92481093 
   60300    225.79488   -938.93243    135011.31   -40914.458    2809.3175   -43723.775    46.624991   0.92505946 
   60400    228.81502   -911.80944    135023.16   -40867.773    2846.8938   -43714.667    46.390956   0.92497828 
   60500    225.63291   -833.42614    135003.42   -40896.849    2807.3024   -43704.152    46.269675    0.9251135 
   60600    226.43531   -839.58095    135122.75   -40956.841    2817.2858   -43774.127    46.332059   0.92429656 
   60700    224.66621   -1001.9267    135202.19   -40985.338    2795.2748   -43780.613    46.544685   0.92375344 
   60800    226.34747   -876.72081    135151.47   -40940.481    2816.1928   -43756.674    46.505346   0.92410014 
   60900     224.6483   -869.86774    135076.53   -40933.569    2795.0519   -43728.621    46.771463   0.92461282 
   61000    221.18427   -702.97165    135326.16   -40967.017    2751.9528    -43718.97    46.859152    0.9229072 
   61100    223.62566   -936.79375    135086.75   -41005.524    2782.3284   -43787.853    46.716701   0.92454284 
   61200    222.01028   -816.91801    135052.95    -41005.96    2762.2299    -43768.19    46.592493   0.92477422 
   61300     222.8961   -811.62048     135039.2   -40992.226    2773.2512   -43765.477    46.606969   0.92486838 
   61400    222.37115   -870.68778    135073.89   -41029.482    2766.7199   -43796.202    46.690217   0.92463086 
   61500    221.92048   -1073.9012    134938.87   -41041.733    2761.1127   -43802.845    46.609226    0.9255561 
   61600    227.55006   -712.01684    134983.72   -41002.057    2831.1553   -43833.212    46.712195   0.92524854 
   61700    222.10063   -759.02088    135270.78   -41089.123     2763.354   -43852.477    46.903192   0.92328509 
   61800    219.27652   -826.54014    135186.75   -41155.354    2728.2168   -43883.571     46.87274   0.92385897 
   61900    224.67616   -845.86693       135166   -41098.014    2795.3986   -43893.413    46.801854   0.92400079 
   62000    222.30086   -1026.9226     135059.1   -41054.511    2765.8454   -43820.356      46.7693   0.92473213 
   62100    221.73426   -1002.2211    135078.11   -41064.083    2758.7957   -43822.879     46.93643   0.92460197 
   62200    223.21289   -1017.3632    135116.06   -41020.006    2777.1927   -43797.199    46.894346   0.92434231 
   62300    225.46858   -961.91598    135157.45   -41068.025    2805.2577   -43873.283    47.081537   0.92405923 
   62400    226.66433   -938.94011    135063.32   -41018.776    2820.1352   -43838.911    47.270624   0.92470328 
   62500    225.59973   -915.43998    135135.28   -41032.398    2806.8896   -43839.288    47.428862   0.92421087 
   62600     226.8999    -993.0458    135179.78   -41046.543    2823.0661   -43869.609    47.318098   0.92390661 
   62700    223.92375   -1021.2159     135147.3   -41070.404    2786.0371   -43856.441    47.359458   0.92412864 
   62800    222.33006   -924.13758    134870.18   -41043.737    2766.2086   -43809.946    47.417316   0.92602749 
   62900    226.37581   -924.91784    134852.67   -40980.952    2816.5454   -43797.497    47.400059   0.92614769 
   63000    229.26818   -901.41297    134995.11   -40943.012    2852.5321   -43795.544    47.464096   0.92517045 
   63100    229.38941   -790.52746    135088.51    -40938.99    2854.0404   -43793.031    47.391149   0.92453079 
   63200    227.84217   -815.71811    135061.32   -40969.461    2834.7897    -43804.25    47.721263   0.92471693 
   63300    231.19645   -922.80161    135035.13    -41025.04    2876.5234   -43901.563    47.797645   0.92489627 
   63400    229.60693   -661.37799    134999.51    -40943.31    2856.7467   -43800.057     47.91857   0.92514034 
   63500    224.33224   -851.13706     135053.5   -41047.139    2791.1195   -43838.258    47.854781   0.92477047 
   63600    226.83004   -851.25146    135076.35   -41032.382    2822.1969   -43854.579    48.049767   0.92461402 
   63700    226.69711   -823.33618    135124.59   -41035.878     2820.543   -43856.421    48.137168   0.92428397 
   63800    223.03684   -1031.0513     135122.6   -41131.619    2775.0024   -43906.621    47.953764    0.9242976 
   63900    217.07171   -880.74349    135173.82   -41116.934    2700.7847   -43817.719     48.09061   0.92394731 
   64000    226.50195   -879.97063    135275.19   -41092.841    2818.1149   -43910.956    48.446834   0.92325494 
   64100    226.94897   -1000.2497    135230.78   -41001.211    2823.6767   -43824.888    48.587209   0.92355816 
   64200    227.89854   -955.12483    135207.34   -40988.868    2835.4911    -43824.36    48.399901   0.92371826 
   64300    229.45478   -987.01902    135351.96   -40884.799    2854.8537   -43739.653    48.403894    0.9227313 
   64400    226.23384   -1021.3383       135341   -40907.445     2814.779   -43722.224    48.294357   0.92280604 
   64500    226.68161   -922.77355    135249.88   -40910.684    2820.3502   -43731.034    48.188698   0.92342772 
   64600    222.96266   -1033.1151    135020.26   -40970.609    2774.0793   -43744.688    48.216715   0.92499817 
   64700    225.99319   -961.21542    134949.02   -40988.232     2811.785   -43800.017    48.167096    0.9254865 
   64800    225.44382   -1078.7216    135044.18   -41016.067    2804.9497   -43821.017    48.411623   0.92483434 
   64900    226.17315   -840.91745    135002.57   -40984.395     2814.024   -43798.419    48.537538   0.92511936 
   65000    229.08003   -849.46744    135113.37    -40949.49    2850.1911   -43799.681    48.775929   0.92436069 
   65100    223.07997   -878.09666    135074.76   -40972.691     2775.539    -43748.23    48.643299   0.92462491 
   65200    226.63591   -812.17419    135301.96   -40957.339    2819.7816   -43777.121    48.817189   0.92307229 
   65300    226.25449   -816.10843    135129.34   -40973.697    2815.0361   -43788.733    48.844032   0.92425148 
   65400    229.31928   -785.07785    135131.75   -40925.246    2853.1678   -43778.413    48.951576   0.92423502 
   65500    225.23999   -886.86421    135165.31   -40997.321    2802.4137   -43799.735    48.754809   0.92400553 
   65600    223.85092   -705.13002    135174.58   -41043.298     2785.131   -43828.429    48.874154   0.92394215 
   65700    221.27124   -793.90517    135189.69   -41095.838    2753.0348   -43848.873    49.161011   0.92383887 
   65800     225.5403   -849.56702     135269.4   -41100.778    2806.1501   -43906.928    49.132848   0.92329446 
   65900    222.15515   -830.58255    135216.05   -41079.554    2764.0324   -43843.587     49.23396    0.9236588 
   66000    228.08954   -976.82298    135214.56   -40978.926    2837.8675   -43816.793    49.458829   0.92366892 
   66100    230.09655   -821.91887    135018.93   -40932.582    2862.8385   -43795.421     49.34866   0.92500728 
   66200    232.99937   -744.08739    135203.05   -40912.642    2898.9551   -43811.597    49.380508   0.92374758 
   66300    226.12511   -754.28339    135188.75   -40960.095    2813.4263   -43773.522    49.278759   0.92384533 
   66400    223.17449   -860.63085    135219.78   -41002.179    2776.7149   -43778.894    49.207649   0.92363331 
   66500    221.19464   -912.24433    135226.92   -41021.819    2752.0819   -43773.901    49.302149   0.92358455 
   66600    221.93447   -824.67748    135282.43   -41039.985    2761.2867   -43801.272    49.430841   0.92320556 
   66700    223.48979   -830.09293    135344.31   -41060.035    2780.6379   -43840.672    49.386615   0.92278349 
   66800    228.32507   -923.70598    135383.96   -40996.887    2840.7979   -43837.685    49.459446   0.92251319 
[...]
   84600    223.98325   -792.16047    135335.88   -41103.882    2786.7775   -43890.659    55.827885   0.92284093 
   84700     222.5808   -891.47637     135418.5    -41129.48    2769.3283   -43898.808    55.878363   0.92227791 
   84800     224.5297   -886.21957    135500.22    -41099.09    2793.5763   -43892.666    55.833687   0.92172169 
   84900    224.50625   -995.42258    135419.64   -41088.718    2793.2846   -43882.002    55.761537   0.92227015 
   85000    226.72601   -794.16244    135419.35   -41046.444    2820.9027   -43867.347    55.752124    0.9222721 
   85100     223.1492   -885.80439    135419.35   -41052.113    2776.4003   -43828.514    55.793411   0.92227214 
   85200    224.72218   -875.53132     135372.3   -41069.123    2795.9711   -43865.094    56.060619   0.92259266 
   85300    223.78783   -811.46797    135311.21    -41100.68    2784.3461   -43885.026     55.78007   0.92300916 
   85400    224.02632   -818.32749    135471.24   -41075.313    2787.3133   -43862.626    55.867441   0.92191885 
   85500     227.5832   -839.72912    135448.14   -41055.477    2831.5677   -43887.045    56.052965   0.92207606 
   85600    225.31274   -846.94817    135414.69   -41024.158    2803.3188   -43827.477    55.991651   0.92230385 
   85700    225.56139   -781.90415    135571.47   -41067.299    2806.4126   -43873.711    55.977979   0.92123725 
   85800    225.12856   -969.55182    135494.67   -41084.713    2801.0273    -43885.74    56.020471   0.92175941 
   85900    225.88456   -911.34714    135446.57   -40981.689    2810.4334   -43792.122    55.929178   0.92208679 
   86000    231.30075   -715.81499    135382.72   -41044.182    2877.8211   -43922.003    56.135745   0.92252167 
   86100    223.37944     -896.406    135450.08   -41041.412    2779.2649   -43820.677    56.172408   0.92206287 
   86200    222.89835   -908.75829    135551.82   -40999.953    2773.2792   -43773.232     56.26423   0.92137081 
   86300    224.16271   -887.01129    135399.69   -41029.243    2789.0103   -43818.253    55.981092   0.92240606 
   86400    220.36321   -971.41108    135482.67   -41049.783    2741.7372    -43791.52    56.055271   0.92184108 
   86500    227.05719   -973.31108    135461.91   -41034.044    2825.0231   -43859.067    56.209376   0.92198235 
   86600      228.726   -972.80384    135431.79   -40967.877    2845.7862   -43813.664    56.360279   0.92218743 
   86700    230.10641   -1073.2313    135261.43   -40966.969    2862.9612    -43829.93    56.416518   0.92334887 
   86800    229.26471   -866.51623    135237.68   -41047.961    2852.4889    -43900.45     56.47815   0.92351103 
   86900    226.77235   -1076.6461    135293.89   -41014.662    2821.4792   -43836.141    56.603826   0.92312733 
   87000    225.30408   -812.86859    135298.06   -41021.504     2803.211   -43824.715     56.56563   0.92309892 
   87100    221.61462   -888.09391    135324.45   -41056.357    2757.3072   -43813.665    56.747229   0.92291888 
   87200    222.06181   -710.39849    135363.63   -41033.932    2762.8711   -43796.804    56.975756   0.92265178 
   87300    220.37437   -873.58167    135303.53   -41038.947    2741.8761   -43780.823    56.834912   0.92306162 
   87400    222.80738   -991.56723    135239.36   -41034.335    2772.1474   -43806.483     56.84639   0.92349958 
   87500    222.67419    -1029.392    135131.68   -41044.388    2770.4902   -43814.878    56.738705   0.92423549 
   87600    223.49442   -941.45427    135128.09   -41044.392    2780.6955   -43825.088    56.761549   0.92426004 
   87700    223.21542   -761.18728    135054.49   -41054.992    2777.2242   -43832.217    56.865303   0.92476373 
   87800    226.65738   -890.12328    135086.32   -41035.915    2820.0487   -43855.964    56.915361   0.92454579 
   87900     220.8913   -859.27098    134864.72   -41064.912    2748.3078    -43813.22    56.986286   0.92606496 
   88000    216.64152   -801.82189    134928.63   -41063.982    2695.4324   -43759.414    57.041688   0.92562629 
   88100    227.02685   -928.17899     135112.1   -40985.701    2824.6457   -43810.346    57.173212   0.92436942 
   88200    224.69891   -750.93326    135279.12   -40965.826    2795.6816   -43761.507    57.158632   0.92322812 
   88300    225.97644   -874.41568    135456.43   -40995.791    2811.5765   -43807.368    57.363902   0.92201966 
   88400    218.76403   -928.94678    135391.16    -41106.93    2721.8404   -43828.771    57.500004   0.92246412 
   88500     230.1256    -889.1856     135222.4   -41012.416       2863.2   -43875.616     57.41265   0.92361541 
   88600    226.67114    -908.3993    135174.97   -40960.452    2820.2199   -43780.672    57.455885   0.92393949 
   88700      231.363    -939.1034    135099.65   -40946.189    2878.5956   -43824.785    57.343082   0.92445459 
   88800    230.75206   -911.75824    134981.27   -40904.046    2870.9943    -43775.04    57.217846   0.92526533 
   88900    229.10188   -960.89913    135099.81   -40946.994    2850.4629   -43797.457    57.335581    0.9244535 
   89000     226.6698   -993.96142    135225.78    -40927.44    2820.2033   -43747.643     57.27259    0.9235923 
   89100    221.66691   -891.40879    135137.61   -41025.218    2757.9577   -43783.175    57.300967    0.9241949 
   89200    223.27194   -942.99515    135015.27   -41059.372    2777.9273     -43837.3    57.280029   0.92503237 
   89300    220.82299   -862.03464    134948.34   -41065.406    2747.4578   -43812.864    57.396614   0.92549115 
   89400    223.77652   -991.23243    134950.31    -41097.07    2784.2053   -43881.275    57.408438   0.92547759 
   89500    220.56383   -1036.2237    135004.18   -41133.217    2744.2333    -43877.45    57.471328    0.9251083 
   89600    220.00778   -917.34632    135022.48   -41174.061    2737.3151   -43911.376     57.51082   0.92498298 
   89700     220.3314   -849.50763    134995.09   -41121.064    2741.3415   -43862.405    57.629104   0.92517063 
   89800    221.39302   -795.90424    134928.99   -41080.724    2754.5501   -43835.274    57.713557   0.92562383 
   89900    223.09445    -909.5726    135007.67   -41141.728     2775.719   -43917.447    57.571584   0.92508443 
   90000    220.82168   -843.22295    135206.85   -41054.415    2747.4415   -43801.857    57.795873   0.92372162 
   90100    219.61197   -796.75251    135162.73   -41070.515    2732.3905   -43802.905     57.96502   0.92402313 
   90200     223.4898   -887.56631    135303.28   -41117.219     2780.638   -43897.857    57.882067   0.92306326 
   90300    227.18034   -785.11185    135344.23   -41140.454    2826.5553    -43967.01    57.908204     0.922784 
   90400    223.81755   -958.82961       135219   -41143.624    2784.7158    -43928.34    57.966789   0.92363864 
   90500    219.91377   -739.18365    135282.72   -41110.336    2736.1454   -43846.482    57.918197    0.9232036 
   90600    226.69591   -899.21318    135274.42   -41007.953    2820.5281   -43828.481    57.994319   0.92326021 
   90700    225.82385     -903.707    135240.59   -41016.564     2809.678   -43826.242     57.97856   0.92349116 
   90800    223.86263   -1015.1039    135327.33   -41048.472    2785.2768   -43833.748    58.040362   0.92289925 
   90900    224.12328   -885.33209    135169.44    -41156.25    2788.5197   -43944.769     57.91062   0.92397725 
   91000    221.52329   -827.45354     135195.9   -41162.294    2756.1708   -43918.464    57.847572   0.92379642 
   91100    221.33046     -730.916    135227.84   -41143.864    2753.7717   -43897.636    58.059721   0.92357823 
   91200    222.59997    -866.6583    135147.97   -41096.471    2769.5669   -43866.038    58.177467   0.92412409 
   91300     226.6497   -797.24592    135260.72   -40999.298    2819.9531   -43819.251    58.368575   0.92335375 
   91400    225.60441   -625.30348     135310.5   -40983.418    2806.9477   -43790.365    58.412987   0.92301403 
   91500    227.39323   -1025.0601    135476.45   -40994.012    2829.2041   -43823.216    58.362871   0.92188341 
   91600     227.6265   -850.86835    135462.77   -41036.566    2832.1064   -43868.673    58.303589   0.92197652 
   91700    224.59806    -992.9284    135342.04    -41120.66    2794.4269   -43915.087    58.356995   0.92279894 
   91800    223.42556   -823.22564    135344.76   -41084.573    2779.8387   -43864.412    58.483474   0.92278041 
   91900    223.03652   -892.00797    135123.89   -41091.714    2774.9983   -43866.712    58.572447   0.92428874 
   92000    219.43494   -900.40676    135365.43   -41075.112    2730.1878     -43805.3    58.782083   0.92263949 
   92100    223.58614   -934.99768     135240.1   -41113.714    2781.8366   -43895.551     58.90124   0.92349452 
   92200    225.88597   -1041.1602    135155.04   -41032.362    2810.4509   -43842.813    58.793065   0.92407572 
   92300    225.01923   -832.05704    135230.73   -40935.283    2799.6671    -43734.95    58.782551   0.92355848 
   92400    228.11436   -961.62165    135144.41   -40950.081    2838.1764   -43788.257    58.644091    0.9241484 
   92500    225.49924   -813.98821     135235.9   -40989.204    2805.6393   -43794.843    58.887024   0.92352319 
   92600    229.16527   -969.98176    135357.78   -40966.633    2851.2517   -43817.884    58.868849   0.92269167 
   92700    227.18271   -971.01544    135246.01   -40976.673    2826.5848   -43803.258    59.021352   0.92345416 
   92800    227.69487   -961.92545    135365.44   -41031.275    2832.9571   -43864.232    58.801336   0.92263939 
   92900    227.04624   -884.71049    135369.94   -40991.271    2824.8869   -43816.158    58.967059   0.92260878 
   93000    224.24971   -819.57302    135362.12   -41024.949    2790.0928   -43815.042    59.024168   0.92266202 
   93100    224.94302   -1020.7204    135358.22   -40947.716    2798.7189   -43746.435    58.961785   0.92268866 
   93200    225.34847   -899.07363    135406.74   -40958.508    2803.7634   -43762.271      58.9905   0.92235801 
   93300    228.04697   -762.28449    135339.26   -40980.641    2837.3378   -43817.979    59.060957   0.92281788 
   93400    228.33005   -761.19217    135800.21   -41008.007    2840.8599   -43848.866    59.293572   0.91968555 
   93500    225.13274   -911.44557    135752.45    -41066.11    2801.0793    -43867.19    59.302219   0.92000912 
   93600    219.76445   -863.63024    135608.06    -41147.12    2734.2876   -43881.407    59.390574   0.92098873 
   93700    220.08618   -792.24916    135481.52   -41105.662    2738.2905   -43843.953    59.429348   0.92184891 
   93800    226.74262   -753.77063    135627.95   -41069.407    2821.1093   -43890.516    59.665003   0.92085362 
   93900    224.56166   -968.55507     135524.5   -41073.223    2793.9739   -43867.197    59.432593   0.92155653 
   94000    225.22535   -853.51549    135330.89   -41099.653    2802.2316   -43901.885    59.428684   0.92287498 
   94100    224.80548   -877.61459    135465.43   -41087.619    2797.0075   -43884.626    59.699595    0.9219584 
   94200    224.63806   -932.83794    135512.64   -41076.772    2794.9246   -43871.697     59.55255   0.92163722 
   94300    224.58705   -1007.9866    135446.26   -41031.738    2794.2898   -43826.028    59.521681   0.92208891 
   94400    227.74295   -759.54507    135518.06   -41023.059    2833.5553   -43856.615    59.617712   0.92160034 
   94500    228.14824   -788.88781    135227.81   -40967.973    2838.5979   -43806.571    59.374936   0.92357848 
   94600    228.50067   -886.05193    135126.89   -41007.048    2842.9827    -43850.03    59.252482   0.92426826 
   94700    223.30927   -958.53793    134936.05   -41046.383    2778.3919   -43824.775    59.318911   0.92557545 
   94800    223.04144   -995.34406    134878.49   -41028.537    2775.0595   -43803.597    59.559031   0.92597038 
   94900    227.04116   -866.38848    135011.31   -40980.766    2824.8236   -43805.589    59.765716   0.92505945 
   95000    227.37817   -976.00662    134916.56   -40964.692    2829.0167   -43793.709    59.748967   0.92570912 
   95100    225.46812   -844.28464    134864.88   -40967.806     2805.252   -43773.058    59.585977   0.92606388 
   95200    224.36665   -881.89973    134879.21   -40984.142    2791.5477   -43775.689    59.758245   0.92596546 
   95300    228.62771   -770.98944    134997.77   -40887.123    2844.5633   -43731.687    59.728192   0.92515223 
   95400    228.89337   -782.41766    134959.93   -40951.197    2847.8686   -43799.065    59.705321   0.92541167 
   95500     227.8118   -922.25618    134976.39   -40957.542    2834.4119   -43791.954    59.972924    0.9252988 
   95600    225.33253   -848.23325    135113.12   -40938.677    2803.5651   -43742.242    60.083499   0.92436241 
   95700    226.28209   -929.18398    135205.89   -41002.785    2815.3793   -43818.164    60.223119   0.92372819 
   95800    225.69573   -967.77757    135061.75   -41052.664    2808.0839   -43860.748    60.343207   0.92471398 
   95900    226.73459   -1107.2304    134887.57   -41008.385    2821.0093   -43829.394    60.202459   0.92590806 
   96000    222.36277   -1023.2737    134889.03   -41075.811    2766.6156   -43842.427    60.322683   0.92589806 
   96100    220.22784   -960.71297    134902.25   -41019.391    2740.0531   -43759.444    60.320357   0.92580729 
   96200    221.16127   -879.74977    134953.37   -41053.303    2751.6666   -43804.969    60.230042   0.92545664 
   96300    224.23107   -1022.0807    134948.63   -41002.177    2789.8608   -43792.038    60.079021   0.92548911 
   96400    227.78831   -868.90903    135053.48   -40979.352    2834.1196   -43813.472    59.899271   0.92477061 
   96500    224.16983   -892.04764    135136.52    -41032.46    2789.0988   -43821.559    60.334848   0.92420236 
   96600    220.81601   -976.77968    135130.66   -41028.106     2747.371   -43775.477    60.296801   0.92424241 
   96700     220.2826    -951.6195    135052.77   -41097.307    2740.7344   -43838.041    60.198048   0.92477552 
   96800    218.38508   -949.08458    135328.61   -41149.537    2717.1255   -43866.663     60.26602   0.92289051 
   96900     224.1983   -1020.2221    135323.02   -41082.957    2789.4531    -43872.41    60.468905   0.92292862 
   97000    223.85327   -1019.2901    135170.14    -41093.31    2785.1603   -43878.471    60.483614   0.92397248 
   97100    219.92325   -1006.0458    135227.51   -41081.048    2736.2633   -43817.311    60.725585   0.92358047 
   97200    222.76141   -962.61456    135195.88   -41085.232    2771.5755   -43856.808    60.525422   0.92379661 
   97300    217.35833   -916.60512     135140.3   -41093.557    2704.3508   -43797.908    60.333187   0.92417649 
   97400    219.57659   -953.43404    135189.76   -41088.363    2731.9502   -43820.314    60.474117   0.92383842 
   97500    225.78198   -795.05775    135248.37   -40991.089    2809.1571   -43800.246    60.665608   0.92343808 
   97600    223.06656   -846.07816    135202.51   -41054.476    2775.3721   -43829.848    60.734913   0.92375125 
   97700     220.7579   -953.26103     135024.3   -40988.022     2746.648    -43734.67    60.962629   0.92497048 
   97800    227.05119   -890.39583    135206.81    -40969.09    2824.9484   -43794.039    60.901341   0.92372192 
   97900     227.1308    -833.8472       135190   -40927.472    2825.9389   -43753.411     60.98796   0.92383678 
   98000    228.16771   -830.54277    135190.72   -40950.126    2838.8401   -43788.966    60.807772   0.92383184 
   98100    224.16043   -884.05715    135185.96   -41023.071     2788.982   -43812.053    60.642605   0.92386434 
   98200    221.44882   -866.69304    135139.91   -40997.466    2755.2443    -43752.71    60.647818    0.9241792 
   98300    226.60697   -822.78229    135220.08   -41007.993    2819.4215   -43827.415    60.906767   0.92363123 
   98400    226.68354   -863.62896    135115.74   -41028.629    2820.3742   -43849.004    61.171974   0.92434452 
   98500    223.36913   -952.30158    134914.24   -41026.288    2779.1366   -43805.425    61.180567   0.92572504 
   98600    220.30755   -862.24295    134949.01   -41047.922    2741.0447   -43788.967    61.010146   0.92548651 
   98700    219.19182   -817.50508    135020.93   -41092.828     2727.163   -43819.991    60.858721   0.92499353 
   98800    223.54719   -845.84944     135197.5    -41071.37    2781.3521   -43852.722     61.04034    0.9237855 
   98900    224.73576   -913.55998    135404.95   -41074.764    2796.1401   -43870.904    61.126158    0.9223702 
   99000    218.96056   -906.26979    135220.85   -41122.052    2724.2857   -43846.338    61.140137     0.923626 
   99100    223.34276   -1038.5445    135323.12   -41031.508    2778.8086   -43810.317    61.245728   0.92292796 
   99200    222.20925   -752.52406    135141.22   -41015.433    2764.7055   -43780.139    61.420091   0.92417022 
   99300    226.35473   -864.20015    135345.51   -40965.659    2816.2832   -43781.942    61.524545   0.92277531 
   99400    224.94333   -961.98324     135197.9   -40939.996    2798.7227   -43738.719    61.423371   0.92378281 
   99500    228.08782   -1084.5209    135151.76   -40817.428    2837.8461   -43655.274    61.424883   0.92409815 
   99600    231.75958   -974.67198    135120.17    -40852.25    2883.5298   -43735.779    61.445515    0.9243142 
   99700     228.8482   -828.01576    134968.72   -40863.246    2847.3067   -43710.553    61.388137   0.92535138 
   99800    227.30977   -899.27324    134918.87   -40893.492    2828.1657   -43721.658    61.458848   0.92569327 
   99900    227.69536   -888.60365    134947.18    -40935.52    2832.9632   -43768.483    61.664579   0.92549906 
  100000    227.59644   -956.99324    135121.32    -40959.21    2831.7324   -43790.942    61.960131   0.92430633 
  100100    229.02334   -909.34892    135219.49   -40898.158    2849.4858   -43747.644    61.886907   0.92363529 
  100200    225.09895    -846.2533    135090.59   -40893.735    2800.6589   -43694.394    61.779743   0.92451659 
  100300    228.28319   -820.64022    134867.43   -40876.128    2840.2768   -43716.405     61.67921   0.92604636 
  100400    227.88829   -1002.4404    135006.72   -40916.512    2835.3635   -43751.876    61.682059    0.9250909 
  100500    228.81993    -692.7401    134940.23    -40846.36    2846.9549   -43693.315    61.785447   0.92554678 
  100600    227.25322   -834.42211    135002.94   -40933.727    2827.4621   -43761.189     61.97687   0.92511682 
  100630    226.63076   -936.00487    135014.86   -40917.466    2819.7175   -43737.183    62.025656   0.92503518 
Loop time of 73.4715 on 6 procs for 100000 steps with 4175 atoms

Performance: 587.983 ns/day, 0.041 hours/ns, 1361.072 timesteps/s
98.4% CPU use with 6 MPI tasks x no OpenMP threads

MPI task timing breakdown:
Section |  min time  |  avg time  |  max time  |%varavg| %total
---------------------------------------------------------------
Pair    | 57.26      | 59.063     | 60.264     |  13.4 | 80.39
Neigh   | 5.0294     | 5.0718     | 5.1053     |   1.1 |  6.90
Comm    | 5.5654     | 6.7758     | 8.6054     |  40.4 |  9.22
Output  | 0.15907    | 0.15983    | 0.16344    |   0.4 |  0.22
Modify  | 1.7572     | 1.7652     | 1.776      |   0.5 |  2.40
Other   |            | 0.6361     |            |       |  0.87

Nlocal:        695.833 ave         711 max         681 min
Histogram: 1 0 0 0 1 3 0 0 0 1
Nghost:        1445.67 ave        1458 max        1435 min
Histogram: 1 0 1 1 0 1 1 0 0 1
Neighs:        0.00000 ave           0 max           0 min
Histogram: 6 0 0 0 0 0 0 0 0 0
FullNghs:      18862.0 ave       19436 max       18344 min
Histogram: 1 0 0 0 4 0 0 0 0 1

Total # of neighbors = 113172
Ave neighs/atom = 27.107066
Neighbor list builds = 5555
Dangerous builds = 0

undump              1
unfix               2
unfix               3
unfix               4


################################################
#######         Run Simulation         #########
################################################

reset_timestep      0
log                 log.run_${NAME}
log                 log.run_liquid_density_MLmW
