LAMMPS data file via write_data, version 29 Oct 2020, timestep = 800000

4175 atoms
1 atom types

-0.5652789433111742 50.56527894331411 xlo xhi
-0.5652789433111742 50.56527894331411 ylo yhi
-0.5652789433111742 50.56527894331411 zlo zhi

Masses

1 18.015

Atoms # atomic

3183 1 2.5649694096103786 1.0535984361271835 -0.5608593963852464 0 1 0
1082 1 0.5433138536869473 1.8061112352651296 1.8789618788361246 0 0 0
2445 1 39.03295173517448 17.832167436140555 -0.10278088605038088 0 0 0
2980 1 10.635395621152608 2.2782499102085203 0.9458915223558289 0 1 0
1090 1 32.573270277816604 10.614033958998679 -0.01678581267643786 0 0 1
304 1 20.558256321960364 14.049459215308222 0.03528063159307404 0 0 0
3609 1 38.226099632542216 0.19527154653699808 15.010958679849967 0 1 0
3696 1 25.619187212055632 0.6129441166938918 1.4110546358520621 0 1 1
898 1 28.0035131319501 1.9733285809993277 0.19422308295033452 0 0 0
1558 1 6.936353894757659 24.118496454295897 1.5682831503637882 0 0 1
3521 1 36.113400848084 0.8226582730066756 2.228895613504472 -1 1 1
2666 1 8.710277518692418 -0.059693623145078645 7.642230956138398 0 1 0
196 1 40.93226181846052 2.5828540884648 1.1843277232641092 -1 0 0
2751 1 40.99133298406335 0.4539392539217524 15.430063201081628 0 1 0
1395 1 49.01739406962514 2.4673253058815368 1.9738983297056834 0 0 1
1422 1 42.497790692926245 15.15757986194771 -0.5550832460230486 0 0 1
699 1 30.468454618278486 6.005980717194295 0.15571634959256797 0 0 0
3448 1 -0.040241783536606124 6.514808118238946 0.00044339623460520894 1 1 1
2524 1 3.6998315405690194 -0.41548325064680114 3.547840194516361 1 1 0
760 1 4.1425810906029135 4.91746029080071 0.8879526527764903 0 0 0
607 1 8.888128818350227 4.219957547546211 1.5508331227356953 0 1 0
144 1 14.590515619734058 4.91885940698457 0.3558479979894782 0 0 0
3011 1 24.966955133094512 3.22573256282908 1.6154978223444267 0 1 0
3463 1 26.995658531737554 5.177376807468681 2.4971947901230895 0 0 1
3896 1 14.421027960875564 24.716367754372598 0.4251984253642934 0 0 1
1330 1 32.711723697990905 4.687998451659428 1.1268365944473038 0 0 0
690 1 35.18361596288652 6.125485008213837 1.1822166364844824 0 0 0
2379 1 37.14483155622487 4.8126905476343325 2.4826013192163416 0 1 0
3650 1 38.42546344437122 3.3552748941310337 0.5849396442269439 0 1 1
3680 1 41.35387944795281 5.221797416203938 2.041755034911923 0 1 1
1021 1 46.416984205673515 5.047195309670178 1.3806004705824286 0 0 1
1864 1 5.1698095057966755 7.147429857441223 -0.040518349800710673 0 0 1
1769 1 10.111500643445149 6.660759743669263 2.172522161255716 0 0 1
2559 1 13.227776394454182 6.990965074766807 2.0539166606259847 0 0 0
2731 1 14.734504816955358 8.20377723917854 -0.0081255699167051 0 1 0
3092 1 17.508643042830162 8.440158467100684 0.8132243665895238 0 1 1
3554 1 18.75433821327825 6.185567655869508 1.9028176340275893 0 1 1
763 1 21.423554897199352 5.654197232694226 1.7607454782041008 0 0 1
12 1 24.666384942888595 8.276595684637861 0.809828011236646 0 0 0
2795 1 31.697969786501364 8.390189021043657 1.5942999124049075 0 1 0
511 1 10.847433088927367 20.021230621301896 0.026923456095122922 0 0 0
582 1 39.55825158548771 7.145627470778191 1.124797133937473 0 0 0
2037 1 43.88901141892333 6.2402553073720055 0.9039497445785214 0 0 1
1831 1 43.58771381103706 8.876661456211748 0.28498509338593025 0 0 1
2934 1 48.33399306609276 7.044028013390086 0.2774651749761263 -1 1 1
724 1 47.71514331407565 8.937571079748285 1.8972119578889792 -1 0 0
1133 1 1.6741396723934954 9.711590986713597 2.74090697189266 1 0 0
1311 1 4.140158329371007 10.962705026311271 1.6469998240815191 0 0 0
313 1 47.92544611032585 0.4227297324551418 6.42027863243572 0 0 0
1192 1 5.61466050863333 8.817082966453912 2.151149361673015 0 0 0
1666 1 7.578295021678855 10.63070587594914 1.7886489951640723 0 0 1
3799 1 25.521374056765733 17.65509571433015 15.56660390627685 0 1 1
1291 1 10.981546104806663 12.18611042152211 2.763681386564173 0 0 0
2550 1 13.527389303464652 11.278637848171117 2.406331831215809 0 1 0
3729 1 21.915881004730014 8.373166690126267 0.9655844384548136 0 0 1
1693 1 27.40612914146427 12.958437112162636 1.7045108065598225 0 1 1
1474 1 21.69017053816764 -0.16855741495780746 3.0731739231202857 0 0 1
1507 1 28.401959324545505 10.109394549271903 0.3007914553125921 0 0 0
3568 1 40.869136132791695 9.570583559319854 1.0521612918759204 0 0 1
2730 1 39.52448513697949 11.715991328130297 -0.04645453184540482 0 1 0
1948 1 45.437972979528 10.322653558484463 1.232112572722727 0 0 1
1856 1 49.94063455582638 10.225481501459798 1.096811531687664 0 0 1
2444 1 33.13889968870623 -0.4996970945195329 11.239009368577136 0 1 0
438 1 7.221662087585515 13.352853426382412 0.5747339919465972 0 0 0
2131 1 5.602562395754946 14.094998701312617 2.478239195323147 0 0 0
4140 1 13.866584592664111 16.453879698896323 1.3046411404563774 1 1 1
770 1 14.74047137429229 13.729618223602818 2.286580584011113 0 0 0
802 1 17.138806048996692 12.587093690666695 1.2629885542554922 0 1 0
2478 1 22.18905607697652 11.00700831990398 0.5836641191246139 0 0 0
3046 1 41.020420708771695 -0.44911178615545566 12.570517396474433 0 1 1
2987 1 24.567903861133317 12.611932504134641 1.9144134814032205 0 1 1
2831 1 22.928195030412198 14.905040783488227 1.864162220639892 0 0 0
1920 1 24.821607065599824 23.914979521806853 1.5667789380617179 0 0 1
1391 1 30.30133049421804 12.362206530055547 0.2700491570522411 0 0 0
1182 1 31.9372044705154 13.829638827445773 2.0210736749553897 0 0 0
143 1 37.49343401496796 12.700204703583806 1.5082831567783463 0 0 0
2948 1 40.70115021628176 13.813927447815358 1.4713972974916905 0 0 1
37 1 38.98366406824783 24.999872251247055 8.686887836774865 0 0 0
421 1 46.57136458260845 15.35636978951985 2.3170755828204594 -1 0 0
902 1 34.26040543251372 11.156600299448472 3.094671189118511 0 0 1
487 1 48.0719216181149 14.167755125750082 0.4568879709889264 0 0 0
605 1 1.8331617078646252 15.882088438831595 1.7521187128302524 1 0 0
2520 1 4.528683739930814 16.46079547621609 1.8320073006663828 0 0 0
764 1 11.211432237552852 16.158764966737024 2.0675261075187708 1 0 0
4025 1 10.573124821491145 18.72120642521751 2.5631620039024554 0 0 1
900 1 17.700620673639385 15.12588947174796 0.8780836695632279 1 0 0
1787 1 20.504630796971426 16.80922516244645 1.7457758295440717 0 0 1
3334 1 24.4857531060342 16.65610740042619 0.6328379242637086 0 0 0
794 1 30.10204082980246 18.306429296486638 2.1153834483711664 0 0 1
185 1 14.107454690606449 11.472751631913576 15.597916060173763 0 0 0
2032 1 33.6325050707118 15.593452686014242 0.4021358193436023 0 0 1
2162 1 38.59038394532482 15.675789048572994 1.48040122392789 0 1 0
708 1 35.863474381569745 16.33639882383471 2.313593350853166 0 0 0
1135 1 37.162711257065936 24.564540494296935 15.431922908044225 0 0 0
58 1 44.02271210538483 16.0638724292161 1.5775564044292718 0 0 0
1443 1 38.25401408335654 0.16572639244637843 10.015163994242462 0 0 1
183 1 49.55701256494365 18.315615084931963 0.4678094003661162 -1 0 0
916 1 31.366942855801106 -0.4938625581749072 5.497645965346258 0 0 0
1203 1 0.9562463989691394 18.822060778634604 1.4449682925300542 1 0 1
2747 1 6.529662464892771 20.860118035199154 1.8233167955226857 0 0 0
3920 1 46.25568136967148 12.415068865407834 -0.49372169176061015 -1 0 1
251 1 13.159819345898734 21.903759437494934 0.5743073586331291 0 0 0
556 1 16.019613263212488 18.97654412955154 1.768521222044142 0 0 0
1660 1 14.276397383321973 20.80319246340533 2.8980108698276754 0 0 1
758 1 18.43468692110781 20.15994211105289 0.8168695170273821 0 0 0
4079 1 22.447796684945047 18.606269288538595 2.53715634042308 0 0 1
1040 1 24.281526531561827 21.015310395659952 0.4100853127833196 0 0 1
2450 1 9.56482043311952 15.181690383591077 -0.13551068187354276 0 1 0
2660 1 35.555190222041844 19.184893249586725 1.9676042440335166 0 1 0
486 1 37.893420687768995 21.084475827213442 2.8356952028003035 -1 0 0
139 1 40.045454563744784 20.10053831612143 1.0412820082636107 -1 0 0
2967 1 42.2157918445713 20.105461462413654 2.6463210752961857 -1 1 0
3654 1 44.36142401086542 19.089120372729138 1.3566938047315842 0 0 1
6 1 46.7353377137037 19.52795134510432 2.7129978660934864 0 0 0
3484 1 48.045798750481794 21.84793498693964 1.7600473242241659 0 0 0
2010 1 0.6228287013751674 24.662043183337904 1.3210387294601105 1 0 1
1201 1 2.6921927208799405 22.8422560754842 0.6336151458679546 0 0 0
2902 1 4.59854501120941 22.70068798415233 2.7993363375973828 0 0 1
2739 1 10.752422439653536 23.283268865223725 0.7316377905180047 0 0 0
133 1 17.63822109082324 5.148968670336647 -0.3461234937082679 0 0 0
865 1 7.247633509260009 24.01893319831535 12.400740387434944 0 0 0
1359 1 19.132788074763454 24.464266369180883 3.0278675777726716 0 0 0
30 1 22.190763800536025 22.97270235737715 0.42377109468581886 1 0 0
1487 1 20.3495415922817 21.874825731552576 2.010588326362571 0 0 1
810 1 27.293721468062586 23.212561538662065 -0.03540942060437702 0 -1 1
2332 1 22.36593558411335 14.142409813172556 16.436708171139923 0 1 0
2586 1 29.64583151582186 22.71528670745365 1.4999752968996032 1 1 0
1019 1 31.882000188386197 23.945712193149234 0.4193516064381614 0 0 1
3333 1 37.91819750509748 23.850807614685397 1.715631503956026 0 0 1
1320 1 42.74220235776751 22.681968520432807 2.2630202169206544 0 0 1
2139 1 46.3986080611992 23.68039783704757 0.5987674082994479 0 0 0
1353 1 2.7975629246884113 1.307981644551396 5.596373785100049 1 0 0
671 1 5.621988547424078 2.3268729365953402 5.653560124687708 1 0 0
1141 1 6.155752367442308 0.9481665187567974 3.2596992175156436 1 0 0
3104 1 11.758191699756516 2.08190556489775 3.6806319178666653 0 0 1
3325 1 47.778469641985055 22.679775944297663 16.421219454121346 -1 0 0
212 1 13.957410807228332 0.7771085067665817 6.446947542691931 0 1 0
626 1 14.484220899267504 1.652175256736593 3.837025098552542 0 0 0
1232 1 10.797922048725207 12.488616134204008 -0.24254224693948834 1 0 1
4125 1 20.67538111797319 2.4171215423927124 2.563534680765305 0 1 1
1531 1 24.368241520329814 2.5417129895440547 6.377168910782961 0 0 1
3467 1 29.914982217510754 2.5556518080851593 2.5097903677674487 0 1 0
67 1 29.04559413003754 0.7261109393815315 4.873072545519422 0 0 0
3618 1 35.74136372898832 3.0068472525953323 3.3764008737867917 0 1 1
3606 1 37.31683657198083 2.713936039837195 6.0724522163075765 0 1 1
636 1 28.25261158625968 23.252684186581636 4.870292904093264 0 0 0
1973 1 37.98430274118874 4.967246261579888 7.826383022419227 0 1 1
10 1 44.67573341334847 0.9937504225484564 4.783053085730461 0 0 0
1147 1 41.966957706472954 1.7052495958620342 4.116812481676122 -1 1 0
946 1 20.30393607043243 1.9461237779479426 -0.29838116177491025 0 0 0
372 1 1.5338086845960452 3.083860317202242 4.0392853839900065 1 0 0
2999 1 2.786633618673619 5.457794419715232 3.2628336427357842 1 1 0
2364 1 6.3153424581693365 3.668413012386033 2.379835576069311 0 1 0
3287 1 6.510694154158881 4.849227165202711 4.84510142871689 1 0 0
2565 1 11.760616149402326 4.034427819203232 5.679916115436094 0 0 0
2745 1 13.873971337886385 5.517951336487268 4.799148421869801 0 1 0
3901 1 15.413268022490445 4.120839082370083 2.9754960728041464 0 1 1
497 1 18.45458533928912 4.024763796300335 3.5890205491361815 0 0 0
641 1 23.323609745934554 2.8167985955659445 3.7553231813080954 0 0 0
1431 1 22.531692455853854 5.612785526658145 4.239018407421535 0 0 1
2065 1 28.909151399256913 4.113013254353069 4.297390613902872 0 0 1
1684 1 32.62228997833198 3.103034281133681 3.3318962930287204 0 0 1
373 1 34.334112757679904 3.4572918427119737 6.329312753853524 0 0 0
1489 1 39.705617943212246 5.997532369596828 5.72418309826264 0 0 1
2394 1 41.80378830143512 4.461216541424717 4.786863983900772 0 1 0
3281 1 46.432421529471796 2.6822599244038408 3.398917898017222 -1 1 1
4103 1 46.648030602308154 5.812179937009965 4.441574229238735 -1 1 1
3030 1 48.59673529773053 3.374041315830738 5.320628540356572 0 1 0
276 1 0.9723559813814078 7.089627697627133 2.4785371733247277 0 0 0
829 1 -0.3971328466722403 7.006579148179374 5.029709016532389 0 1 1
1543 1 4.440603854632935 6.582770010204278 5.109950309978609 1 0 1
2653 1 9.774882501003235 7.86934818968828 4.643589656200095 1 1 0
9 1 12.797594484461612 7.975426599460654 5.215090408419941 0 0 0
1009 1 20.540955049763763 9.390342923338949 3.2325946237667056 1 0 1
197 1 26.1646370656943 7.901378585505679 3.101258997883871 0 0 0
3082 1 24.11339181159121 7.621382581636274 4.806078770537297 0 0 0
2233 1 30.157511840989194 8.543913651386331 3.8267026542475735 0 1 0
3326 1 30.19406380603468 6.331039231665881 5.332089584355406 0 1 0
2681 1 32.8031880296606 5.630827274837433 4.68839108888352 0 1 0
526 1 34.31563686365841 8.201498123010193 3.2065151042162654 0 0 0
2381 1 38.49130757591787 6.9764868634053645 3.8923295986257678 0 0 0
1852 1 37.009335829780554 8.810198761159176 1.6218222397823325 0 0 1
224 1 43.96486591278678 6.4293581301837985 3.8041073161624803 0 0 0
442 1 48.15292863402661 7.9166266035170345 4.299397451314251 0 0 0
2871 1 2.363132706692088 10.030620731766694 5.292716099228327 1 0 0
2891 1 4.989244332928031 9.281990504444614 5.004087646144173 0 0 1
94 1 8.370797258276394 12.126021022902806 6.162430116477153 1 0 0
3054 1 9.152717902462221 10.660039441807802 4.025565890576698 0 0 0
356 1 14.431535961240371 10.23099735831152 4.7224842487248635 0 0 0
3453 1 17.040991426670473 10.576872371187529 5.446145637789533 0 1 0
3444 1 17.641261554009155 10.431891989197496 2.951337169602899 0 0 0
3202 1 22.07433985546606 9.082974856166048 5.496768546166052 0 1 0
348 1 27.9149537442254 9.836565821309227 3.183350574219965 0 0 0
3899 1 27.096908133723645 10.90007290647133 5.598207059574899 0 1 1
1036 1 29.227568753079264 12.35782083924067 6.325925153817204 0 0 0
1779 1 31.066193919889052 10.618816621681676 5.5375396840410716 -1 1 1
1827 1 32.37682357187302 12.733494633914503 4.410110206012685 0 0 1
1425 1 33.06127147107783 10.004754552699547 7.276919701168356 0 0 1
1272 1 37.03951820055022 10.888506882265933 3.5248091232429006 -1 0 1
98 1 37.37622616771105 11.497903799683863 6.238456279114653 0 0 0
1896 1 40.152587837805385 9.755831706867887 3.9319909232938572 -1 0 0
3788 1 42.962326907994125 8.806410662660156 4.250373965812328 0 1 1
536 1 44.79907838667408 10.705446683967349 3.8031595741171964 0 0 0
1900 1 48.57323343140472 12.060211831291378 4.7552340271327855 0 0 1
142 1 0.41262308491170885 14.780541554046914 4.082120034831661 0 1 0
312 1 1.9180504427173841 12.6753547470292 5.559070890934964 0 0 0
1139 1 4.162955212149429 14.09468528031344 6.500442918708406 0 0 0
913 1 6.472703962965289 14.187011273882113 5.16524905397607 0 0 0
1473 1 10.894012642673868 14.473627371692816 4.487920106396292 1 0 1
3224 1 8.652848750043807 15.734547647015283 5.522112432319203 1 0 0
257 1 13.112088002673495 14.345821598631224 6.227684684717384 0 0 0
3796 1 14.97091149093148 15.091949322006446 4.727020585999768 0 0 0
3913 1 20.22174547782027 12.134078781809453 2.4050766994700767 0 1 1
2284 1 20.628564262560115 12.988103222701865 5.158091764458746 0 0 0
456 1 21.27823638136919 15.588391116918611 5.14834815002737 0 0 0
2522 1 25.155464747345327 12.82912494815508 4.6946336751557425 0 0 0
29 1 28.54733203844424 14.121509198811292 4.324664564065297 0 0 0
1592 1 26.069204062212442 15.662864988352002 4.499887463616202 0 -1 1
2373 1 34.15974197047359 14.654875613463235 6.020698573907947 0 0 0
1399 1 40.89889836049446 12.488596043524096 4.008523792892342 -1 0 0
436 1 38.71362941522024 13.808144683691964 5.556625343632812 0 0 0
223 1 43.505158827332494 12.95295407520224 4.949956704388679 -1 0 0
1614 1 46.3678902339764 13.869182095425769 4.677063382964343 0 0 1
562 1 49.71522437958984 13.05572389949492 2.2935856712471443 0 0 0
2702 1 5.965396884781917 18.67928657752171 3.323764766985223 0 0 0
543 1 8.64234895973708 18.359103408226993 4.27162262726158 0 0 0
3157 1 12.43279124381803 19.91031997691322 4.714976618126802 0 0 0
4110 1 16.209700067579515 17.431542607678434 4.262300300209237 0 0 1
3518 1 14.179621500089583 18.061934355940473 6.034942072271153 0 0 0
2612 1 19.20624767653593 17.179887995926034 4.146993161614738 0 0 0
322 1 23.584555079888958 16.55165721901282 4.076317349736819 0 0 0
270 1 27.52162538646593 17.44119451362527 2.5848076600491425 0 0 0
1694 1 30.451115340151336 15.758218585452337 3.3877496721502087 0 0 1
4021 1 31.879432972161435 16.00350377916055 5.943961653030614 0 0 1
1539 1 36.4575728171595 15.79662166402968 4.982989686723734 0 0 1
2025 1 39.611043898472204 16.274163099149664 3.9498524963049686 0 0 1
2392 1 42.3967007849451 15.442524960028472 3.9609431044853904 0 1 0
3861 1 43.02961847614114 17.051054277364052 6.342875456276382 0 0 1
2491 1 48.32691247538912 17.396237956516728 2.766983106117042 0 0 -1
1202 1 49.67004180292241 16.73333345864405 4.9654657567866165 0 0 1
3450 1 -0.1277780361853486 19.139219287821877 5.75955115809347 0 0 0
1796 1 0.6765662217390032 20.54250373497444 3.4638051419321974 1 0 1
362 1 4.767094652713143 19.160351635622746 5.738029797519486 1 0 0
2622 1 3.1579908952560127 21.314078480495564 4.894511364601627 0 0 0
1303 1 9.539242672519977 20.82109633828321 5.4035810988948265 0 0 1
2363 1 11.474651082977534 21.0010483181909 7.6731144467254335 0 1 0
1805 1 19.733303909199922 19.47956301978636 5.787173152959852 1 0 1
230 1 17.33728478376479 20.975417738083728 6.518652640875619 0 0 0
1018 1 21.57906169554326 20.47932484512551 4.331555400862596 0 0 0
440 1 24.72917359379848 20.325312054384874 5.009778664660497 0 0 0
2485 1 25.245764138646333 19.16261030873592 2.1321202514503828 0 0 0
2017 1 27.36283393716061 19.14564658436862 4.781495981625365 0 0 1
2504 1 29.34629217289767 20.75926301655758 3.630350962610475 -1 0 0
3042 1 32.27127378702947 20.737436057512156 4.743477598572509 0 1 1
1863 1 35.07962192638202 21.1371342492476 4.100341911350535 -1 0 1
1240 1 39.33307273080912 19.378654455531045 4.53095480511084 0 0 0
527 1 41.860584118792715 19.64895882005928 5.218979195078012 0 0 0
106 1 46.31285519249866 20.14412660627811 5.550828040542742 -1 0 0
148 1 48.94666118926223 22.07541405813941 13.713552182314585 0 0 0
629 1 9.05729940602273 22.012074634224412 2.8495438445187222 0 0 0
2796 1 47.207096196030946 24.35413779239695 6.819006742931859 0 0 0
1678 1 27.24448331284476 3.667196857858068 16.357764621131285 0 0 1
1892 1 14.3722524036863 23.70859254676988 6.481947665410009 0 0 1
1923 1 48.66484650257331 0.11832117519256302 3.667741545185584 0 0 1
1128 1 15.63818589968561 22.49500904554605 4.531439629420331 0 0 0
1264 1 21.730292929629602 23.205588447031108 4.799438920618326 0 0 1
50 1 11.038935398347833 7.564446706475124 15.05441584225049 0 0 0
168 1 25.831599194653887 22.780020617197835 5.922979022186216 0 0 0
1402 1 29.13545986619529 23.868025927814482 7.361243555299383 0 0 0
3431 1 39.895368255350746 0.9233455924027201 5.733232963978816 0 1 0
1448 1 33.5262281378652 23.456783112459323 2.630018253058409 0 0 1
2683 1 40.6493470409807 24.430805992472777 2.9583456118822222 0 0 0
2497 1 40.60188964526333 24.122176581308516 5.4462344467371135 0 0 0
409 1 44.96916856718923 23.740956502482575 3.1785061505581713 -1 0 0
4020 1 45.31085289914205 22.594717651732857 5.761197809113133 0 0 1
2823 1 50.50643187298884 22.787590045441412 2.9091125212189213 0 0 0
1607 1 49.483152696557 23.273993155140886 5.522366069269981 -1 0 1
3634 1 24.222157966352647 24.2485418740186 4.307342726742864 0 0 1
612 1 49.32502762000179 5.852328970737252 16.315779183137263 0 0 0
2808 1 13.129937905692318 10.47840954628806 -0.3085840937313961 1 1 0
102 1 9.673570452021014 2.01460034394911 9.374649166079847 0 1 0
1119 1 11.93513719515931 2.7138207039752675 8.177849323769658 0 0 0
2207 1 18.053006898298552 2.293790502748901 7.7550123644948705 0 1 0
2155 1 20.47357322373171 1.3426022958534263 8.940539473563879 0 1 0
3246 1 27.198773033897904 3.0156973005116146 6.449005837808776 0 1 0
352 1 24.83474766409706 0.6238842758638656 8.788635855690002 -1 1 -1
3417 1 28.21935216010983 4.854011574450455 -0.33536686091542217 0 1 0
3958 1 31.812880479874966 1.646016331725158 9.685012250036273 0 0 1
3898 1 32.91571507132784 1.0512203632080779 7.0910881867462825 0 1 1
706 1 36.656612352770125 1.393560595544736 8.610046002362314 0 0 0
654 1 40.44711759612477 -0.19127658499033096 2.3404465051391603 0 0 0
1065 1 41.244881900298665 23.280716730784526 15.691880777267514 0 0 0
3988 1 19.51650280781589 0.42600503540221224 15.963093198111974 1 1 0
1814 1 45.29054977684274 1.1432700600877803 7.431186962335098 0 0 1
398 1 49.61532309153499 1.626422627410347 8.314067372660336 -1 1 0
78 1 46.550214728071154 4.99476515721848 16.10170068389714 -1 0 -1
3454 1 -0.06957155384008806 3.786167409802675 8.343964918219568 0 1 0
3338 1 2.637048128338006 3.5192090126393616 7.610659244300974 0 1 0
2290 1 9.108042785523416 5.311633737547551 5.8834052331694915 0 0 0
3439 1 12.303856793956397 5.117786650327849 9.700567203920262 1 0 0
2618 1 15.001771014732428 5.352385153821128 9.411271400920011 0 1 0
2737 1 18.32391810026567 4.497833893440911 6.327337194078793 0 1 0
1783 1 21.033930144490885 5.3080623374548885 6.524966535716737 0 0 1
2312 1 22.378761694570663 3.0306539849772958 8.154829796520486 0 1 0
2609 1 26.685050789134788 5.119282986682541 8.14512011410605 0 1 1
3383 1 31.31035133329915 4.664789495303504 9.201938931157239 -1 0 0
3683 1 34.07222108575064 5.240315241893134 8.505081609271715 0 1 1
2709 1 35.486384404623976 3.342800969508636 10.199641857474353 0 1 0
1570 1 37.52444011125607 7.293405776749655 9.219285799838191 0 0 1
3880 1 40.374088978427 3.123588112059333 7.990012025503127 0 1 1
1310 1 42.45686520673131 4.80036308946428 7.656885591107084 -1 0 0
3366 1 45.0782183936941 3.760778379306487 8.042770234904488 -1 1 1
1434 1 47.34406677454835 5.235875186496792 7.120823698957961 0 1 0
625 1 -0.09875744554235427 4.473826403976219 5.761499440413902 0 0 0
233 1 2.414106187190583 7.614687567100358 9.007309633437195 0 0 0
1477 1 0.7923671233099663 8.616114946802188 6.818946437883764 0 0 1
807 1 4.100887057498006 5.961786908959256 7.555695750593408 1 0 0
3630 1 6.348311424515602 6.260144315774593 9.034866906315141 0 1 1
517 1 8.266019993038448 7.69384218241658 7.842310447038425 0 0 0
272 1 10.342141387111372 8.74305077843925 9.37900548715025 0 0 1
3685 1 12.308242963470718 7.258594553247742 8.282580313657652 0 0 1
2581 1 15.8870975609085 5.713401971495723 6.7410644860344995 0 0 0
689 1 16.783804805459805 8.445885198421626 7.124230865174001 0 0 0
2399 1 18.957463541137408 8.035082536780195 9.031054632356511 1 1 0
4093 1 21.28349742123869 7.586580971608754 7.686054061403862 0 0 1
3675 1 23.585436558164766 7.845916212578217 9.321053866651303 0 0 1
3922 1 25.309154074807868 7.270145512485672 7.330422997357925 0 1 1
433 1 29.298081285322784 6.11779209052784 7.934976228561117 0 0 0
1172 1 28.961989236687 8.507097171423679 9.247981892545393 0 0 1
1710 1 34.19561727051456 7.474126124686206 6.31979645056203 0 0 1
4116 1 36.78644987261768 8.233441541514702 6.017985035197371 -1 1 1
3322 1 41.635599812638475 7.044071717264485 9.031577657451614 0 1 1
195 1 4.447870247368461 10.243529945823466 8.808916245252808 0 0 0
640 1 6.69031590259997 10.033256867040372 7.0918166758720185 0 0 0
2021 1 10.62540625385419 11.541417869704713 8.090282441106668 0 0 1
2154 1 13.541380547301099 11.600960372504732 6.965457849971805 1 1 0
1866 1 19.19219354653824 10.830874903971104 9.238977957365233 -1 0 1
610 1 22.834833911364314 11.948513491106256 6.136321937527242 0 0 0
3724 1 26.588314307157308 9.444690863844428 7.924517018820939 0 1 0
357 1 31.180470686481968 10.044123753529671 9.320340810088775 0 0 0
1790 1 35.122079465346815 11.622831494276156 7.641183293448913 0 0 1
1476 1 39.977105352955675 8.554459881606943 6.690646446652756 0 0 1
395 1 38.314256597793246 10.873367270420731 8.750956636083568 0 0 0
3331 1 42.71082595112286 9.282154161675631 7.065461298936218 0 1 0
2921 1 46.81527611749611 10.11993169920984 5.39895278087874 0 1 1
4031 1 45.55471417786265 9.764431657391373 8.029795061804395 0 1 1
4044 1 50.11859457646712 10.577624379920575 7.952282705369807 0 1 1
1898 1 4.245903033132757 13.173520368821613 9.037012555093277 1 0 1
1583 1 15.259341428601086 12.78235908978597 9.087594719585734 0 0 0
4006 1 16.60041175143494 14.367651191395632 7.048766290624148 0 1 0
1155 1 18.583654560077292 12.260959282628862 6.8644087221186885 0 0 0
1759 1 23.110038129091826 12.233280964678112 8.901716108177348 0 0 1
657 1 29.736870360295367 14.78103046441244 7.5507597781083415 0 0 0
819 1 31.60330922984404 12.878118063696183 9.673253756952692 -1 0 1
206 1 35.21119642708304 14.335474340897411 8.550413266346947 0 0 0
3380 1 39.63404147898106 14.990628270302444 7.961943230220308 0 1 0
3126 1 40.394726949558006 12.764588106644114 9.316038272792886 -1 1 1
1083 1 42.774423188001506 11.97524744684389 7.581058234798503 -1 -1 1
1398 1 50.3760550031631 12.7964958807898 6.584117140686198 0 0 0
2870 1 49.68723252948155 14.638885211978465 8.348485151119958 -1 0 0
154 1 0.08829477130144558 16.600636861123654 9.382602890711546 0 0 0
3336 1 1.525360818572417 18.242272093854147 7.9519264766192475 0 0 0
502 1 3.846426405379403 17.078347515190256 7.441674259191686 0 0 0
2688 1 4.976562939881449 17.02820802644299 9.901152689151417 1 1 -1
1175 1 7.1710955868315205 18.57896259416841 9.401307753504529 0 0 0
540 1 8.897154262849392 16.46861851354279 8.162830091727496 0 0 0
692 1 12.37720874368585 16.577379533874197 7.863865920655199 0 0 0
1058 1 10.73775651796831 18.82157088136395 9.026888168367263 0 0 0
202 1 20.961292643840096 16.170671578370282 7.967254009538145 0 0 0
3432 1 27.796919261101525 18.629271792774535 7.437153207361122 0 0 0
3569 1 27.386846668766886 15.92919374420109 7.141863741675636 0 1 0
448 1 31.83753027266727 18.83601784351419 6.795531170934881 0 0 0
2086 1 29.96749605419277 19.333240943813774 8.797607373585938 0 0 1
3369 1 37.431332540561854 15.98993014705525 9.260056417072864 0 1 0
314 1 36.44796623538116 17.464179062145476 7.110582960781902 0 0 0
27 1 41.51439706176889 17.001675066823683 8.526937475818787 0 0 0
3477 1 47.520816863140155 15.771677986893607 6.317603443776925 0 1 0
609 1 45.592259152960324 17.74465676299801 6.72805598895793 0 0 0
2573 1 2.1856016766846236 20.833207797443848 9.365481323906387 1 0 0
3081 1 7.085741081314866 19.880429990260936 6.810766707985468 0 0 0
407 1 13.83167630964902 21.90661758691932 8.424167237038864 0 0 0
1865 1 15.51610956683794 19.70233285547138 7.657328270176844 1 0 0
501 1 19.003283486904056 19.69930759825349 9.894421360955684 0 0 0
909 1 20.95253313918901 18.71552574062668 7.9812186102949365 0 -1 0
349 1 23.780183544881957 19.821222952996973 7.650963680085614 0 0 0
2840 1 25.928007426995983 19.58517058690832 9.485835563639315 0 1 0
431 1 29.112605040964183 22.02620682856536 9.431426441360719 0 0 -1
531 1 34.20366940260854 18.696528505224048 8.31945815386711 0 0 0
2110 1 35.038742095021405 21.23835062599453 8.540690156560014 0 0 0
4122 1 38.312492267915474 19.568417441684375 6.696338862555705 0 1 0
2129 1 40.216592462996886 19.533676762452615 8.705759447494327 0 0 0
1839 1 42.0637943940166 21.5766846210687 8.930815816855395 0 0 1
3059 1 48.41473947595303 21.187597513716714 9.222333906251368 -1 0 0
1245 1 48.88741723787723 20.858392043164525 6.665703976955107 0 0 0
3803 1 0.2186918858403325 24.119632548408283 7.1149887460252685 1 0 1
3642 1 4.879714981168433 24.39884801093431 6.963521777949656 0 0 1
1815 1 2.463799114168054 22.792022826512156 7.028455568090847 0 0 1
1410 1 6.739230014650799 22.57325426479551 8.19147127919289 0 0 0
846 1 9.274331810446071 23.219736692203576 7.574737993841238 0 0 0
2749 1 20.983452731958348 23.522303758361364 7.568522019690402 0 0 0
3292 1 18.63905580647193 22.293739385323644 8.638607214550133 0 0 1
225 1 22.961905288695384 22.304523702747034 8.880411725716982 0 0 0
2509 1 25.35348550359885 23.652007827043743 8.546748052244888 0 0 0
3914 1 31.75158300198836 22.953439780066656 6.4335189629152865 -1 0 1
1883 1 32.82893928186445 22.616152039063703 8.816572368271643 0 0 1
3610 1 36.70888611437978 21.77470001772212 6.595262869396034 0 0 1
1781 1 37.7953557610212 24.17262590817406 6.170151258682503 0 0 1
3613 1 42.585950061226214 22.119500114796747 6.481836626545526 0 1 1
3888 1 16.34232039158498 24.68646430267211 2.8272654752574273 0 0 1
1669 1 2.354317080206722 -0.0635546046183938 11.334232321879382 1 0 0
3794 1 2.9853336289634824 2.469441435080251 10.210020864197475 0 1 1
2887 1 5.630193988892561 1.6996595933449887 10.072402897146146 1 1 0
3076 1 23.66090538439411 10.526793851414306 15.72225230042682 0 0 0
1593 1 10.3210028538772 1.4783360407433888 12.082698377094012 0 0 0
1745 1 14.082467624389437 1.5144377265263254 9.909609755015438 1 0 1
3118 1 13.093835149723143 1.419280698005178 12.48083762654452 1 0 0
441 1 19.465543466856577 0.5387900836507016 11.655551690729522 0 0 0
3125 1 22.075856730273937 -0.11000784332394503 12.659041392744863 0 1 1
1594 1 23.41810591211435 2.504679080127245 13.196073113032291 0 0 0
3107 1 28.938878744437964 1.0123860747492495 10.175654442349483 1 1 0
2880 1 27.50112426144005 0.9908460434041464 12.639041212854256 0 1 0
3259 1 33.30238522478062 2.7902086454064094 12.118056856322044 0 0 0
3847 1 37.09533613223658 1.3020814303328838 12.500600037259444 0 1 0
881 1 42.23843296361633 3.3872713975381314 11.574495155801158 0 0 1
2151 1 40.819012764927024 1.3754576380925028 10.151049902251922 0 1 0
2614 1 44.820410854566674 3.144152269879354 10.8205177361028 -1 1 0
1876 1 48.7471353471642 1.2143334245725645 11.010112093365434 0 0 0
566 1 3.146605804356337 4.7525923810506905 11.73403994216324 0 0 0
3852 1 7.354434315705172 3.68306624018152 9.678079170460313 1 1 1
1696 1 7.450352658084867 4.299960230929614 12.515612220137209 0 0 1
2649 1 11.457461537113153 5.89502218422411 12.34240512746851 1 1 0
3605 1 16.227791561794668 3.0039105091536777 9.851097777396266 1 1 1
1962 1 15.852764072504705 7.010842357229394 11.564252827948927 0 0 0
47 1 17.531680087766958 2.8375486346063314 12.535093340186926 1 0 -1
1080 1 19.161059880596348 5.0729643927489 12.876208684196255 0 0 0
2378 1 21.863317633218948 4.752062992817288 12.31054007950888 0 1 0