
# Create simulation box of size 50 x 50 x 50 Angstrom
#
lattice	            sc 1
Lattice spacing in x,y,z = 1.0000000 1.0000000 1.0000000
region 	            all block 0 50 0 50 0 50 units box
create_box          1 all
Created orthogonal box = (0.0000000 0.0000000 0.0000000) to (50.000000 50.000000 50.000000)
  1 by 2 by 3 MPI processor grid

# fill box with 4175 randomly distributed atoms
#
create_atoms        1 random 4175 63782 all
Created 4175 atoms
  create_atoms CPU = 0.000 seconds
mass                1 18.015

# Define potential
#
pair_style          sw
pair_coeff          * * ML_mW.sw mW
Reading sw potential file ML_mW.sw with DATE: 2019-02-27

# Run minimization
#
minimize            1.0e-8 1.0e-8 10000 1000
WARNING: Using 'neigh_modify every 1 delay 0 check yes' setting during minimization (../min.cpp:187)
Neighbor list info ...
  update every 1 steps, delay 0 steps, check yes
  max neighbors/atom: 2000, page size: 100000
  master list distance cutoff = 6.0032907
  ghost atom cutoff = 6.0032907
  binsize = 3.0016454, bins = 17 17 17
  1 neighbor lists, perpetual/occasional/extra = 1 0 0
  (1) pair sw, perpetual
      attributes: full, newton on
      pair build: full/bin/atomonly
      stencil: full/bin/3d
      bin: standard
Per MPI rank memory allocation (min/avg/max) = 4.255 | 4.258 | 4.261 Mbytes
Step Temp E_pair E_mol TotEng Press 
       0            0    7792709.3            0    7792709.3    5898794.3 
     630            0   -45180.336            0   -45180.336   -154.07449 
Loop time of 1.56738 on 6 procs for 630 steps with 4175 atoms

98.0% CPU use with 6 MPI tasks x no OpenMP threads

Minimization stats:
  Stopping criterion = max force evaluations
  Energy initial, next-to-last, final = 
      7792709.32924461  -45180.0188663597   -45180.336116598
  Force two-norm initial, final = 2.0191930e+08 4.9721331
  Force max component initial, final = 1.0948746e+08 0.73126211
  Final line search alpha, max atom move = 0.053306038 0.038980685
  Iterations, force evaluations = 630 1000

MPI task timing breakdown:
Section |  min time  |  avg time  |  max time  |%varavg| %total
---------------------------------------------------------------
Pair    | 1.039      | 1.1943     | 1.3628     |  10.5 | 76.19
Neigh   | 0.025129   | 0.02864    | 0.031552   |   1.4 |  1.83
Comm    | 0.14293    | 0.31436    | 0.47261    |  20.8 | 20.06
Output  | 0          | 0          | 0          |   0.0 |  0.00
Modify  | 0          | 0          | 0          |   0.0 |  0.00
Other   |            | 0.03013    |            |       |  1.92

Nlocal:        695.833 ave         704 max         685 min
Histogram: 1 1 0 0 1 0 0 1 0 2
Nghost:        1494.17 ave        1515 max        1468 min
Histogram: 1 1 0 0 0 0 1 1 1 1
Neighs:        0.00000 ave           0 max           0 min
Histogram: 6 0 0 0 0 0 0 0 0 0
FullNghs:      19997.0 ave       20462 max       19320 min
Histogram: 1 1 0 0 0 0 0 2 0 2

Total # of neighbors = 119982
Ave neighs/atom = 28.738204
Neighbor list builds = 26
Dangerous builds = 0

# Add velocity/set timestep
#
velocity            all create ${TEMP} 120598 rot yes dist gaussian
velocity            all create 230 120598 rot yes dist gaussian
timestep            5.0

# Define output
#
compute	            1 all msd
thermo	            100
thermo_style        custom step temp press vol etotal ke pe c_1[4] density

# Neighbor lists
#
neigh_modify        delay 0 every 1 check yes

# Set fixes
#
fix                 1 all momentum 10 linear 1 1 1 rescale
fix                 2 all nve
fix                 3 all temp/csvr ${TEMP} ${TEMP} 500.0 928347
fix                 3 all temp/csvr 230 ${TEMP} 500.0 928347
fix                 3 all temp/csvr 230 230 500.0 928347
fix                 4 all press/berendsen iso ${PRES} ${PRES} 1000.0 modulus 20000
fix                 4 all press/berendsen iso -800 ${PRES} 1000.0 modulus 20000
fix                 4 all press/berendsen iso -800 -800 1000.0 modulus 20000

# Run 0.5 ns equilibration
#
dump                1 all custom 1000 eq.${NAME}.dump id type x y z vx vy vz
dump                1 all custom 1000 eq.liquid_density_MLmW.dump id type x y z vx vy vz
run                 100000
Per MPI rank memory allocation (min/avg/max) = 3.506 | 3.508 | 3.511 Mbytes
Step Temp Press Volume TotEng KinEng PotEng c_1[4] Density 
     630          230    892.42114       125000   -42318.699    2861.6373   -45180.336 2.7295415e-33   0.99914793 
     700    146.36801   -658.73394    126214.38   -41429.277    1821.0963   -43250.373   0.27755521   0.98953453 
     800    181.16896   -831.96218    126618.25   -40615.726    2254.0863   -42869.813   0.64413828   0.98637828 
     900    202.96125   -706.46962    126952.17   -40155.956    2525.2238    -42681.18    1.1162647   0.98378386 
    1000    210.68283   -833.17604    127089.26    -39865.18    2621.2949   -42486.475    1.5658068   0.98272261 
    1100    217.18235   -721.89869    127483.34   -39654.879    2702.1613   -42357.041    1.9478637   0.97968479 
    1200    221.61106   -553.69668    127676.26   -39670.273     2757.263   -42427.536    2.3468078   0.97820453 
    1300    228.62491   -798.62182    127940.23   -39648.546    2844.5286   -42493.074    2.7963395   0.97618627 
    1400    223.23668   -568.69368    128121.62   -39666.809    2777.4887   -42444.297    3.2411002   0.97480416 
    1500      225.707   -735.63336    128219.75   -39609.324    2808.2242   -42417.548    3.5898331   0.97405817 
    1600    233.14821    -908.5192    128354.82   -39506.522     2900.807   -42407.329    3.9507472   0.97303313 
    1700    225.71072   -743.37588     128548.5   -39520.378    2808.2704   -42328.649    4.3785678   0.97156709 
    1800    223.36434    -734.4217    128694.81   -39623.543     2779.077    -42402.62     4.781972   0.97046254 
    1900    229.12438   -602.07925    128702.65   -39624.434    2850.7428   -42475.177    5.1347541   0.97040339 
    2000     228.5604   -545.85048    128763.76   -39585.335    2843.7259   -42429.061    5.4473187   0.96994284 
    2100    228.55867    -752.1398    128901.37   -39537.328    2843.7044   -42381.033    5.7966132   0.96890739 
    2200    231.16077   -911.91821    128731.17   -39572.385    2876.0795   -42448.464    6.0349408   0.97018839 
    2300    233.50406   -868.29166    128603.32   -39551.561    2905.2344   -42456.795    6.3688619    0.9711529 
    2400    234.98079   -735.39244    128690.42    -39583.15    2923.6078   -42506.758    6.7596482   0.97049567 
    2500    233.69127   -683.52731     128751.8   -39566.992    2907.5637   -42474.556    7.2198673   0.97003299 
    2600    240.15759   -697.54072    128922.08   -39516.943     2988.017    -42504.96    7.5027159   0.96875173 
    2700    236.84291   -611.41246    128857.09   -39547.926    2946.7761   -42494.703    7.7022236   0.96924038 
    2800    236.10451   -573.34159    129110.27   -39536.836     2937.589   -42474.425     8.058448    0.9673397 
    2900    235.07948   -703.75206    129257.79   -39608.674    2924.8356    -42533.51    8.3258009   0.96623567 
    3000    229.99178   -682.80581    129209.66   -39649.211     2861.535   -42510.746    8.5876046   0.96659561 
    3100    232.51875   -864.42545    129307.85   -39625.636    2892.9753   -42518.612    9.0464452   0.96586162 
    3200    225.89727   -708.80078    129333.64   -39661.164    2810.5915   -42471.756    9.3525131   0.96566905 
    3300    231.43701   -751.97106    129227.07   -39641.797    2879.5165   -42521.314    9.6596221   0.96646537 
    3400    227.71699   -780.42913       129129   -39677.003    2833.2323   -42510.236    9.9658795   0.96719938 
    3500    233.70924   -799.14469    129158.56   -39720.109    2907.7873   -42627.896    10.327464   0.96697803 
    3600    231.13145   -804.73046    129261.15   -39770.578    2875.7147   -42646.293    10.836481   0.96621061 
    3700    225.63219   -577.61167     129518.6   -39836.273    2807.2934   -42643.566     11.17905   0.96428997 
    3800    232.63727   -833.11659    129666.31   -39797.123    2894.4499   -42691.572    11.491663   0.96319153 
    3900    232.42664    -739.3627    129780.42   -39851.166    2891.8293   -42742.996    11.894122   0.96234462 
    4000    230.12967   -826.45324    129932.43   -39860.979    2863.2507   -42724.229    12.133142    0.9612188 
    4100    230.17825   -756.08656       130076   -39855.408     2863.855   -42719.263    12.265566    0.9601578 
    4200    228.86882   -719.34054    130161.75   -39881.336    2847.5633   -42728.899    12.426327   0.95952528 
    4300    232.09619   -689.36215    130332.94   -39873.484    2887.7179   -42761.202     12.61255   0.95826495 
    4400    230.38573   -775.56794    130458.69   -39879.197    2866.4364   -42745.634    12.789351   0.95734126 
    4500    228.11346   -666.21806    130789.47   -39885.017    2838.1651   -42723.182     13.07487   0.95492006 
    4600    226.19772   -751.77558    130722.07   -39941.254    2814.3297   -42755.583    13.336618   0.95541247 
    4700    233.37501   -810.08997     130759.2   -39866.495    2903.6288   -42770.123    13.511131   0.95514111 
    4800     230.7033   -813.33557    130857.86   -39934.736    2870.3876   -42805.124    13.801381   0.95442102 
    4900    232.50151   -825.42909    130865.24   -39827.108    2892.7608   -42719.869    14.178326   0.95436721 
    5000    234.74682   -626.90012    131206.68    -39787.28    2920.6968   -42707.977    14.501538   0.95188366 
    5100    235.94639   -797.71486    131017.03   -39870.917    2935.6216   -42806.538    14.596965    0.9532615 
    5200    232.35479   -929.85418    130999.41   -39947.129    2890.9353   -42838.064     14.83121   0.95338972 
    5300    234.65205   -744.85164    130905.36   -39929.946    2919.5176   -42849.464    14.933381   0.95407472 
    5400    234.70036   -775.10365    130982.91   -39974.107    2920.1187   -42894.225    15.187036   0.95350979 
    5500    227.61495   -911.45858    131032.36   -39982.024    2831.9627   -42813.986    15.241658   0.95314997 
    5600    230.68716    -868.7489    131121.75   -39988.762    2870.1868   -42858.949    15.374898   0.95250018 
    5700    228.48771   -719.47047    131166.78   -39988.739    2842.8215   -42831.561    15.494603   0.95217321 
    5800    229.56843   -853.25893    131182.93   -40037.994    2856.2677   -42894.262    15.580577   0.95205599 
    5900    231.27231    -844.9691    130972.85   -40079.282    2877.4672   -42956.749    16.012828   0.95358307 
    6000    230.77479   -867.80219     131015.9    -40089.49    2871.2771   -42960.767    16.259228   0.95326971 
    6100    230.97215   -768.89563    131005.55   -40038.722    2873.7327   -42912.455    16.496602   0.95334503 
    6200    226.46907   -767.36547    131239.81   -40099.201    2817.7057   -42916.907    16.780885   0.95164334 
    6300    231.83432    -678.5483    131359.35   -40053.782    2884.4597   -42938.242    16.797988    0.9507773 
    6400    235.58179   -865.02751    131451.19   -40025.695    2931.0854    -42956.78    16.900365   0.95011307 
    6500    231.36849   -777.93851    131345.35   -39973.265    2878.6639   -42851.929    17.083351   0.95087863 
    6600    227.30318   -715.63614    131440.64   -40054.457    2828.0837   -42882.541    17.346888   0.95018928 
    6700    224.96901   -913.06479    131251.33     -40125.2    2799.0422   -42924.242    17.670547   0.95155984 
    6800    230.74459   -927.18165    131343.45   -40036.072    2870.9013   -42906.974    17.893967   0.95089242 
    6900      231.612   -778.87155    131325.77   -39978.079    2881.6936   -42859.772    18.132969   0.95102042 
    7000    230.10692   -872.12697    131258.44   -39983.697    2862.9676   -42846.665    18.239948   0.95150824 
    7100    237.09619   -586.89367    131281.27   -40005.374    2949.9274   -42955.302    18.409625   0.95134283 
    7200    230.36839   -888.62672    131379.14   -40058.824    2866.2208   -42925.045    18.608489   0.95063408 
    7300    224.66037   -728.08033     131287.1   -40120.027    2795.2021   -42915.229    18.710434   0.95130058 
    7400     229.6412    -695.5181    131466.73   -40137.883    2857.1731   -42995.056    18.829382   0.95000071 
    7500     230.6566   -833.56486    131480.52   -40104.122    2869.8066   -42973.929    19.350736   0.94990111 
    7600    223.83918   -817.52762    131541.83   -40194.651     2784.985   -42979.636    19.522272   0.94945839 
    7700    230.52383   -766.14539    131620.93   -40093.999    2868.1547   -42962.154    19.547412    0.9488878 
    7800    228.37214   -710.00083    131696.19   -40079.911    2841.3835   -42921.294    19.926089   0.94834551 
    7900    225.21092   -1017.9302    131745.14   -40142.574     2802.052   -42944.626    20.237559   0.94799319 
    8000    230.97459   -829.10901    131756.33   -40117.441     2873.763   -42991.204    20.283084   0.94791265 
    8100    229.07328   -827.90478    131530.59   -40190.344    2850.1071   -43040.451    20.329444   0.94953951 
    8200    226.14229   -908.47235     131437.8   -40204.224      2813.64   -43017.864    20.485684   0.95020981 
    8300    227.01529    -718.3266    131588.86   -40191.055    2824.5018   -43015.556     20.59201   0.94911904 
    8400    232.75624   -689.91082    131611.44   -40134.555    2895.9302   -43030.485    20.919302   0.94895617 
    8500    232.23916    -821.7227     131725.4   -40064.107    2889.4966   -42953.604    20.913255   0.94813525 
    8600    229.86255   -959.75652    131716.72   -40090.505    2859.9271   -42950.432    21.408666   0.94819769 
    8700    230.36093   -874.10784    131630.18   -40083.478    2866.1279   -42949.606    21.601774   0.94882109 
    8800    227.53744   -765.84153    131847.29   -40129.137    2830.9984   -42960.136    21.806754    0.9472587 
    8900    228.37122   -772.49717    132118.67   -40219.711    2841.3721   -43061.083    22.015058   0.94531295 
    9000    227.31147   -1017.3962    132017.96   -40189.596    2828.1868   -43017.782    22.186977   0.94603412 
    9100    226.68294   -739.15603    131879.68    -40255.93    2820.3667   -43076.297    22.408211   0.94702605 
    9200    230.29012    -819.2705    131998.04   -40159.319    2865.2469   -43024.566    22.559461   0.94617689 
    9300    226.34212   -885.42473    132075.99   -40205.621    2816.1263   -43021.747     22.87594   0.94561841 
    9400    229.67638    -588.8875     132134.8   -40176.259    2857.6108   -43033.869    23.005589   0.94519757 
    9500    232.46365   -960.29885    132149.61   -40202.385    2892.2898   -43094.674    23.064578   0.94509167 
    9600     227.8625   -818.05421    131867.63   -40179.601    2835.0427   -43014.644    23.049615   0.94711257 
    9700    231.75944   -738.33287    132161.03   -40110.652     2883.528    -42994.18    23.259326   0.94500994 
    9800    226.34991   -760.10422    132135.54   -40187.775    2816.2233   -43003.999     23.42385   0.94519228 
    9900    227.00777   -720.86763    132329.26   -40266.446    2824.4082   -43090.854    23.509078   0.94380859 
   10000    228.63316    -853.7589     132206.1   -40273.883    2844.6312   -43118.514    23.551644   0.94468781 
   10100    224.07452    -745.9418    132354.95   -40234.209    2787.9131   -43022.122    24.045844   0.94362536 
   10200    228.53579   -799.15517    132420.55   -40287.431    2843.4197   -43130.851    24.211607   0.94315791 
   10300    229.51937   -842.94214    132248.67   -40296.024    2855.6574   -43151.681    24.287131   0.94438373 
   10400    228.51618   -699.20928    132312.35   -40237.439    2843.1757   -43080.614    24.436308   0.94392921 
   10500    232.28984   -824.18492    132444.21   -40212.666    2890.1272   -43102.793    24.519188   0.94298946 
   10600    232.35051   -851.51124     132487.4   -40147.476    2890.8821   -43038.358    24.772742     0.942682 
   10700    233.74832   -770.76299    132418.32   -40141.255    2908.2736   -43049.528    24.681055   0.94317384 
   10800    232.61776   -834.20454    132514.69   -40113.065    2894.2071   -43007.272    24.925694   0.94248789 
   10900    231.28296   -717.30004     132536.2   -40138.394    2877.5997   -43015.994    25.150289   0.94233496 
   11000    232.51646   -692.90111    132748.12   -40132.376    2892.9468   -43025.323    25.217077   0.94083058 
   11100    226.32437   -855.75295    132745.65    -40172.01    2815.9054   -42987.915    25.431136   0.94084809 
   11200    232.09604   -756.11877    132551.15   -40173.032     2887.716   -43060.748    25.562403   0.94222868 
   11300    232.37489   -692.39468    132662.82   -40186.604    2891.1854   -43077.789    25.522988   0.94143552 
   11400    228.83611   -806.88906    132608.55   -40200.742    2847.1562   -43047.899    25.601428    0.9418208 
   11500    233.27654   -663.40945    132409.86   -40248.652    2902.4036   -43151.055    25.810069   0.94323408 
   11600     230.1712    -731.2452    132600.08   -40262.896    2863.7673   -43126.663    26.136674   0.94188095 
   11700    236.39729   -709.27189    132538.47   -40159.676    2941.2317   -43100.907    26.387037   0.94231877 
   11800    228.65225   -881.72474    132715.72   -40233.103    2844.8686   -43077.971     26.57842   0.94106028 
   11900    228.40155    -726.9627    132590.64   -40246.346    2841.7495   -43088.095    26.813987   0.94194804 
   12000    229.05692   -744.34093     132909.1   -40236.122    2849.9035   -43086.026    26.778824   0.93969106 
   12100     232.2939    -874.6852    132914.27   -40183.731    2890.1778   -43073.909    26.986978   0.93965453 
   12200    230.72949   -927.74993    132865.28   -40191.461    2870.7135   -43062.174    27.194072   0.94000099 
   12300    234.11515   -779.31738    132737.67   -40205.265    2912.8375   -43118.103    27.528235   0.94090462 
   12400    232.55691   -680.53406    132684.87   -40180.224    2893.4501   -43073.674    27.814745   0.94127908 
   12500    224.70286   -976.30776    132566.81   -40282.601    2795.7308   -43078.331    27.517619   0.94211737 
   12600     231.7743   -770.08853    132527.65   -40196.341     2883.713   -43080.054     27.69122   0.94239574 
   12700    234.59665   -802.31115    132523.91   -40167.644    2918.8283   -43086.472    28.017075   0.94242232 
   12800    234.94997   -839.26507    132567.94   -40158.886    2923.2243   -43082.111    28.243002   0.94210932 
   12900    232.38488   -660.79265    132622.58   -40210.482    2891.3097   -43101.792    28.395595   0.94172114 
   13000    231.23757   -761.78139    132643.42   -40149.881     2877.035   -43026.916    28.573717   0.94157322 
   13100    233.14595   -807.76966    132821.25   -40175.107    2900.7789   -43075.886    28.788207    0.9403126 
   13200    236.50903   -681.95882    133000.04   -40090.495     2942.622   -43033.117    28.936544    0.9390485 
   13300    233.05085   -749.29116    133148.61   -40125.286    2899.5957   -43024.882    29.023053   0.93800072 
   13400      229.353   -998.12184    132959.28   -40217.495    2853.5873   -43071.082      28.9789   0.93933639 
   13500    232.55438   -691.74387    132841.84   -40257.889    2893.4186   -43151.307    29.239364    0.9401668 
   13600    227.30979   -743.44515    132863.38   -40290.671    2828.1659   -43118.837    29.254978    0.9400144 
   13700    229.78428   -821.58026    132834.21   -40290.587    2858.9532    -43149.54     29.24904   0.94022081 
   13800    230.71794   -900.72929    132792.85   -40198.552    2870.5698   -43069.122    29.620033   0.94051367 
   13900    227.43927   -700.83922    132701.72   -40237.129    2829.7769   -43066.906    29.915011   0.94115957 
   14000     230.5148   -778.87729    132829.29   -40209.569    2868.0424   -43077.612    30.149856   0.94025565 
   14100    230.01846   -707.24112     132854.9   -40228.515    2861.8669   -43090.382     30.32021   0.94007437 
   14200    231.04226   -717.59077    132835.71   -40270.196    2874.6049   -43144.801    30.587484   0.94021018 
   14300    229.53642   -775.89972    132904.85   -40321.894    2855.8695   -43177.764    30.890311   0.93972106 
   14400    229.80128   -746.76046    132852.15   -40301.439    2859.1649   -43160.604    30.840944   0.94009389 
   14500    231.25443   -672.72621    132777.03   -40260.664    2877.2447   -43137.909    30.763953   0.94062574 
   14600    231.48829   -692.98383    132790.73   -40277.054    2880.1545   -43157.209    30.947155   0.94052866 
   14700    229.42801    -1138.501     132534.6    -40346.19    2854.5206   -43200.711    31.166589    0.9423463 
   14800    227.71891   -871.90344       132361   -40403.425    2833.2562   -43236.682    31.130997   0.94358225 
   14900    223.88146   -785.55644    132302.58   -40472.325     2785.511   -43257.836    31.224106   0.94399891 
   15000    225.81241    -686.4104    132465.07   -40471.997    2809.5356   -43281.532    31.376611   0.94284095 
   15100    224.11784   -867.92657    132521.71   -40504.099    2788.4521   -43292.551    31.557802   0.94243795 
   15200    224.67332   -760.28535    132469.88    -40413.01    2795.3633   -43208.374    31.555207   0.94280671 
   15300    226.20281   -1054.7904       132495   -40424.584     2814.393   -43238.977    31.796126   0.94262793 
   15400    228.97997     -694.242    132523.14   -40414.863    2848.9462   -43263.809    32.063364    0.9424278 
   15500    223.46029    -755.6499    132505.89   -40395.208    2780.2708   -43175.479    32.135076   0.94255051 
   15600    225.01302   -783.37604    132552.06   -40306.659    2799.5898   -43106.249    32.374541   0.94222219 
   15700     228.8638   -849.04458    132464.18   -40393.608    2847.5007   -43241.109    32.332495   0.94284727 
   15800    218.81286   -826.47168     132401.5   -40368.683    2722.4479   -43091.131    32.500233   0.94329362 
   15900    224.30143   -860.10942    132090.79   -40377.707    2790.7362   -43168.444    32.653058   0.94551249 
   16000    227.84682   -798.46001    132201.48   -40304.778    2834.8476   -43139.625     32.73433   0.94472085 
   16100    227.67472   -898.48509    132140.66    -40229.65    2832.7064   -43062.356    32.738858   0.94515568 
   16200    227.67667   -719.49872    132099.62   -40281.858    2832.7307   -43114.589    32.972384    0.9454493 
   16300    226.53021   -925.92747    132044.89   -40290.381    2818.4664   -43108.848    32.947687   0.94584116 
   16400    233.22434   -761.32716    132128.93   -40174.578    2901.7542   -43076.332    32.975758   0.94523959 
   16500    234.64245   -805.53252    132386.09   -40170.284    2919.3982   -43089.682    32.986765    0.9434034 
   16600    229.28646   -878.56184    132263.74   -40168.983    2852.7594   -43021.742    33.172797   0.94427614 
   16700    229.90245   -791.23791    132193.39   -40211.351    2860.4236   -43071.775     33.09557   0.94477864 
   16800    232.59056   -931.26239    132285.06   -40207.493    2893.8687   -43101.362    33.234753   0.94412393 
   16900    234.64657   -708.54042    132187.78   -40177.248    2919.4494   -43096.698    33.366271   0.94481873 
   17000    228.40641   -963.64687    131875.76   -40206.063      2841.81   -43047.873    33.598302   0.94705417 
   17100    232.12887   -720.38681    131922.24   -40117.965    2888.1244   -43006.089    33.849513   0.94672051 
   17200    234.98901   -898.78355    132045.09   -40116.822    2923.7101   -43040.532     34.11851   0.94583974 
   17300    229.69118   -869.90776    132025.15   -40166.244    2857.7949   -43024.039    34.198853   0.94598261 
   17400    227.12022   -825.49694    132188.91   -40192.688    2825.8074   -43018.496    34.267642   0.94481068 
   17500    227.72341   -787.32185    132112.62   -40176.608    2833.3121    -43009.92    34.626916   0.94535625 
   17600    229.36197   -834.90386    132026.99   -40158.587    2853.6989   -43012.286    34.701383    0.9459694 
   17700    233.05239   -831.80217    131984.69   -40190.994    2899.6148   -43090.609    34.691237   0.94627253 
   17800    232.47339   -823.62379    131914.91   -40189.363    2892.4109   -43081.774    34.996997   0.94677311 
   17900    233.26374   -568.31486    132085.91   -40146.942    2902.2443   -43049.186    35.162296   0.94554741 
   18000    235.59342   -615.79659    132127.38   -40122.013    2931.2301   -43053.243    35.134523   0.94525068 
   18100    233.19085   -770.85121     132044.6   -40251.089    2901.3375   -43152.427    35.185639   0.94584325 
   18200    229.00874   -733.55013    132002.93   -40253.706    2849.3041   -43103.011    35.525941   0.94614184 
   18300    235.07999    -867.6946    132273.24   -40163.741    2924.8419   -43088.583    35.769244    0.9442083 
   18400    232.88123   -669.80432    132170.26    -40230.71    2897.4852   -43128.196    35.733784   0.94494397 
   18500    231.71267   -913.22797    132225.35   -40186.017    2882.9461   -43068.963     36.22824   0.94455028 
   18600      227.436   -890.89522    132137.69   -40237.705    2829.7363   -43067.441    36.137555    0.9451769 
   18700    235.88121   -720.98752    132242.49   -40193.533    2934.8107   -43128.344    36.268296   0.94442786 
   18800    233.46408   -897.51521    132188.55   -40178.386     2904.737   -43083.123    36.573129   0.94481324 
   18900    236.09834   -738.90049    132341.55   -40224.801    2937.5122   -43162.313    36.820295   0.94372091 
   19000    233.43317    -660.3541    132391.84   -40204.951    2904.3524   -43109.304    36.761374   0.94336245 
   19100    230.90506   -798.86008    132406.45   -40264.137    2872.8979   -43137.035    36.879844   0.94325838 
   19200    233.25397   -809.47059    132473.06   -40230.854    2902.1228   -43132.977    37.296324   0.94278408 
   19300    236.19922    -745.0039    132563.61   -40167.228    2938.7673   -43105.995    37.464674   0.94214007 
   19400    234.44726   -934.66415    132428.23   -40178.657    2916.9697   -43095.627    37.383903   0.94310326 
   19500    231.40296   -761.80786    132506.64   -40164.111    2879.0928   -43043.204     37.31676   0.94254512 
   19600    227.73348   -847.61601     132558.7   -40212.615    2833.4375   -43046.053    37.691962   0.94217501 
   19700    233.19371   -701.54323     132655.8   -40193.141    2901.3731   -43094.515    37.898193   0.94148533 
   19800    230.03501   -757.61878    132709.63   -40230.663    2862.0729   -43092.735    38.027966   0.94110342 
   19900     228.5218   -953.36257    132416.61   -40250.588    2843.2457   -43093.834     38.22124   0.94318596 
   20000     233.3633   -793.78948     132189.1   -40295.321    2903.4831   -43198.804     38.04827   0.94480929 
   20100    231.86856   -703.72537    132484.53   -40253.155    2884.8857    -43138.04    38.151343   0.94270249 
   20200    229.03323   -816.51262    132634.02   -40297.251    2849.6088    -43146.86    38.459645   0.94163997 
   20300    231.70162   -956.25282    132536.76    -40343.78    2882.8086   -43226.588    38.572642   0.94233095 
   20400    230.10871   -868.95649    132474.63   -40360.536    2862.9898   -43223.526    38.943416   0.94277289 
   20500     229.1347   -700.64393    132447.62   -40329.085    2850.8713   -43179.956     39.23901   0.94296518 
   20600    229.45888   -785.88235    132573.28   -40380.054    2854.9046   -43234.958    39.326597   0.94207138 
   20700    230.53853   -792.36942    132701.63   -40323.437    2868.3376   -43191.775    39.413534   0.94116016 
   20800    234.70536   -790.40535    132798.66   -40342.408    2920.1809   -43262.589    39.407652   0.94047255 
   20900    230.65437   -727.31854    132736.63   -40388.068    2869.7788   -43257.847    39.409153   0.94091204 
   21000    224.59103   -766.81127    132873.61   -40483.528    2794.3393   -43277.868    39.715091   0.93994205 
   21100    225.52842   -742.66434     132796.2   -40499.183    2806.0023   -43305.186    39.704776   0.94048995 
   21200    224.74192   -753.59486    132749.33   -40474.301    2796.2168   -43270.517    39.857929   0.94082203 
   21300    225.65532   -773.39248    132769.66   -40462.087    2807.5812   -43269.669    39.901639   0.94067793 
   21400    225.99185   -1059.1806    132848.75   -40430.541    2811.7683   -43242.309    40.070084   0.94011793 
   21500    227.54376   -853.95835    132564.46   -40407.528    2831.0769   -43238.604    40.174099   0.94213401 
   21600    229.37087   -855.13496    132583.29   -40344.986    2853.8097   -43198.796    40.247181   0.94200023 
   21700    232.19506   -884.65324    132676.87   -40322.366     2888.948   -43211.314    40.369206   0.94133583 
   21800    229.28021   -711.17424    132740.09   -40315.085    2852.6817   -43167.767    40.660353   0.94088748 
   21900    229.82624   -764.37338    132815.49   -40324.821    2859.4754   -43184.297    40.854309   0.94035338 
   22000    231.75281   -678.37184    132870.76   -40373.789    2883.4456   -43257.235     41.00018   0.93996221 
   22100    234.54461   -739.87987    133125.88   -40306.469    2918.1808    -43224.65    41.265847   0.93816087 
   22200    233.40261   -809.19394    133142.36   -40345.783    2903.9722   -43249.755    41.326531   0.93804476 
   22300    232.85602   -774.28087    133085.15   -40327.316    2897.1715   -43224.487    41.607846   0.93844802 
   22400     232.6069   -824.01791    132965.71   -40298.703    2894.0721   -43192.775    41.491822   0.93929099 
   22500    229.57188   -831.62459    133004.67   -40306.003    2856.3106   -43162.314    41.331341   0.93901583 
   22600    228.34995   -877.97626    132713.76   -40275.686    2841.1075   -43116.793     41.35432   0.94107413 
   22700    230.84755   -846.49397    132680.13   -40275.132    2872.1824   -43147.314    41.718632   0.94131267 
   22800    233.44326   -702.57111    132724.95   -40242.444     2904.478   -43146.922    41.848102   0.94099481 
   22900    230.47413   -785.81413    132739.27   -40294.702    2867.5363   -43162.238    42.190895   0.94089331 
   23000    233.73642   -748.80831    132900.61   -40279.613    2908.1254   -43187.738    42.286058   0.93975111 
   23100    230.01285   -836.70624    132960.36   -40413.619    2861.7971   -43275.416    42.542819   0.93932877 
   23200    235.62683   -715.01349    133056.45   -40374.461    2931.6458   -43306.107    42.560734   0.93865044 
   23300    228.47119   -881.79706    133044.24   -40439.187    2842.6159   -43281.803    42.633125   0.93873657 
   23400    231.96193   -771.35276    133209.56   -40378.075    2886.0474   -43264.122    42.658564   0.93757154 
   23500    226.95603   -930.79548    133105.17   -40426.079    2823.7645   -43249.843    42.791753   0.93830682 
   23600    232.00853   -783.15512    133103.47   -40417.053    2886.6272    -43303.68     42.61414   0.93831881 
   23700    232.61966    -870.1614    133303.15   -40442.515    2894.2308   -43336.746    42.976754   0.93691326 
   23800    225.18117   -724.51325    133051.75   -40500.627    2801.6819   -43302.309    43.201065   0.93868356 
   23900     228.1729     -942.982    133331.31   -40507.979    2838.9047   -43346.883    43.598994   0.93671542 
   24000    224.23805   -761.65211     133071.8   -40435.946    2789.9476   -43225.894     43.25625   0.93854215 
   24100    228.34812   -863.94362    132908.77   -40444.216    2841.0847   -43285.301    43.188565   0.93969335 
   24200    225.39084   -827.00332    132968.19   -40495.531    2804.2905   -43299.821    43.207499   0.93927342 
   24300    225.00303   -719.60306    133095.68   -40453.884    2799.4655   -43253.349    43.515511   0.93837371 
   24400    229.72604   -744.15693    133105.98    -40486.63    2858.2287   -43344.859     43.63898    0.9383011 
   24500    230.13407   -961.61284    133114.43    -40443.39    2863.3053   -43306.695    43.947415   0.93824159 
   24600    232.24696   -839.31228    133207.82    -40437.29    2889.5937   -43326.884    43.795672   0.93758375 
   24700    229.74095   -893.86416    133294.45   -40465.846    2858.4142    -43324.26    44.071712   0.93697443 
   24800    227.83502   -752.39338    133383.17   -40453.287    2834.7008   -43287.988     44.37731   0.93635117 
   24900    233.13392   -854.87946     133462.8   -40400.634    2900.6292   -43301.263    44.517205    0.9357925 
   25000    235.49532   -562.66495     133417.3   -40373.924    2930.0095   -43303.934    44.347177   0.93611165 
   25100    230.99548   -798.66897     133570.7   -40375.855    2874.0229   -43249.878     44.63256   0.93503655 
   25200    232.13317   -664.00374    133419.73   -40445.267     2888.178   -43333.445    44.520318    0.9360946 
   25300    230.16462   -849.86191    133359.32   -40461.999    2863.6855   -43325.684    44.636631   0.93651867 
   25400    230.13888   -912.80262    133501.94    -40450.86    2863.3653   -43314.226    44.839479   0.93551818 
   25500    230.86458   -825.13366    133320.02   -40398.991    2872.3943   -43271.386    44.708958   0.93679472 
   25600    226.84224   -733.11755    133422.67   -40470.679    2822.3487   -43293.028    44.826893   0.93607399 
   25700    230.11071   -874.10299    133414.01   -40492.227    2863.0147   -43355.241    45.179818   0.93613473 
   25800    232.51412   -919.71235    133078.85     -40465.8    2892.9177   -43358.718    45.293716   0.93849241 
   25900     231.3493   -851.28748    133186.73   -40428.985    2878.4251    -43307.41    45.328497   0.93773222 
   26000    237.78314   -620.15884    133329.49   -40377.747    2958.4743   -43336.221    45.285528   0.93672815 
   26100    229.86346   -862.47087     133502.3   -40470.372    2859.9385   -43330.311    45.282363   0.93551564 
   26200    227.23191   -700.76078    133453.59    -40463.65    2827.1969   -43290.847    45.540279   0.93585708 
   26300    229.06366   -895.44467    133419.18   -40421.097    2849.9874   -43271.085     45.73853    0.9360985 
   26400    230.69109   -778.90111     133323.5   -40400.088    2870.2357   -43270.324    45.752974   0.93677028 
   26500    231.54623   -817.74864     133321.7   -40445.757    2880.8754   -43326.632     45.80539   0.93678292 
   26600    230.91228   -857.41813    133316.11       -40492    2872.9878   -43364.988    45.841994   0.93682222 
   26700    230.08106   -907.14321    133163.96   -40531.679    2862.6458   -43394.325    45.696132   0.93789262 
   26800    230.69674   -820.68416    133106.02    -40474.75     2870.306   -43345.056    46.011205   0.93830085 
   26900    227.34927   -617.22921    133495.63   -40463.649    2828.6572   -43292.306    46.422193    0.9355624 
   27000    227.69606   -739.12301    133648.72    -40502.94    2832.9718   -43335.912     46.73438   0.93449075 
   27100    230.63064   -845.37616    133655.16    -40505.96    2869.4837   -43375.444    46.692714   0.93444575 
   27200    226.30268   -796.86389    133523.84   -40532.312    2815.6355   -43347.948    46.773142   0.93536476 
   27300     225.6724   -699.38881    133597.08   -40540.396    2807.7937    -43348.19    46.611766   0.93485192 
   27400    230.49142   -719.37021    133514.12   -40464.836    2867.7514   -43332.587    46.655042   0.93543282 
   27500    228.63464   -962.32704    133564.96   -40398.707    2844.6496   -43243.357    47.077896   0.93507679 
   27600    232.58859   -796.07991    133527.95   -40429.494    2893.8443   -43323.338     47.13516   0.93533596 
   27700    230.98243    -777.9344    133572.52   -40434.626    2873.8605   -43308.486    47.183226   0.93502382 
   27800    232.18408   -923.82148     133594.8   -40375.419    2888.8114    -43264.23    47.358524   0.93486791 
   27900     231.4316   -828.15122    133738.39   -40407.231    2879.4491    -43286.68    47.395552   0.93386416 
   28000    233.39447   -787.95373    133782.92   -40456.405    2903.8709   -43360.276     47.60419   0.93355332 
   28100    227.71804   -964.43629     133755.4   -40448.144    2833.2454   -43281.389    47.610412   0.93374542 
   28200    229.11534   -673.78119    133881.06   -40497.235    2850.6304   -43347.866    47.893924     0.932869 
   28300    232.09091   -781.97418    133799.03   -40491.451    2887.6521   -43379.103     47.92355   0.93344095 
   28400    228.40166   -824.29012    133742.11   -40545.341    2841.7509   -43387.092    48.106433   0.93383819 
   28500    228.55515   -678.39298    133998.99    -40568.56    2843.6606   -43412.221    48.181079   0.93204802 
   28600    231.00804   -851.23693    134086.39   -40523.994    2874.1792   -43398.174    48.280825   0.93144045 
   28700    231.40212   -905.49458     134148.1   -40543.277    2879.0823   -43422.359    48.359808   0.93101199 
   28800    230.89445   -839.51093    134061.58   -40525.767     2872.766   -43398.533    48.319353   0.93161289 
   28900    234.44134   -795.33665    133846.43   -40491.159     2916.896   -43408.055    48.538979   0.93311034 
   29000    229.87934   -905.28697    133702.81   -40574.514     2860.136   -43434.651    48.512905   0.93411268 
   29100    233.89091   -848.30684    133603.39   -40509.824    2910.0475   -43419.872    48.410904   0.93480781 
   29200    227.22866   -690.82106    133656.56   -40456.377    2827.1566   -43283.533    48.420601   0.93443592 
   29300    231.02027   -781.19976    133603.99   -40518.962    2874.3314   -43393.293    48.421667   0.93480363 
   29400    230.86896   -851.30525    133467.82   -40566.579    2872.4488   -43439.028    48.491591    0.9357573 
   29500    225.70301   -731.69244    133614.48   -40591.299    2808.1746   -43399.474    48.579316   0.93473018 
   29600    230.69399   -754.80817    133718.98   -40497.031    2870.2718   -43367.303    48.884877   0.93399972 
   29700    226.53668   -895.02708     133843.1   -40549.442     2818.547   -43367.989    49.080411   0.93313356 
   29800    230.22219   -715.62881    133890.42   -40525.723    2864.4017   -43390.124    49.183263   0.93280376 
   29900    226.58193   -823.17452    133814.63   -40570.053    2819.1099   -43389.163    49.530529   0.93333212 
   30000    232.39489   -671.21171    133882.85   -40536.726    2891.4342   -43428.161    49.829579   0.93285653 
   30100    228.22937   -765.16174    133796.43   -40535.892    2839.6073   -43375.499    49.745654   0.93345908 
   30200    228.73699   -854.37229    133803.96   -40531.347     2845.923    -43377.27    49.613962   0.93340652 
   30300    226.10853   -878.75965    133598.98    -40477.62      2813.22    -43290.84    49.392336   0.93483866 
   30400    229.87049   -924.94931    133661.46   -40447.039    2860.0259   -43307.065    49.573585   0.93440168 
   30500    228.91758   -883.59248       133457   -40450.793    2848.1699   -43298.963    49.776314   0.93583319 
   30600    228.38539     -711.649    133361.33   -40454.431    2841.5484   -43295.979    49.772233   0.93650455 
   30700    227.82004   -697.55161    133414.09    -40467.77    2834.5144   -43302.284    50.019486   0.93613422 
   30800     234.8494   -864.02786     133458.3    -40403.31     2921.973   -43325.283    49.987529   0.93582411 
   30900    229.69584   -847.35461    133162.81   -40537.125     2857.853   -43394.977    50.147006    0.9379007 
   31000    228.40807   -914.91153    133149.89   -40584.499    2841.8307    -43426.33    50.138463   0.93799171 
   31100     229.6943   -646.04681    133241.14   -40591.656    2857.8337   -43449.489    49.965867   0.93734935 
   31200    226.68696   -699.37848    133180.93    -40598.04    2820.4168   -43418.457    50.320692   0.93777305 
   31300    229.16394   -738.85489    133073.48   -40560.374    2851.2351   -43411.609    50.452042    0.9385303 
   31400    227.76988   -576.61889    133152.91   -40513.168    2833.8903   -43347.058     50.50043   0.93797039 
   31500    227.68502   -710.64059     133232.1   -40569.108    2832.8345   -43401.943    50.902521   0.93741292 
   31600    233.89739   -967.91808    133361.48   -40486.575    2910.1282   -43396.703    50.669548   0.93650349 
   31700     229.8168   -841.81698    133412.53    -40528.73     2859.358   -43388.088    50.804739   0.93614516 
   31800    230.32374   -709.55657    133453.39   -40439.483    2865.6652   -43305.149    50.752282   0.93585848 
   31900    226.81958   -669.74936    133462.45   -40415.469    2822.0668   -43237.536    51.106891   0.93579501 
   32000    230.60034   -926.94166    133494.77   -40397.625    2869.1066   -43266.732    51.353488   0.93556844 
   32100    230.17339   -927.38394    133336.91   -40412.362    2863.7945   -43276.157    51.339948   0.93667606 
   32200    232.50926   -643.82537    133283.36   -40400.358    2892.8572   -43293.215    51.487001   0.93705239 
   32300    230.03914   -714.49804    133425.33   -40374.967    2862.1243   -43237.091    51.538544   0.93605535 
   32400    232.73801   -897.77392    133643.97   -40442.623    2895.7033   -43338.327    51.675762   0.93452398 
   32500    229.16261   -962.31839    133394.36   -40466.878    2851.2186   -43318.096    51.850727   0.93627268 
   32600    227.73396   -730.80236    133335.98   -40395.022    2833.4434   -43228.465    52.137027    0.9366826 
   32700    226.02294    -878.2731    133576.49   -40436.684     2812.155   -43248.839    52.229491   0.93499606 
   32800    227.42211   -882.45021    133477.69   -40457.625    2829.5634   -43287.188    52.085794   0.93568813 
   32900    230.70004   -705.91501    133541.77   -40457.783    2870.3471    -43328.13    52.248184   0.93523916 
   33000    226.70604   -727.06096    133413.02   -40512.206    2820.6542    -43332.86    52.508644   0.93614173 
   33100    230.24408   -657.55343     133555.9   -40443.688    2864.6741   -43308.362    52.849195   0.93514021 
   33200    229.14041   -837.10868    133663.47   -40493.589    2850.9423   -43344.531    53.043409   0.93438764 
   33300    229.49545   -795.98746    133626.29   -40434.274    2855.3597   -43289.633    53.002236   0.93464758 
   33400    224.52562   -830.19685    133604.32   -40513.262    2793.5256   -43306.787      53.1862   0.93480128 
   33500    226.24596   -942.10336    133595.06   -40480.695    2814.9299   -43295.625    53.412906    0.9348661 
   33600    236.36466   -898.90158    133618.76   -40444.447    2940.8257   -43385.273    53.605229    0.9347003 
   33700    230.52673   -844.86524    133678.28   -40435.428    2868.1908   -43303.619    53.881858   0.93428407 
   33800    230.43568   -829.66985    133570.95   -40407.749    2867.0579   -43274.807    53.791316   0.93503483 
   33900     231.6154   -716.40498    133668.75   -40407.259    2881.7359   -43288.995    53.751605   0.93435071 
   34000    235.16135   -748.46713    133790.38   -40379.519    2925.8543   -43305.374    54.061284   0.93350125 
   34100    231.54205   -746.94717    133688.55   -40423.193    2880.8233   -43304.016    54.195069   0.93421234 
   34200    229.56667   -881.38769    133602.35   -40439.549    2856.2459   -43295.795    54.067388   0.93481511 
   34300    226.70101   -849.86037     133437.4    -40490.36    2820.5915   -43310.952    54.237071   0.93597069 
   34400    232.65339   -709.40048    133561.68   -40416.578    2894.6505   -43311.229    54.166749   0.93509975 
   34500    226.46721   -794.15566    133760.87   -40437.287    2817.6827    -43254.97    54.232983   0.93370722 
   34600    231.98025   -945.60367    133929.06   -40410.913    2886.2754   -43297.188    54.757837   0.93253466 
   34700    225.41546   -665.81524    133719.06   -40496.014    2804.5969   -43300.611    54.703098    0.9339992 
   34800    229.46824    -912.9877    133462.02   -40494.672    2855.0212   -43349.693      54.5595   0.93579801 
   34900    224.53596   -770.47768    133337.86   -40500.428    2793.6543   -43294.083    54.672099   0.93666941 
   35000    226.07453   -850.96726    133337.75   -40575.607     2812.797   -43388.404    54.820241   0.93667012 
   35100    225.89077   -724.84701     133378.2   -40509.171    2810.5106   -43319.682    54.899999   0.93638612 
   35200    229.87686   -851.38864    133422.02   -40511.606    2860.1052   -43371.711    55.302234   0.93607852 
   35300    226.18551   -823.18636    133365.35   -40498.406    2814.1778   -43312.584     55.35124   0.93647634 
   35400    227.78332   -784.13708    133381.05   -40515.453    2834.0575    -43349.51    55.446782    0.9363661 
   35500    233.22109   -771.01056    133370.88   -40412.808    2901.7137   -43314.522    55.498128   0.93643749 
   35600    228.72987   -816.30611    133187.44   -40468.044    2845.8345   -43313.878    55.656184   0.93772723 
   35700    233.01009    -706.6056     133209.2   -40423.983    2899.0885   -43323.072    55.720677   0.93757405 
   35800    228.36478   -833.47162    133130.35   -40462.649    2841.2921   -43303.941    56.047595   0.93812934 
   35900    227.63163   -786.33063    133006.57   -40404.404    2832.1702   -43236.574    55.901513   0.93900243 
   36000    228.42574   -748.50772    132989.48   -40337.875    2842.0505   -43179.926    55.620268   0.93912309 
   36100    232.22885   -713.52161    133218.38   -40339.123    2889.3684   -43228.492    55.964522   0.93750944 
   36200    229.88596   -772.04344    133127.67   -40367.412    2860.2184    -43227.63    56.312757   0.93814826 
   36300    230.91849   -791.65115    133174.92   -40433.047     2873.065   -43306.112    56.579853   0.93781538 
   36400    230.41265   -771.81614    133355.67   -40367.961    2866.7714   -43234.732    56.516954   0.93654427 
   36500    225.34503   -938.64531    133238.21   -40344.934    2803.7206   -43148.655    56.504216   0.93736992 
   36600    228.12231   -946.19119     133129.4   -40469.825    2838.2753   -43308.101    56.438491   0.93813605 
   36700    226.26104   -947.10607     132826.7   -40429.026    2815.1175   -43244.143    56.831897   0.94027398 
   36800    230.19518   -861.74027    132678.92   -40409.723    2864.0656   -43273.789    56.996942   0.94132131 
   36900    225.97558   -984.30198    132597.81   -40429.345    2811.5658   -43240.911    56.984984   0.94189708 
   37000    229.52421   -789.11677    132661.48   -40360.144    2855.7175   -43215.862    57.046416     0.941445 
   37100    230.03301   -935.23969    132638.19   -40336.298     2862.048   -43198.346    56.932221   0.94161034 
   37200    230.99849   -640.07443    132787.91   -40399.135    2874.0604   -43273.195    57.155041   0.94054865 
   37300    224.60986   -872.08241    133126.18   -40403.671    2794.5737   -43198.245    57.579959   0.93815878 
   37400     226.4497    -724.0811    133136.51   -40443.236    2817.4648   -43260.701     57.99511   0.93808597 
   37500    230.42506   -673.91121    133096.76   -40452.796    2866.9259   -43319.721    58.010451    0.9383661 
   37600    229.35914   -761.92432    133045.03   -40404.568    2853.6638   -43258.231    57.910101   0.93873095 
   37700    230.73894   -842.30025    133158.33   -40418.869    2870.8311     -43289.7    57.991585   0.93793223 
   37800    224.31514   -738.92558    133284.93   -40544.067    2790.9068   -43334.974    58.066565   0.93704139 
   37900    228.53555   -1005.4285    133267.53    -40504.03    2843.4168   -43347.446    58.300986   0.93716371 
   38000    226.51361   -734.15335    133097.99   -40472.298    2818.2599   -43290.558     58.29038   0.93835744 
   38100    233.07941   -830.85815    133182.76   -40426.773     2899.951   -43326.724    58.419541   0.93776021 
   38200    229.43447   -885.93288    133120.71   -40439.512    2854.6011   -43294.113    58.550182   0.93819731 
   38300    232.50228   -953.83323    133035.11   -40368.436    2892.7704   -43261.207    58.671321   0.93880095 
   38400    224.93212   -641.01574    133056.49   -40412.657    2798.5832    -43211.24    58.927637   0.93865012 
   38500    227.33498   -722.95216    133160.94   -40437.765    2828.4794   -43266.244    59.142336   0.93791388 
   38600    233.12679   -554.31593    133126.27     -40397.8    2900.5404   -43298.341    59.144449   0.93815812 
   38700    233.09982   -937.71116    133366.88   -40412.729    2900.2049   -43312.934    59.235482    0.9364656 
   38800    229.41184   -707.90264    133404.55   -40437.416    2854.3194   -43291.735    59.228665   0.93620113 
   38900    232.70594   -1006.3117    133267.54   -40398.582    2895.3043   -43293.886    59.163597   0.93716363 
   39000     227.2082   -788.46191    133140.84   -40435.343     2826.902   -43262.245    58.965038   0.93805548 
   39100    227.94977   -664.42414    133189.57   -40392.633    2836.1285   -43228.762    59.078014   0.93771225 
   39200    230.96835   -1071.7748    133000.27   -40436.039    2873.6853   -43309.724    59.186168   0.93904689 
   39300     230.8012   -755.88993    133001.66   -40414.797    2871.6057   -43286.403     59.57924   0.93903709 
   39400    231.96306   -769.70788    133176.11   -40364.091    2886.0614   -43250.152    59.739882   0.93780701 
   39500    231.94286   -763.92244    133130.15   -40351.635    2885.8101   -43237.445    59.443828   0.93813077 
   39600    229.73583   -768.43086    133212.83   -40379.419    2858.3505   -43237.769    59.229101   0.93754853 
   39700    232.69366   -780.47887     133196.2   -40323.398    2895.1516   -43218.549    59.178267    0.9376656 
   39800    229.33466   -576.81745    133201.32   -40395.429    2853.3592   -43248.788    59.258815   0.93762956 
   39900    226.51443   -705.96429    133176.96   -40424.158    2818.2701   -43242.429    59.723258   0.93780105 
   40000    223.25539   -760.46032    133111.03   -40449.229    2777.7215   -43226.951    59.832271   0.93826553 
   40100    229.51573   -733.87371    133184.28   -40341.306     2855.612   -43196.918    60.182792   0.93774952 
   40200    230.47549   -818.37939    133344.25   -40366.179    2867.5533   -43233.732    60.362828   0.93662447 
   40300    231.19011    -778.7747    133342.38   -40347.095    2876.4445    -43223.54     60.57945   0.93663762 
   40400    230.21139   -761.46641    133327.91    -40266.02    2864.2674   -43130.287    60.497138   0.93673931 
   40500    232.01543   -810.09724    133371.15   -40278.299     2886.713   -43165.012    60.591839   0.93643562 
   40600     231.2013   -750.38337    133371.67   -40320.963    2876.5837   -43197.547    60.635699   0.93643196 
   40700    231.26438   -983.58734    133081.77   -40367.893    2877.3685   -43245.262    60.597959   0.93847185 
   40800    228.78999   -650.82274    133126.81   -40412.153    2846.5825   -43258.735    60.794748   0.93815433 
   40900    228.74645   -851.42825     132921.4   -40442.737    2846.0408   -43288.778    61.167249    0.9396041 
   41000    228.28883   -635.93044     132998.3    -40354.53     2840.347   -43194.877    61.414061   0.93906081 
   41100    228.97012   -865.93452    133028.56   -40332.798    2848.8236   -43181.621    61.485576   0.93884721 
   41200    227.80812   -773.74851    133037.98   -40352.485    2834.3661   -43186.851    61.599069   0.93878073 
   41300    225.24756   -851.09047    133087.47   -40511.832    2802.5079   -43314.339    61.568808   0.93843165 
   41400    227.32855   -862.73466     133009.5   -40449.473    2828.3994   -43277.872    61.557855   0.93898174 
   41500    227.45694   -915.85875     133051.6   -40461.075    2829.9968   -43291.072    61.898161   0.93868465 
   41600    227.26715   -787.29212    133054.14   -40424.225    2827.6354    -43251.86    61.943694   0.93866672 
   41700    229.08961   -720.25398    133251.05   -40394.236    2850.3103   -43244.546    62.116951   0.93727962 
   41800    227.57696    -759.4695     133159.1   -40408.192      2831.49   -43239.682     62.17969   0.93792682 
   41900    233.14484   -847.89927    132941.28   -40382.056    2900.7651   -43282.821    62.422312   0.93946357 
   42000    230.04582   -715.98985    132993.25   -40367.178    2862.2074   -43229.386    62.586894   0.93909647 
   42100    232.81476    -716.5605    133000.92   -40372.042    2896.6582     -43268.7    62.440753   0.93904234 
   42200    232.02005   -894.19577    133204.47   -40320.453    2886.7705   -43207.223     62.57456   0.93760735 
   42300     232.1466   -750.26747    133103.86   -40301.949    2888.3451   -43190.294    62.856614    0.9383161 
   42400    229.86838   -832.42263    133053.86   -40350.674    2859.9996   -43210.673    63.096947   0.93866871 
   42500    232.70992   -724.60947    133104.11   -40353.035    2895.3539   -43248.389    63.365465   0.93831428 
   42600    230.87864   -969.08967    132933.79   -40359.558    2872.5692   -43232.127     63.38146   0.93951649 
   42700    233.41942   -707.23555    132912.72   -40367.169    2904.1814   -43271.351    63.518375   0.93966546 
   42800    233.35978   -690.04138    132931.51    -40316.99    2903.4393   -43220.429    63.584038   0.93953265 
   42900    232.22186   -797.79639     133146.4   -40404.294    2889.2815   -43293.575    63.697039   0.93801625 
   43000    227.31359    -598.9568    133222.25   -40434.735    2828.2132   -43262.948    64.179464   0.93748224 
   43100    228.32406   -788.71099    133264.01   -40407.725    2840.7854   -43248.511    64.172394   0.93718848 
   43200     229.2066   -666.30392    133519.46   -40367.645    2851.7658   -43219.411      64.4229   0.93539543 
   43300    229.13034   -767.41857    133623.94   -40378.153     2850.817   -43228.971     64.69944   0.93466404 
   43400    230.04811   -799.23733    133288.47   -40324.838    2862.2358   -43187.074    64.707218   0.93701647 
   43500    229.47092   -819.71364    133014.11    -40337.65    2855.0545   -43192.705    64.447286   0.93894919 
   43600    234.57853   -707.59485    133034.62   -40238.339    2918.6029   -43156.942    64.838105   0.93880443 
   43700    236.27846   -833.28879    132929.25   -40273.814    2939.7533   -43213.568    64.620616   0.93954859 
   43800    232.52623   -738.23537    132844.37   -40287.151    2893.0683   -43180.219    64.737704   0.94014894 
   43900    234.00272   -714.02717    132950.83   -40331.951    2911.4387    -43243.39    65.156425    0.9393961 
   44000    226.89628   -785.29623    133084.83   -40350.309    2823.0211    -43173.33    65.331267   0.93845025 
   44100    229.41779    -757.4069    133054.13   -40363.675    2854.3935   -43218.068    65.472676   0.93866678 
   44200    229.53943   -910.05026    132915.09   -40405.882    2855.9069   -43261.789    65.481262   0.93964871 
   44300    225.02485    -777.3014     132837.2   -40411.538     2799.737   -43211.275    65.336321   0.94019965 
   44400    231.48781   -842.10687    132805.03   -40375.512    2880.1484   -43255.661    65.420198   0.94042744 
   44500    229.13314   -758.68538    132746.75   -40410.794    2850.8519   -43261.646    65.771455   0.94084033 
   44600     229.3261   -767.61391       132983   -40478.083    2853.2526   -43331.336    65.965257   0.93916888 
   44700    229.82554   -774.82962    132951.66   -40457.059    2859.4666   -43316.526    65.930905   0.93939023 
   44800    234.13784   -905.55814    132894.43   -40432.097    2913.1198   -43345.217     65.86714    0.9397948 
   44900    236.26398   -826.74518    132924.68   -40402.964    2939.5731   -43342.537     66.07848   0.93958093 
   45000    231.62668   -878.15252    132902.59   -40414.838    2881.8763   -43296.714    66.007752   0.93973705 
   45100     234.5144   -849.73882    132951.16   -40356.034     2917.805   -43273.839    66.337035   0.93939378 
   45200    229.74329   -606.79437    133068.89   -40424.502    2858.4433   -43282.945    66.619118   0.93856265 
   45300     231.4132   -794.84726    132961.36   -40445.048    2879.2201   -43324.268    66.534199    0.9393217 
   45400    234.88993   -709.02166    133054.12   -40412.644    2922.4773   -43335.121    66.646909   0.93866683 
   45500    232.73689   -809.47026    133030.34   -40429.499    2895.6894   -43325.188    66.672465   0.93883466 
   45600    232.85617   -642.12488    133171.25   -40420.495    2897.1735   -43317.669    66.723789   0.93784123 
   45700    227.03392   -677.65929    133271.44   -40429.134    2824.7336   -43253.868    66.574703   0.93713618 
   45800    235.39103   -774.93327    133346.12    -40376.52     2928.712   -43305.232    66.592965   0.93661133 
   45900    235.62979   -764.31795    133293.29   -40321.597    2931.6826   -43253.279    66.616095   0.93698259 
   46000    230.39143   -879.52968    133193.75   -40300.695    2866.5074   -43167.202    66.743553   0.93768282 
   46100    235.80463   -681.67365    133263.05    -40244.16    2933.8579   -43178.018    66.828207   0.93719519 
   46200    232.96099   -771.27977    133226.18    -40248.77    2898.4776   -43147.247     67.18339    0.9374546 
   46300    234.17781   -855.94963    133253.53   -40269.114    2913.6171   -43182.732    67.656362   0.93726213 
   46400    232.29406    -792.8784    133213.19   -40305.181    2890.1797   -43195.361    67.810922   0.93754595 
   46500    234.92668   -754.42082    133308.38   -40307.226    2922.9345   -43230.161    67.747752   0.93687651 
   46600    231.77579   -605.34603    133410.46    -40292.84    2883.7315   -43176.571    68.141813   0.93615968 
   46700     229.7556   -789.62436    133629.32   -40379.677    2858.5965   -43238.273    68.456614   0.93462637 
   46800    226.98741   -640.77081    133636.59   -40431.506     2824.155   -43255.661    68.741108   0.93457555 
   46900    229.67721   -900.74618    133650.81   -40340.129    2857.6211    -43197.75    68.630974   0.93447612 
   47000    231.81391   -807.24893    133665.92   -40327.605    2884.2058   -43211.811    68.402883   0.93437048 
   47100    231.71851   -683.06455    133724.26   -40307.597    2883.0188   -43190.616    68.897209   0.93396286 
   47200     233.1667   -781.07151    133719.02   -40382.421    2901.0371   -43283.458    69.212425   0.93399947 
   47300    229.37213   -910.84907    133638.37   -40438.621    2853.8253   -43292.446    69.288939   0.93456313 
   47400    229.22897   -690.05736    133734.92    -40405.63    2852.0442   -43257.675    69.394849   0.93388838 
   47500    232.41718   -738.29132    133721.32   -40337.412    2891.7116   -43229.124     69.55047    0.9339834 
   47600    230.95452   -890.96603    133506.07   -40302.283    2873.5134   -43175.796    69.406866   0.93548926 
   47700    232.88599   -901.37499    133628.36   -40359.968    2897.5445   -43257.512    69.567876   0.93463312 
   47800    234.40906   -704.15607    133620.32   -40378.131    2916.4944   -43294.625    69.764217   0.93468934 
   47900    233.19989   -708.46313    133818.09   -40482.519      2901.45   -43383.969    69.908106   0.93330801 
   48000    230.07886   -899.51239    133613.41   -40525.591    2862.6185    -43388.21    69.883365   0.93473771 
   48100    232.58208   -908.96929    133576.42   -40511.047    2893.7632    -43404.81    69.875335   0.93499654 
   48200    229.04342   -815.85044    133397.46   -40556.104    2849.7356    -43405.84    69.442069   0.93625091 
   48300    232.49954   -764.26511     133611.9   -40543.891    2892.7363   -43436.627    69.543847   0.93474826 
   48400    234.35177   -840.28341    133524.11    -40468.28    2915.7815   -43384.062    69.635917   0.93536281 
   48500     228.4001   -826.61015    133524.72   -40538.203    2841.7314   -43379.935    69.739677   0.93535856 
   48600    228.00585   -672.11802    133671.37   -40536.498    2836.8262   -43373.324    70.120618   0.93433241 
   48700    233.19991   -844.61816     133731.6    -40487.85    2901.4502     -43389.3    70.315187   0.93391157 
   48800    228.51965    -761.7538    133759.34   -40525.366     2843.219   -43368.585     70.36789   0.93371791 
   48900    228.20254   -851.37639    133780.56   -40514.437    2839.2734    -43353.71    70.222407   0.93356981 
   49000     233.8587   -755.64853     133890.7   -40548.446    2909.6468   -43458.093    70.572616   0.93280184 
   49100      230.205    -801.0479    133680.97   -40554.216    2864.1878   -43418.404    70.422673   0.93426528 
   49200    226.24522   -891.14551    133833.07   -40580.762    2814.9207   -43395.683    70.377589   0.93320354 
   49300    231.68245   -611.36115    133822.69   -40538.133    2882.5701   -43420.703    70.356722   0.93327588 
   49400    230.51012   -846.42725    133775.86   -40514.327    2867.9841   -43382.311    70.538192   0.93360262 
   49500    231.88608   -749.31871    133574.27   -40530.485    2885.1037   -43415.589    70.393845    0.9350116 
   49600    230.17985   -738.18643    133575.63   -40545.024     2863.875   -43408.899    70.520615    0.9350021 
   49700    229.65692   -841.60889    133546.35    -40553.93    2857.3687   -43411.298    70.482791   0.93520706 
   49800    228.24711   -831.64197    133452.26   -40607.049     2839.828   -43446.877    70.902832   0.93586643 
   49900    229.76652   -779.40172    133561.35   -40481.485    2858.7324   -43340.218    70.708086   0.93510205 
   50000    230.13267   -655.91758    133552.41   -40514.585    2863.2879   -43377.873    70.605688   0.93516461 
   50100    231.83512   -924.56886     133632.2   -40535.331    2884.4697   -43419.801    70.807427   0.93460625 
   50200    228.24038   -689.28884    133638.91   -40576.415    2839.7442   -43416.159    70.856305   0.93455934 
   50300    229.78584    -917.6807    133828.64   -40541.733    2858.9727   -43400.705    71.107141   0.93323438 
   50400    229.02585   -765.67407     133925.9   -40556.318    2849.5169   -43405.835    71.334242   0.93255665 
   50500    223.06401   -897.15922    133822.92   -40588.218    2775.3403   -43363.558    71.148083   0.93327427 
   50600    227.37172   -711.44111    133826.93   -40603.484    2828.9364   -43432.421    71.190472   0.93324634 
   50700    227.71031   -791.71862    133815.64   -40621.223    2833.1492   -43454.372    71.595702   0.93332505 
   50800    227.11245   -864.40332    133667.02   -40630.129    2825.7106   -43455.839    71.486274   0.93436278 
   50900    235.31989   -655.97489    133887.35   -40544.411    2927.8269   -43472.238    71.517124   0.93282519 
   51000    230.83588   -755.06883    133798.86   -40585.066    2872.0372   -43457.103    71.508024   0.93344214 
   51100    228.03443   -663.07657    133558.96   -40630.551    2837.1818   -43467.733    71.278733   0.93511877 
   51200    227.55179   -780.62689    133731.83   -40607.864    2831.1769   -43439.041    71.706517   0.93391001 
   51300    227.76645   -822.77215    133849.36   -40671.271    2833.8476   -43505.118    71.844294   0.93308996 
   51400    226.72784   -823.92852    133907.81   -40668.285    2820.9254    -43489.21    72.188454   0.93268268 
   51500    231.39036    -754.1887    133895.83    -40674.38     2878.936   -43553.316    71.981344   0.93276609 
   51600     227.7603   -911.81191     133995.5   -40633.285    2833.7711   -43467.056     71.91867    0.9320723 
   51700    229.83947   -887.95581    133965.91   -40617.915      2859.64   -43477.555    72.017596   0.93227815 
   51800    227.95196   -763.04373    133907.02   -40661.739    2836.1558   -43497.895    72.326295   0.93268817 
   51900    228.22906   -811.16906    134027.24   -40706.366    2839.6035    -43545.97    72.579242   0.93185155 
   52000     228.5573      -839.12    133937.57   -40739.683    2843.6873   -43583.371    72.626365   0.93247543 
   52100     228.4799   -814.33995    134136.72    -40677.26    2842.7243   -43519.984    72.776657   0.93109102 
   52200    227.43275   -629.78616    134002.79   -40697.066    2829.6958   -43526.762    72.754235   0.93202154 
   52300     227.0428   -771.72628     133908.3    -40673.72    2824.8441   -43498.564    73.057344   0.93267924 
   52400    228.66751   -756.36567    133946.08   -40615.426    2845.0586   -43460.485    73.022007   0.93241617 
   52500    228.68174   -774.22738    134041.45   -40616.861    2845.2356   -43462.096    72.905907   0.93175273 
   52600    228.47385   -849.94907    133874.95   -40648.584     2842.649   -43491.233    72.858501   0.93291158 
   52700    227.32951   -732.10591    133750.86   -40661.463    2828.4113   -43489.874    73.040715   0.93377714 
   52800    227.33141   -842.98997    133881.77   -40594.777    2828.4349   -43423.212    72.914709   0.93286408 
   52900     231.4616     -790.672    133818.01    -40586.85    2879.8223   -43466.673    73.017103   0.93330856 
   53000    229.49756   -887.11572    133952.01     -40551.4     2855.386   -43406.786    73.192625   0.93237493 
   53100    231.74764   -756.28255     134021.8    -40592.51    2883.3812   -43475.891    73.334981   0.93188936 
   53200    228.23189   -856.35711    134218.48   -40569.767    2839.6386   -43409.406    73.441621   0.93052383 
   53300    232.50831   -761.63723    133929.92   -40582.095    2892.8454    -43474.94    73.269662   0.93252865 
   53400    226.76884   -861.88995     133748.3   -40671.286    2821.4355   -43492.721     73.44447   0.93379497 
   53500    224.05361   -666.11421    133664.11   -40686.208    2787.6529   -43473.861    73.436395   0.93438314 
   53600    227.06443   -774.78058     133613.6   -40699.588    2825.1132   -43524.701    73.421105   0.93473638 
   53700    225.55335   -768.61918    133785.92   -40736.929    2806.3125   -43543.241    73.548109   0.93353242 
   53800     235.3425   -889.21768    133734.26   -40621.402    2928.1082    -43549.51    73.536855   0.93389303 
   53900    226.06442   -883.41241    133666.13   -40670.861    2812.6712   -43483.533    73.833327   0.93436899 
   54000    232.32153   -759.02783     133851.1   -40647.446    2890.5216   -43537.967    73.963459   0.93307783 
   54100      230.889   -794.32343    133761.49   -40659.266    2872.6981   -43531.964    73.625442   0.93370291 
   54200    228.20814   -802.63719    133807.18    -40629.66    2839.3432   -43469.003    73.793851   0.93338405 
   54300    233.24897   -888.54296    133864.31    -40599.75    2902.0606    -43501.81    73.851265   0.93298571 
   54400    228.48099   -758.20349     133795.9   -40631.104    2842.7379   -43473.842    73.679864   0.93346275 
   54500    231.10652    -789.1919    134161.84   -40620.711    2875.4045   -43496.116    73.908017   0.93091667 
   54600    232.58969   -862.64988    133994.92   -40517.877    2893.8579   -43411.735    74.058506    0.9320763 
   54700    231.82986   -806.72832    133908.82   -40521.292    2884.4041   -43405.696    74.278188   0.93267561 
   54800    229.04015   -734.66047    133935.52   -40588.646     2849.695   -43438.341     74.16298   0.93248969 
   54900    225.78662   -678.28342    133748.84   -40631.909    2809.2148   -43441.124    74.160237   0.93379119 
   55000      227.181   -811.26385    133760.38   -40689.018    2826.5636   -43515.582    74.334495   0.93371064 
   55100    225.51823   -817.37019     133785.8   -40645.162    2805.8756   -43451.037    74.434848   0.93353327 
   55200    231.36477   -916.05069    133752.57   -40658.263    2878.6176   -43536.881    74.205375   0.93376513 
   55300    226.81013   -825.97341    133869.32   -40607.819    2821.9492   -43429.769    74.579234   0.93295083 
   55400    229.83767    -1040.152    134013.77   -40585.776    2859.6175   -43445.393    74.948433   0.93194524 
   55500    235.43488   -808.82069    133902.27   -40542.622    2929.2575   -43471.879    74.822073   0.93272125 
   55600     230.5575   -949.23022    134078.77    -40584.73    2868.5736   -43453.304    75.045411   0.93149344 
   55700    232.59639   -796.96434    133947.87   -40580.712    2893.9413   -43474.653    75.076722   0.93240374 
   55800    231.13623   -825.52991    134018.93   -40596.267    2875.7741   -43472.041    75.334734   0.93190934 
   55900    232.46707   -832.00217    134219.48   -40568.097    2892.3323   -43460.429    75.303369    0.9305169 
   56000    232.80335   -929.54799    134238.61   -40573.748    2896.5163   -43470.264      75.4125   0.93038427 
   56100    228.87235   -794.88025    134082.62   -40535.866    2847.6071   -43383.473    75.317776   0.93146666 
   56200    232.70978   -806.01831    133855.08   -40541.031    2895.3521   -43436.383    75.044033   0.93305004 
   56300    231.16874   -930.39087    133549.98   -40592.241    2876.1786   -43468.419     75.03166   0.93518162 
   56400    229.18662   -745.14064    133547.81   -40570.409    2851.5173   -43421.926    74.979454   0.93519685 
   56500    230.30429   -641.68959    133570.85   -40675.144    2865.4232   -43540.567    75.302201   0.93503556 
   56600    230.81216   -720.06952    133731.82   -40692.566     2871.742   -43564.308     75.45985   0.93391007 
   56700    222.81012   -734.93799    133739.31   -40728.213    2772.1815   -43500.395    75.449252   0.93385772 
   56800    228.08024   -685.14804     133946.5   -40637.391    2837.7518   -43475.143    75.517092   0.93241328 
   56900    230.45529   -758.69291    134061.67   -40612.575    2867.3019   -43479.877    75.329088   0.93161224 
   57000    235.07065   -802.09634    134107.06   -40549.558    2924.7258   -43474.284    75.353321   0.93129695 
   57100    231.60718   -661.98371    134077.09   -40613.183    2881.6337   -43494.816    75.583556   0.93150506 
   57200    229.09885   -902.62274    133936.02   -40667.284    2850.4252   -43517.709    75.659324   0.93248619 
   57300    227.28436   -794.51281     133783.2   -40729.237    2827.8495   -43557.086    75.786557   0.93355135 
   57400    226.70191   -770.39208    134055.35   -40746.557    2820.6028    -43567.16    75.807266   0.93165613 
   57500    225.07299   -627.67084    133960.96   -40787.572    2800.3359   -43587.908     75.86237   0.93231262 
   57600    224.71379   -742.59954     134114.6   -40728.131    2795.8668   -43523.998    75.979551   0.93124458 
   57700     224.4569   -727.63766    134145.78   -40769.876    2792.6705   -43562.547    76.220776    0.9310281 
   57800    224.14837   -709.71306     134238.8   -40785.492    2788.8319   -43574.324    76.193781   0.93038296 
   57900    226.06779   -781.20632    134348.63   -40747.376    2812.7131   -43560.089    76.382533   0.92962236 
   58000    220.97418   -956.53332    134178.41   -40758.963    2749.3389   -43508.302     76.55308   0.93080168 
   58100    229.99759   -779.56026    134141.82   -40696.713    2861.6072    -43558.32    76.401677   0.93105561 
   58200    230.78409   -971.41829    134196.19   -40653.571    2871.3929   -43524.963    76.589565   0.93067833 
   58300    231.44898   -826.56217    134085.19   -40591.053    2879.6654   -43470.719     76.42124   0.93144882 
   58400    233.96497   -568.29916     134028.2   -40585.811     2910.969    -43496.78    76.262181    0.9318449 
   58500    232.68084   -783.78829    133987.71   -40590.781     2894.992   -43485.773    76.467572   0.93212647 
   58600    231.78487   -1011.8593    133907.32   -40550.845    2883.8444    -43434.69     76.20087   0.93268606 
   58700    229.86372   -579.08988    133940.75   -40545.148    2859.9417    -43405.09    76.345084    0.9324533 
   58800    225.83109   -830.75103     134035.2   -40573.562     2809.768    -43383.33    76.429092   0.93179618 
   58900    232.70502   -913.44312     133840.9   -40616.924    2895.2929   -43512.217    76.492179   0.93314892 
   59000    230.92949   -776.62683    133746.34   -40607.632    2873.2019   -43480.834    76.703205   0.93380866 
   59100    229.19601    -691.7801    133595.05   -40604.207    2851.6341   -43455.841    76.982051   0.93486614 
   59200    226.97142   -832.54359    133695.47   -40620.583     2823.956   -43444.539    77.026138   0.93416399 
   59300     225.9924   -921.34997    133550.35    -40598.05    2811.7751   -43409.825    76.803076   0.93517908 
   59400     225.2216   -741.57066    133621.39   -40632.917    2802.1849   -43435.102     77.08554   0.93468189 
   59500    229.16264   -797.04969    133689.96   -40588.733    2851.2189   -43439.952    76.962514   0.93420247 
   59600    229.30394   -793.83117    133762.94    -40566.09    2852.9769   -43419.067    77.159649   0.93369278 
   59700    223.60654   -845.39221    133799.51   -40587.028    2782.0904   -43369.119    77.244844   0.93343756 
   59800    229.40873   -679.77258    133652.99   -40574.131    2854.2807   -43428.412    77.594363   0.93446089 
   59900    228.12916   -735.93935    133700.99   -40546.273    2838.3604   -43384.634    77.649658   0.93412539 
   60000    229.21693   -836.90293    133414.51    -40585.65    2851.8944   -43437.544    77.615386   0.93613123 
   60100    228.00824    -760.9684    133391.88   -40523.514     2836.856    -43360.37     77.79993   0.93629005 
   60200    230.13324   -748.27168     133474.3   -40491.485     2863.295    -43354.78    77.930481   0.93571194 
   60300    228.68853   -797.67006     133781.4   -40455.467    2845.3201   -43300.787    78.384079   0.93356394 
   60400    235.07402   -810.09539    133823.42   -40414.758    2924.7678   -43339.525    78.313633   0.93327077 
   60500    233.80995   -845.37104    133549.64   -40458.334    2909.0403   -43367.374    78.169661   0.93518406 
   60600    226.27913   -929.41864    133606.58    -40531.04    2815.3426   -43346.383    78.253684   0.93478548 
   60700    231.07413   -654.34749    133513.18   -40549.363    2875.0014   -43424.364    78.203293   0.93543941 
   60800    232.16516   -903.56998     133637.8   -40508.116     2888.576   -43396.692    78.219365   0.93456713 
   60900    231.35557   -895.22474    133572.46   -40507.796    2878.5032   -43386.299     78.20375   0.93502428 
   61000    227.51113   -770.51224    133744.18   -40542.813     2830.671   -43373.484    78.703358   0.93382373 
   61100    230.86177   -752.91812     133687.7   -40580.299    2872.3594   -43452.659    78.978643   0.93421826 
   61200    227.58721   -807.78329    133764.33   -40586.174    2831.6175   -43417.791    78.787801   0.93368307 
   61300    228.86121    -690.1037    133762.51   -40564.764    2847.4686   -43412.233    78.961364   0.93369577 
   61400    230.28628    -702.7071     133821.6   -40609.492    2865.1991   -43474.691    79.196121   0.93328351 
   61500    230.53019   -867.67305    133849.62   -40605.772    2868.2339   -43474.006    79.473642   0.93308814 
   61600    227.61183   -773.24479    133814.69    -40564.39    2831.9239   -43396.314    79.482031   0.93333166 
   61700    223.50407   -860.90557    133940.28   -40640.455    2780.8155    -43421.27    79.403171   0.93245657 
   61800    225.62797    -849.8881    133737.75   -40699.928    2807.2409   -43507.168    79.779933   0.93386868 
   61900    224.74091   -747.01314    133793.18   -40628.056    2796.2042    -43424.26    79.985538   0.93348172 
   62000     229.6098   -808.42603    133819.94    -40574.76    2856.7824   -43431.542    80.352435   0.93329508 
   62100    227.19741   -842.45136    133818.45   -40579.323    2826.7678    -43406.09    80.176432   0.93330546 
   62200    230.29675   -683.07913    133811.29   -40526.806    2865.3294   -43392.136    80.068269   0.93335544 
   62300    230.85908   -862.46623    133904.61   -40557.735    2872.3258   -43430.061    80.347848   0.93270497 
   62400    229.93793   -735.78222    134181.16   -40503.783     2860.865   -43364.648    80.633388   0.93078261 
   62500    231.87787   -738.67099    134043.57   -40533.435    2885.0015   -43418.436    80.667953   0.93173804 
   62600    232.78935    -863.0541    133925.66   -40536.638    2896.3421    -43432.98    80.877535   0.93255835 
   62700     227.5367   -606.42585    134003.13   -40562.854    2830.9891   -43393.843    80.792923   0.93201922 
   62800    227.25638   -889.48208    133878.84   -40550.842    2827.5014   -43378.344    80.753173   0.93288448 
   62900    230.95833   -741.58447    133890.23   -40496.955    2873.5607   -43370.516    80.920083   0.93280511 
   63000    230.95186   -771.09023    134105.26   -40440.971    2873.4802   -43314.452    80.898032   0.93130943 
   63100    235.13443   -785.74007     134095.5   -40427.647    2925.5194   -43353.166    80.873108   0.93137722 
   63200    229.94392   -670.23628    134093.54   -40460.861    2860.9395     -43321.8    80.970493    0.9313908 
   63300    231.59151   -884.67609    133857.46    -40493.59    2881.4386   -43375.029    80.902693   0.93303346 
   63400    230.62865   -860.55403    133911.29   -40405.423    2869.4588   -43274.882    81.406056   0.93265845 
   63500    227.13525   -817.07316    133783.63   -40490.686    2825.9943   -43316.681    81.493851   0.93354839 
   63600    230.34858   -876.91608    133976.87   -40479.921    2865.9743   -43345.895    81.199211   0.93220192 
   63700    230.99658   -821.43946    133760.64   -40474.757    2874.0367   -43348.794    81.155852   0.93370884 
   63800    223.89712   -865.77935    133951.64   -40580.592    2785.7058   -43366.298     81.54743   0.93237745 
   63900    223.62538   -726.84334    133961.19   -40573.979    2782.3249   -43356.304     81.86406   0.93231098 
   64000    225.78316   -802.12661    133890.81   -40557.637    2809.1718   -43366.809      82.2405   0.93280106 
   64100    229.31497   -635.02978    133796.58   -40464.856    2853.1142    -43317.97    82.332617   0.93345801 
   64200    231.24289   -720.58667    133908.13   -40446.777    2877.1012   -43323.878    82.261803   0.93268045 
   64300    232.61527   -880.56743     133832.7    -40342.45    2894.1762   -43236.626    82.281698   0.93320613 
   64400    233.87707   -870.83596    133543.18   -40365.541    2909.8754   -43275.416    82.173845   0.93522925 
   64500    233.58611   -667.94397    133748.28   -40355.573    2906.2553   -43261.828    82.514435   0.93379509 
   64600    230.27038   -848.99341    133922.75   -40418.375    2865.0014   -43283.377       82.795   0.93257861 
   64700    231.61202   -854.03827    133768.67   -40442.262    2881.6939   -43323.955    82.514411   0.93365278 
   64800    231.47517   -709.02725    133772.96   -40480.665    2879.9912   -43360.656    82.842969   0.93362281 
   64900    229.71539   -747.52478    133694.01   -40464.625    2858.0962   -43322.721    82.583402   0.93417414 
   65000    230.40951   -728.42399    133836.75   -40429.357    2866.7323   -43296.089    83.026951   0.93317788 
   65100    228.19892   -812.61457    133883.15   -40451.058    2839.2284   -43290.286    83.326646   0.93285444 
   65200    232.48667   -650.74128    133711.71   -40432.269    2892.5762   -43324.845    83.354306   0.93405054 
   65300    230.91009   -1011.1723    133780.66   -40427.067    2872.9605   -43300.028    83.553082   0.93356909 
   65400     232.8949   -727.42466    133635.94   -40359.332    2897.6553   -43256.987     83.40847   0.93458013 
   65500    230.02089   -720.65131    133684.92   -40420.765    2861.8972   -43282.663    83.478858   0.93423767 
   65600     229.0046   -711.40582    133859.98   -40453.464    2849.2526   -43302.717    83.697645   0.93301591 
   65700    228.27478   -716.00142    133737.75   -40513.775    2840.1722   -43353.947    83.671589   0.93386861 
   65800    226.94777   -824.04698    133599.15   -40517.921    2823.6617   -43341.582     83.56259   0.93483745 
   65900    229.62046   -827.53642       133597   -40490.102    2856.9151   -43347.017    83.930748   0.93485252 
   66000    232.31276   -909.76503    133653.03   -40392.745    2890.4124   -43283.157    83.787294   0.93446057 
   66100    230.08704   -799.17449    133635.33   -40355.036    2862.7202   -43217.756    83.786581   0.93458437 
   66200    232.02728   -716.15064    133798.82   -40329.026    2886.8605   -43215.886    84.104631   0.93344239 
   66300     231.3846   -840.37837    133621.41   -40363.482    2878.8643   -43242.347    84.077181   0.93468173 
   66400    230.21815   -846.00145    133478.35   -40409.271    2864.3514   -43273.622    84.285115   0.93568351 
   66500     227.9671   -545.38203    133457.94   -40424.775    2836.3441   -43261.119    84.384479   0.93582659 
   66600    228.37546   -554.22784    133601.99   -40443.311    2841.4248   -43284.736    84.746878   0.93481758 
   66700    228.81511   -864.99308    133822.72   -40467.726    2846.8949   -43314.621    84.456382   0.93327568 
   66800    229.67834   -820.76121    133711.74   -40398.312    2857.6352   -43255.947    84.567356   0.93405033 
[...]
   84600    228.48909   -645.12088    134185.74   -40715.962    2842.8386   -43558.801     100.4359   0.93075087 
   84700    227.49523   -884.54987    134183.59   -40736.931    2830.4732   -43567.404    100.39822   0.93076574 
   84800    227.89791    -656.3913    134146.66   -40716.647    2835.4833    -43552.13    100.47125   0.93102198 
   84900    228.66381   -897.37221    133976.14   -40699.296    2845.0126   -43544.308    100.25194   0.93220694 
   85000    230.05063   -821.52868     133908.5   -40655.923    2862.2672    -43518.19    100.44158   0.93267785 
   85100    227.67397   -839.52247    133842.07   -40661.846    2832.6971   -43494.543    100.41102   0.93314079 
   85200    229.77561   -806.74341    134063.78   -40670.076    2858.8454   -43528.921    100.38515   0.93159756 
   85300     223.6099   -850.53826    134052.14    -40701.95    2782.1323   -43484.083    100.54567   0.93167844 
   85400    229.32136   -921.90708    134053.75   -40685.209    2853.1937   -43538.403    100.61348   0.93166726 
   85500    230.36723   -849.17062    133964.44   -40649.474    2866.2062    -43515.68    100.74216   0.93228841 
   85600    230.67926   -986.46143    134093.35   -40622.288    2870.0885   -43492.376    101.04676   0.93139216 
   85700    230.54591   -743.63892     134159.1   -40668.343    2868.4294   -43536.772    101.32818   0.93093568 
   85800    224.52252   -888.30856    134156.81   -40672.476    2793.4871   -43465.963    101.34551   0.93095156 
   85900    231.70893   -693.28268    134043.78   -40556.528    2882.8995   -43439.427    101.14843   0.93173657 
   86000    233.24178   -746.28367    134013.07   -40604.067    2901.9711   -43506.038    100.99145   0.93195004 
   86100    232.53965   -741.21354    133951.57   -40603.326    2893.2353   -43496.561    101.04398   0.93237799 
   86200    228.69802   -854.40306    133918.79   -40567.704    2845.4382   -43413.142    101.40001    0.9326062 
   86300    229.27706   -723.63829    133958.76   -40599.765    2852.6425   -43452.407    101.38598   0.93232795 
   86400    233.95862   -761.07327    133936.94   -40619.053      2910.89   -43529.943    101.42503   0.93247978 
   86500    234.81588   -837.54491    133914.57   -40604.107     2921.556   -43525.663    101.58818   0.93263559 
   86600    232.64998   -738.16354    134005.05   -40546.742    2894.6081    -43441.35    101.76622   0.93200587 
   86700    234.42858   -862.90711    134046.91   -40530.415    2916.7372   -43447.152    101.86229   0.93171483 
   86800    232.53977   -811.64298    134144.42    -40611.78    2893.2369   -43505.017    101.78209   0.93103757 
   86900    233.53314   -887.13746    134102.47   -40574.137    2905.5962   -43479.734    101.95491   0.93132876 
   87000    230.20314   -725.31282    133924.04   -40575.444    2864.1647   -43439.609    101.81476   0.93256961 
   87100    230.65316   -707.36244    134122.13   -40611.757    2869.7638   -43481.521    101.89886    0.9311923 
   87200    231.42515   -671.03589    134049.52   -40593.077    2879.3689   -43472.446    102.19176   0.93169666 
   87300     228.5157   -871.11784    133885.73   -40600.157    2843.1698   -43443.326    102.38968   0.93283643 
   87400    231.07563    -768.5689    133783.01   -40605.619    2875.0202   -43480.639    102.50031   0.93355274 
   87500    226.52078   -981.57382    133720.37   -40625.316    2818.3492   -43443.665    102.61923   0.93399002 
   87600    230.65817   -921.74743    133620.88   -40634.755    2869.8262   -43504.582    102.54325   0.93468546 
   87700    229.82602   -692.43936    133659.83   -40626.119    2859.4726   -43485.592    102.33624   0.93441306 
   87800    227.37751   -778.76997    133797.21   -40603.397    2829.0085   -43432.405    102.57369   0.93345363 
   87900    228.51172   -859.09164    133941.92   -40621.908    2843.1203   -43465.028    102.81657   0.93244512 
   88000    221.99003   -707.40597    133944.19    -40626.86     2761.978   -43388.838    102.84504   0.93242931 
   88100    232.24787   -746.88122    133995.32   -40552.773     2889.605   -43442.378    102.88372   0.93207353 
   88200    234.28276   -730.20989    133939.42   -40542.108    2914.9229   -43457.031    103.35877   0.93246255 
   88300    230.87947   -750.90239    133942.47   -40572.004    2872.5796   -43444.584    103.46825   0.93244129 
   88400    228.92349   -729.84305    133881.98   -40672.288    2848.2434   -43520.531    103.54059   0.93286262 
   88500    231.96427   -644.44848    134024.22   -40568.403    2886.0765   -43454.479    103.68876   0.93187252 
   88600    233.99281   -822.52365    134065.52   -40536.026    2911.3154   -43447.341    103.51764   0.93158544 
   88700    231.32625   -571.84699    134176.52   -40538.112    2878.1383    -43416.25    103.33281   0.93081482 
   88800    235.42582   -640.43363    134293.47   -40485.572    2929.1448   -43414.717    103.98593   0.93000422 
   88900    232.95932   -861.85951    134360.11   -40552.111    2898.4568   -43450.567    104.26813   0.92954297 
   89000    230.54435   -825.76762    134098.45    -40544.36    2868.4101    -43412.77    103.99949   0.93135673 
   89100    225.68209   -934.53529    134050.01   -40647.031    2807.9143   -43454.945    103.98252   0.93169327 
   89200    228.97705   -866.16227    133965.89   -40678.866    2848.9099   -43527.776    103.69699   0.93227827 
   89300    229.51436   -691.24328    134172.06   -40709.027     2855.595   -43564.622    103.94391   0.93084571 
   89400    225.21923   -724.91759    134204.79   -40726.386    2802.1554   -43528.541    104.47444    0.9306187 
   89500    221.65733   -837.30411    134361.32     -40755.8    2757.8386   -43513.639    104.62993   0.92953455 
   89600    223.35586   -787.83577    134181.44   -40801.256    2778.9715   -43580.227    104.72106   0.93078065 
   89700    227.16939   -606.69607    134413.46   -40746.758    2826.4191   -43573.177    104.47164   0.92917396 
   89800    227.44722   -905.52185    134496.48   -40700.768    2829.8758   -43530.644    104.59226   0.92860046 
   89900    225.46896    -786.4782    134379.58   -40756.245    2805.2625   -43561.508    104.70053   0.92940823 
   90000     230.6261   -843.32191    134356.58   -40673.106    2869.4271   -43542.533    104.69181   0.92956737 
   90100    228.50048   -749.29893    134328.38   -40696.213    2842.9804   -43539.193    104.79978   0.92976254 
   90200     233.8975   -834.30901    134268.06    -40743.07    2910.1296     -43653.2    104.42711   0.93018018 
   90300    224.78561    -686.6075     134221.9   -40748.333    2796.7603   -43545.094    104.72176   0.93050008 
   90400     224.0973   -755.26465     134277.1    -40727.33    2788.1965   -43515.527    104.87836   0.93011761 
   90500    227.69002   -903.02022    134168.56   -40692.469    2832.8967   -43525.365     104.7541      0.93087 
   90600    229.26097   -873.77333    134147.14   -40591.286    2852.4424   -43443.729    104.94765   0.93101864 
   90700    234.46759   -608.63639    134111.23   -40590.812    2917.2226   -43508.035    104.85202   0.93126799 
   90800    228.96167   -758.06434    134159.54   -40611.901    2848.7185   -43460.619    104.76252   0.93093261 
   90900    227.70637   -728.66314    133949.37    -40704.46    2833.1001   -43537.561    104.70506   0.93239325 
   91000      222.065   -848.71047    134069.82   -40700.481    2762.9108   -43463.392    104.98059   0.93155563 
   91100    225.93987   -961.13259    133918.79   -40690.185    2811.1216   -43501.307    105.01672   0.93260617 
   91200    228.54669   -755.66847    134036.98   -40636.853    2843.5553   -43480.408    105.26667   0.93178386 
   91300     230.6271   -835.93594    134058.99   -40538.015    2869.4396   -43407.454     105.2761   0.93163086 
   91400    229.16404   -632.74585    134048.83   -40516.787    2851.2363   -43368.024    105.34772   0.93170145 
   91500     233.7241   -761.72367    133914.22   -40532.308    2907.9721    -43440.28    105.18235   0.93263797 
   91600    226.57711   -904.35476     133963.9   -40558.884      2819.05   -43377.934    105.39525   0.93229217 
   91700    228.96665   -769.81876    133793.74   -40643.936    2848.7804   -43492.716    105.34504   0.93347781 
   91800    230.48073   -702.19608    133887.45   -40607.189    2867.6185   -43474.808    105.34514   0.93282451 
   91900    227.76472   -788.62682    134029.49   -40609.253    2833.8261   -43443.079    105.77447   0.93183587 
   92000    230.08731   -772.24685    134090.27   -40615.547    2862.7236   -43478.271    105.75616   0.93141351 
   92100    226.81584   -710.02247    134023.73   -40667.669    2822.0202    -43489.69    105.89158   0.93187598 
   92200    229.42216   -765.16697    133918.04   -40600.751    2854.4479   -43455.199    105.95297   0.93261142 
   92300    232.86954   -699.17703    134074.73   -40507.456    2897.3398   -43404.795    106.08948   0.93152145 
   92400    230.72684   -924.96728    134104.58   -40501.944    2870.6806   -43372.625    106.09198   0.93131414 
   92500     228.3375   -817.78254    133977.02   -40540.707    2840.9526    -43381.66    106.26852   0.93220082 
   92600    232.15454   -915.68401    134027.17   -40494.993    2888.4438   -43383.437    106.19474   0.93185205 
   92700    228.91594   -747.96975    134082.35   -40480.829    2848.1495   -43328.978    106.50857   0.93146851 
   92800     230.1831   -824.09686     134060.7   -40516.706    2863.9154   -43380.621    106.59631   0.93161899 
   92900    233.55737   -588.65056    134316.67   -40469.381    2905.8977   -43375.279    106.44949   0.92984356 
   93000    231.52659   -859.59469    134073.88   -40518.301     2880.631   -43398.932    106.17363   0.93152737 
   93100    230.33996   -815.51603    134059.06   -40450.782     2865.867   -43316.649    106.48687   0.93163037 
   93200    231.22902   -898.23581    133981.23   -40481.249    2876.9286   -43358.178    106.77386   0.93217155 
   93300    232.25024   -742.48433    134071.95   -40494.142    2889.6346   -43383.777    106.71003   0.93154082 
   93400    230.56505   -773.21052    134165.03   -40529.652    2868.6675   -43398.319    106.64919   0.93089452 
   93500    223.81257   -766.50512    134017.09   -40574.542    2784.6539   -43359.196    106.78254   0.93192212 
   93600    224.56406   -751.05525    133987.87   -40628.271    2794.0039   -43422.275    106.49348   0.93212538 
   93700    222.94619   -899.64397    133939.44   -40594.135    2773.8744    -43368.01    106.58622   0.93246239 
   93800    226.72913   -770.49945    133993.29   -40560.618    2820.9414   -43381.559     107.3294   0.93208764 
   93900    230.51373   -813.83661    134260.57   -40550.989    2868.0291   -43419.018    107.76614   0.93023213 
   94000    227.19712   -704.57421    134031.05   -40560.538     2826.764   -43387.302    107.39722   0.93182503 
   94100    229.62635   -898.52335    133972.46   -40580.614    2856.9884   -43437.603    107.28262    0.9322326 
   94200    230.96175   -918.37311     133714.5   -40580.485    2873.6033   -43454.089    107.40295   0.93403101 
   94300    229.17355   -714.45824    134007.84     -40516.4    2851.3546   -43367.755    107.68798   0.93198645 
   94400    231.94704   -822.95681    133982.41   -40485.218    2885.8622    -43371.08    107.86257   0.93216335 
   94500    233.12167   -817.25143    133993.25   -40411.034    2900.4768    -43311.51    108.05918   0.93208792 
   94600     231.4363   -890.94158    133945.71   -40459.828    2879.5075   -43339.335     107.6096   0.93241878 
   94700    232.54121   -793.93223    133732.92   -40516.565    2893.2548    -43409.82    107.81423   0.93390235 
   94800    229.69518   -652.68159    133775.14   -40509.134    2857.8447   -43366.978    107.92971   0.93360761 
   94900    229.67726   -784.80939    133707.23   -40479.906    2857.6218   -43337.528    108.18586   0.93408182 
   95000    231.19138   -654.21362    133649.79   -40457.292    2876.4603   -43333.753    108.00763   0.93448326 
   95100    231.65093   -734.93824    133621.59   -40449.991    2882.1779   -43332.169    108.14557   0.93468048 
   95200    233.64798    -733.5134    133480.07   -40481.494    2907.0251    -43388.52    107.92539   0.93567147 
   95300    228.49065   -878.73212    133543.46   -40375.988    2842.8581   -43218.846    108.48575   0.93522729 
   95400    233.00574   -788.34913    133462.57   -40427.928    2899.0344   -43326.962    108.44205   0.93579414 
   95500    234.15216   -707.75341     133640.2   -40428.301     2913.298   -43341.599    108.67349   0.93455033 
   95600     230.5055   -899.94643    133523.51   -40419.705    2867.9267   -43287.631    108.65774   0.93536702 
   95700    228.46382   -751.54564    133380.75   -40475.047    2842.5243   -43317.572    108.62347    0.9363682 
   95800    226.24777   -842.36212    133452.07   -40527.642    2814.9524   -43342.594    108.71423   0.93586775 
   95900    231.54012    -732.0619    133498.22   -40465.999    2880.7992   -43346.798    108.65361   0.93554425 
   96000    228.92061   -808.71803    133510.97   -40568.201    2848.2077   -43416.408    108.88819   0.93545487 
   96100    229.62151   -892.55656    133339.02   -40521.489    2856.9282   -43378.418    108.71826   0.93666121 
   96200    227.89203   -817.16261    133049.45   -40562.979    2835.4101   -43398.389    108.83443    0.9386998 
   96300     231.2966   -855.94017     133128.6   -40498.749    2877.7694   -43376.518    108.82912   0.93814171 
   96400    229.45743   -608.12062    133094.29   -40475.248    2854.8867   -43330.135    108.81866   0.93838352 
   96500     231.4132   -705.15926    132999.92   -40514.987    2879.2202   -43394.207     108.9598   0.93904936 
   96600    227.84781   -780.30194    133115.27   -40501.701      2834.86   -43336.561    109.21023   0.93823563 
   96700    223.03958   -779.93372    133091.49   -40570.347    2775.0364   -43345.383    109.29894   0.93840326 
   96800    221.46212   -955.11478    133035.51   -40613.632    2755.4099   -43369.042    109.42274   0.93879816 
   96900    225.21175   -715.08237     133403.7   -40530.635    2802.0623   -43332.698    109.69798   0.93620712 
   97000     228.9823   -699.58348    133312.07   -40532.286    2848.9751   -43381.261    109.73376    0.9368506 
   97100     229.3056   -611.18932    133207.16     -40526.6    2852.9976   -43379.598    109.86293   0.93758839 
   97200    226.96881   -776.13171    133253.78   -40526.166    2823.9235    -43350.09    110.02116   0.93726041 
   97300    228.59946   -957.51925    133194.24   -40535.001    2844.2119   -43379.213    109.63153   0.93767937 
   97400    225.02044   -851.47309     133072.2   -40542.625    2799.6821   -43342.307    109.59026   0.93853932 
   97500    232.91489   -1013.8256    133207.78    -40445.78     2897.904   -43343.684     109.8463   0.93758405 
   97600    226.17663   -983.70298       133140   -40525.279    2814.0673   -43339.346    110.15235   0.93806137 
   97700    227.84888   -816.37038    133208.96   -40442.488    2834.8732   -43277.361     110.3085   0.93757573 
   97800    233.18633    -489.6101    133095.07   -40421.059    2901.2813    -43322.34    110.25553   0.93837802 
   97900    232.78059   -562.69586    133272.78   -40384.233    2896.2332   -43280.467    110.24224   0.93712677 
   98000    228.76778   -836.52771     133392.1   -40412.087    2846.3062   -43258.394    110.48371   0.93628855 
   98100    231.88121   -748.79794    133644.12   -40484.936     2885.043   -43369.979    110.98436   0.93452288 
   98200    232.90016   -688.45074    133669.93   -40466.415    2897.7208   -43364.135    111.08912   0.93434243 
   98300    229.55112   -870.16207    133501.66   -40507.812    2856.0524   -43363.864    111.30301   0.93552014 
   98400    228.75469    -705.8687     133505.9    -40508.95    2846.1433   -43355.093     111.6793   0.93549043 
   98500    231.43622   -642.58606    133589.43   -40518.573    2879.5066    -43398.08     111.5181   0.93490551 
   98600     229.3358   -815.84841    133709.18    -40547.08    2853.3733   -43400.453    111.39551    0.9340682 
   98700     224.8933   -717.70594    133641.15   -40608.913    2798.1002   -43407.013    111.56334   0.93454364 
   98800    226.76028   -962.19392    133501.61   -40583.434     2821.329   -43404.763    111.78624   0.93552046 
   98900    225.05526   -788.35131    133599.48   -40589.672    2800.1153   -43389.787     112.0604   0.93483514 
   99000    227.96668   -810.59066    133630.31   -40623.646    2836.3389   -43459.985    112.27376   0.93461946 
   99100    226.16838   -794.67497    133612.01   -40541.653    2813.9646   -43355.617    112.48063   0.93474752 
   99200    226.89047   -800.91373    133508.47   -40525.264    2822.9488   -43348.213    112.49856    0.9354724 
   99300    230.08064   -770.97888    133398.43   -40477.814    2862.6406   -43340.455    112.51599   0.93624409 
   99400    231.19869    -763.4582    133324.98   -40448.933    2876.5512   -43325.484    112.66361    0.9367599 
   99500    236.61073    -825.1589     133501.1   -40328.901    2943.8873   -43272.788    112.75072   0.93552409 
   99600    232.86805   -686.67352    133317.49   -40360.452    2897.3212   -43257.773     112.5522   0.93681249 
   99700    236.46262    -835.7903    133490.34   -40364.656    2942.0445     -43306.7    112.63309   0.93559945 
   99800    231.90203   -941.30349    133432.98   -40384.056    2885.3021   -43269.358    113.21066   0.93600166 
   99900    232.77731   -630.89153    133215.07    -40441.75    2896.1923   -43337.942    113.19571   0.93753277 
  100000     228.8867    -902.0813    133295.29   -40453.832    2847.7856   -43301.617    113.35419   0.93696853 
  100100    233.44652   -780.19064    133196.81   -40385.932    2904.5185   -43290.451    113.16792   0.93766129 
  100200    235.44332   -691.12486    133371.52   -40396.542    2929.3625   -43325.905    113.50257   0.93643302 
  100300    234.54681   -792.03302    133249.93   -40385.088    2918.2083   -43303.296     113.4496    0.9372875 
  100400    236.20773   -978.02894     133168.4   -40434.448    2938.8732   -43373.321    113.61852   0.93786131 
  100500    237.27969    -891.8824    133130.05    -40365.64    2952.2104   -43317.851     113.8549   0.93813149 
  100600    229.08174   -611.25505    133071.39   -40432.504    2850.2124   -43282.716      114.026   0.93854501 
  100630     229.1919   -744.63114    133166.24   -40412.106    2851.5829   -43263.689    114.14065    0.9378765 
Loop time of 91.2581 on 6 procs for 100000 steps with 4175 atoms

Performance: 473.382 ns/day, 0.051 hours/ns, 1095.793 timesteps/s
98.5% CPU use with 6 MPI tasks x no OpenMP threads

MPI task timing breakdown:
Section |  min time  |  avg time  |  max time  |%varavg| %total
---------------------------------------------------------------
Pair    | 65.162     | 66.971     | 69.212     |  17.9 | 73.39
Neigh   | 5.3005     | 5.3467     | 5.4017     |   1.5 |  5.86
Comm    | 13.538     | 15.817     | 17.684     |  37.6 | 17.33
Output  | 0.19895    | 0.20027    | 0.20659    |   0.6 |  0.22
Modify  | 2.0955     | 2.1199     | 2.1402     |   1.1 |  2.32
Other   |            | 0.8031     |            |       |  0.88

Nlocal:        695.833 ave         708 max         687 min
Histogram: 1 0 2 0 1 0 1 0 0 1
Nghost:        1459.33 ave        1475 max        1438 min
Histogram: 1 0 0 0 0 2 2 0 0 1
Neighs:        0.00000 ave           0 max           0 min
Histogram: 6 0 0 0 0 0 0 0 0 0
FullNghs:      19056.0 ave       19405 max       18710 min
Histogram: 1 0 1 0 0 2 1 0 0 1

Total # of neighbors = 114336
Ave neighs/atom = 27.385868
Neighbor list builds = 5714
Dangerous builds = 0

undump              1
unfix               2
unfix               3
unfix               4


################################################
#######         Run Simulation         #########
################################################

reset_timestep      0
log                 log.run_${NAME}
log                 log.run_liquid_density_MLmW
