
# Create simulation box of size 50 x 50 x 50 Angstrom
#
lattice	            sc 1
Lattice spacing in x,y,z = 1.0000000 1.0000000 1.0000000
region 	            all block 0 50 0 50 0 50 units box
create_box          1 all
Created orthogonal box = (0.0000000 0.0000000 0.0000000) to (50.000000 50.000000 50.000000)
  1 by 2 by 3 MPI processor grid

# fill box with 4175 randomly distributed atoms
#
create_atoms        1 random 4175 63782 all
Created 4175 atoms
  create_atoms CPU = 0.001 seconds
mass                1 18.015

# Define potential
#
pair_style          sw
pair_coeff          * * ML_mW.sw mW
Reading sw potential file ML_mW.sw with DATE: 2019-02-27

# Run minimization
#
minimize            1.0e-8 1.0e-8 10000 1000
WARNING: Using 'neigh_modify every 1 delay 0 check yes' setting during minimization (../min.cpp:187)
Neighbor list info ...
  update every 1 steps, delay 0 steps, check yes
  max neighbors/atom: 2000, page size: 100000
  master list distance cutoff = 6.0032907
  ghost atom cutoff = 6.0032907
  binsize = 3.0016454, bins = 17 17 17
  1 neighbor lists, perpetual/occasional/extra = 1 0 0
  (1) pair sw, perpetual
      attributes: full, newton on
      pair build: full/bin/atomonly
      stencil: full/bin/3d
      bin: standard
Per MPI rank memory allocation (min/avg/max) = 4.255 | 4.258 | 4.261 Mbytes
Step Temp E_pair E_mol TotEng Press 
       0            0    7792709.3            0    7792709.3    5898794.3 
     630            0   -45180.336            0   -45180.336   -154.07449 
Loop time of 1.1188 on 6 procs for 630 steps with 4175 atoms

99.5% CPU use with 6 MPI tasks x no OpenMP threads

Minimization stats:
  Stopping criterion = max force evaluations
  Energy initial, next-to-last, final = 
      7792709.32924461  -45180.0188663597   -45180.336116598
  Force two-norm initial, final = 2.0191930e+08 4.9721331
  Force max component initial, final = 1.0948746e+08 0.73126211
  Final line search alpha, max atom move = 0.053306038 0.038980685
  Iterations, force evaluations = 630 1000

MPI task timing breakdown:
Section |  min time  |  avg time  |  max time  |%varavg| %total
---------------------------------------------------------------
Pair    | 0.87641    | 0.97042    | 1.0372     |   5.4 | 86.74
Neigh   | 0.023761   | 0.024346   | 0.024721   |   0.2 |  2.18
Comm    | 0.037456   | 0.10452    | 0.19957    |  16.5 |  9.34
Output  | 0          | 0          | 0          |   0.0 |  0.00
Modify  | 0          | 0          | 0          |   0.0 |  0.00
Other   |            | 0.01951    |            |       |  1.74

Nlocal:        695.833 ave         704 max         685 min
Histogram: 1 1 0 0 1 0 0 1 0 2
Nghost:        1494.17 ave        1515 max        1468 min
Histogram: 1 1 0 0 0 0 1 1 1 1
Neighs:        0.00000 ave           0 max           0 min
Histogram: 6 0 0 0 0 0 0 0 0 0
FullNghs:      19997.0 ave       20462 max       19320 min
Histogram: 1 1 0 0 0 0 0 2 0 2

Total # of neighbors = 119982
Ave neighs/atom = 28.738204
Neighbor list builds = 26
Dangerous builds = 0

# Add velocity/set timestep
#
velocity            all create ${TEMP} 120598 rot yes dist gaussian
velocity            all create 220 120598 rot yes dist gaussian
timestep            5.0

# Define output
#
compute	            1 all msd
thermo	            100
thermo_style        custom step temp press vol etotal ke pe c_1[4] density

# Neighbor lists
#
neigh_modify        delay 0 every 1 check yes

# Set fixes
#
fix                 1 all momentum 10 linear 1 1 1 rescale
fix                 2 all nve
fix                 3 all temp/csvr ${TEMP} ${TEMP} 500.0 928347
fix                 3 all temp/csvr 220 ${TEMP} 500.0 928347
fix                 3 all temp/csvr 220 220 500.0 928347
fix                 4 all press/berendsen iso ${PRES} ${PRES} 1000.0 modulus 20000
fix                 4 all press/berendsen iso -500 ${PRES} 1000.0 modulus 20000
fix                 4 all press/berendsen iso -500 -500 1000.0 modulus 20000

# Run 0.5 ns equilibration
#
dump                1 all custom 1000 eq.${NAME}.dump id type x y z vx vy vz
dump                1 all custom 1000 eq.liquid_density_MLmW.dump id type x y z vx vy vz
run                 100000
Per MPI rank memory allocation (min/avg/max) = 3.506 | 3.508 | 3.511 Mbytes
Step Temp Press Volume TotEng KinEng PotEng c_1[4] Density 
     630          220    846.92133       125000   -42443.118    2737.2183   -45180.336 2.7295415e-33   0.99914793 
     700    140.24563   -411.49842    125926.81   -41597.462    1744.9222   -43342.384   0.25983829   0.99179432 
     800    173.10503   -643.01858    126198.41   -40828.356    2153.7556   -42982.112   0.59375382   0.98965981 
     900    192.79803   -481.60522    126212.38   -40398.675     2398.774   -42797.449    0.9839466   0.98955027 
    1000    202.78111   -425.11623    126549.75   -40118.952    2522.9825   -42641.935    1.3634856   0.98691216 
    1100    211.29462   -580.26951    126618.11   -39929.723    2628.9067    -42558.63     1.737278   0.98637935 
    1200    210.26813   -365.68978    126973.25   -39955.113    2616.1353   -42571.248    2.1105413   0.98362048 
    1300    218.81874   -464.91082    127152.65   -39949.658    2722.5211   -42672.179    2.4853866   0.98223268 
    1400     216.7385   -674.59451    127303.66   -39984.294     2696.639   -42680.933    2.8525199   0.98106757 
    1500    214.41709   -598.81458    127277.29   -39951.556    2667.7562   -42619.312    3.2359768   0.98127083 
    1600    221.98555   -476.33174    127702.62   -39856.982    2761.9222   -42618.904      3.55305   0.97800258 
    1700    219.68715   -531.42134    127591.23   -39886.232    2733.3258   -42619.557    3.9548266   0.97885636 
    1800    215.52636   -251.36716    127636.53   -39971.478    2681.5577   -42653.035    4.1956451   0.97850895 
    1900    219.15214    -513.6933    127807.11   -39969.509    2726.6692   -42696.178    4.4735239   0.97720298 
    2000    219.71991   -408.52011    127925.05   -39933.589    2733.7334   -42667.322    4.7187207   0.97630207 
    2100    223.88143   -512.59775    128012.89   -39894.391    2785.5107   -42679.902    5.0752257   0.97563213 
    2200    224.16244   -647.63275    127979.91   -39931.284     2789.007   -42720.291    5.3148979   0.97588353 
    2300    220.37099   -639.51192    128061.35   -39934.746    2741.8341    -42676.58     5.587458   0.97526299 
    2400    223.64471   -448.95544     128358.3   -39970.209    2782.5654   -42752.774    5.9610986   0.97300672 
    2500    220.57398   -662.45897    128399.74   -39934.173    2744.3597   -42678.533    6.2176514   0.97269269 
    2600    226.15774   -619.59459    128380.81   -39886.189    2813.8322   -42700.021    6.4371999   0.97283613 
    2700    220.43803   -555.43962    128404.85    -39908.85    2742.6682   -42651.518    6.7833441   0.97265402 
    2800    224.85029   -435.96473    128479.14   -39908.667    2797.5651   -42706.233    7.1024935    0.9720916 
    2900    220.69496   -595.57985    128382.27   -39992.115    2745.8649    -42737.98    7.3110552   0.97282509 
    3000     223.0106   -496.86127    128314.09   -40038.268    2774.6758   -42812.944     7.648695   0.97334196 
    3100    223.06547   -454.48243    128476.63   -40012.985    2775.3585   -42788.343    7.9862373   0.97211057 
    3200    220.15652   -312.17025    128659.07     -40069.3    2739.1657   -42808.466    8.1085845   0.97073214 
    3300    221.44838   -469.74344    128776.22   -40089.337    2755.2389   -42844.576    8.3676406   0.96984902 
    3400    219.93464   -256.02939    129003.49   -40142.321    2736.4051   -42878.726    8.5779444   0.96814043 
    3500    222.68171   -420.64683    129144.04   -40194.619    2770.5838   -42965.203    8.8765946   0.96708679 
    3600    224.63012   -514.18727    129119.45   -40264.638    2794.8257   -43059.463    8.9716563   0.96727096 
    3700    218.04371   -587.11264    128997.24   -40371.123    2712.8782   -43084.001    9.1202394   0.96818735 
    3800    220.51769   -353.40951     129229.6   -40350.718    2743.6593   -43094.377    9.3335239   0.96644649 
    3900    219.38542   -410.56536     129467.5   -40374.516    2729.5717   -43104.087    9.5040133   0.96467059 
    4000    218.61982   -477.70286    129702.67    -40366.44    2720.0462   -43086.486    9.7875184   0.96292155 
    4100    217.91113   -586.08023    129828.52   -40360.069    2711.2287   -43071.298      9.91716   0.96198812 
    4200    218.04175    -396.2713    129711.85    -40368.44    2712.8539   -43081.294     10.06891   0.96285335 
    4300    223.00728   -591.15708    129760.06   -40374.888    2774.6345   -43149.523    10.414627   0.96249561 
    4400    220.75469   -443.96458    129937.91   -40368.497     2746.608   -43115.105    10.595936    0.9611782 
    4500    221.32071   -539.02926    129924.83   -40382.546    2753.6504   -43136.196    10.672384   0.96127499 
    4600    219.73701   -468.39769    129786.25    -40437.77    2733.9461   -43171.716    10.741047   0.96230143 
    4700    221.53155   -435.48416    129799.44   -40354.466    2756.2736   -43110.739    10.839662   0.96220365 
    4800    219.65661   -488.36065    129869.83   -40429.363    2732.9458   -43162.309     11.12201   0.96168208 
    4900    221.50904   -443.75737    130050.45   -40318.099    2755.9936   -43074.093    11.369552    0.9603465 
    5000    226.22934   -544.49714    129999.42   -40279.865    2814.7231   -43094.588      11.6201   0.96072343 
    5100    223.42544   -427.84248     129907.5   -40355.479    2779.8372   -43135.316    11.666409   0.96140322 
    5200     219.2669   -397.48664    130126.84   -40416.025    2728.0971   -43144.123    11.817667   0.95978274 
    5300    222.60275   -548.74252     130222.7   -40388.046    2769.6014   -43157.647    11.928925   0.95907618 
    5400    215.66086   -314.47422    130355.43   -40419.984    2683.2311   -43103.215    12.220312   0.95809963 
    5500    221.56633   -513.01672    130331.48   -40427.402    2756.7063   -43184.108     12.36265   0.95827572 
    5600    221.02271   -390.77163    130335.24   -40431.166    2749.9427   -43181.109    12.483213   0.95824809 
    5700     221.2497   -516.40163    130432.41   -40450.652    2752.7669   -43203.418    12.629569   0.95753418 
    5800    219.68826    -473.2817    130322.78   -40477.836    2733.3397   -43211.176    12.681774   0.95833972 
    5900    221.80648   -576.60039    130417.36   -40521.066    2759.6943   -43280.761    12.886094   0.95764468 
    6000    221.66368   -563.18769    130458.91   -40521.428    2757.9176   -43279.345    13.032907   0.95733967 
    6100    221.73951   -374.03741       130692   -40462.222     2758.861   -43221.083    13.147864   0.95563228 
    6200    216.40096   -541.14684    130582.57   -40539.372    2692.4393   -43231.812    13.272364   0.95643311 
    6300    218.32952   -619.20908    130651.75   -40503.878    2716.4344   -43220.313    13.281411   0.95592669 
    6400    220.63301   -554.76288     130608.4    -40481.35    2745.0942   -43226.444    13.421428   0.95624392 
    6500    221.53336   -477.25134    130885.42   -40433.775    2756.2962   -43190.072    13.610995   0.95422004 
    6600    219.99707   -574.81634    130895.74   -40517.861    2737.1818   -43255.043    13.780721   0.95414484 
    6700    218.51651   -407.92989    131042.04   -40582.968    2718.7608   -43301.729    13.982589   0.95307955 
    6800    221.71359   -631.33218    131031.19   -40521.628    2758.5386   -43280.166     14.10684   0.95315848 
    6900    223.11127   -528.42821    131067.69   -40459.139    2775.9284   -43235.067    14.108079   0.95289303 
    7000    223.47838   -511.83783    131180.86   -40443.501    2780.4959   -43223.997    14.374908   0.95207099 
    7100    220.74225   -478.67062       131117   -40461.858    2746.4532   -43208.312    14.530727    0.9525347 
    7200    221.07199   -788.59333    131206.38   -40500.867    2750.5558   -43251.423    14.588394   0.95188583 
    7300    220.52241   -306.85247    131243.02   -40563.642    2743.7181    -43307.36    14.654161   0.95162009 
    7400    218.70523   -443.40201    131182.04   -40602.865    2721.1088   -43323.974    14.913218   0.95206241 
    7500    219.34121   -369.56226    131445.46   -40589.915    2729.0216   -43318.937    15.039783   0.95015444 
    7600     218.4373   -353.58622    131469.16   -40679.435    2717.7753    -43397.21    15.247074   0.94998319 
    7700    220.98962   -407.30722    131496.19   -40583.853     2749.531   -43333.384     15.41836   0.94978789 
    7800     219.6789   -580.79757    131521.04   -40573.254    2733.2232   -43306.478    15.454193   0.94960842 
    7900     217.7032   -510.65048    131350.35   -40648.315    2708.6417   -43356.956    15.548144    0.9508425 
    8000    217.84169   -663.38772    131392.67    -40616.11    2710.3648   -43326.475    15.686646   0.95053619 
    8100    219.64887   -419.07401    131507.86    -40691.43    2732.8496   -43424.279    15.628252   0.94970362 
    8200    215.65588   -492.16731    131645.25   -40716.404    2683.1692   -43399.573    15.853634   0.94871245 
    8300    217.78526    -491.1498    131690.37   -40713.723    2709.6626   -43423.386    15.946977   0.94838745 
    8400    219.85202   -627.54956    131557.81   -40691.526    2735.3771   -43426.903    15.998531   0.94934306 
    8500    218.87927   -546.37523    131650.82   -40620.106    2723.2742    -43343.38    16.068644   0.94867231 
    8600     221.1809   -498.58631    131784.56   -40634.477    2751.9108   -43386.388    16.202256   0.94770958 
    8700    219.22956   -590.47719    131704.15   -40621.491    2727.6325   -43349.124     16.30977   0.94828818 
    8800    223.02584   -427.33098    131536.71   -40661.342    2774.8655   -43436.207     16.43381   0.94949529 
    8900    215.74708   -410.22987    131563.46   -40737.212    2684.3038   -43421.515    16.584767   0.94930226 
    9000    219.77807   -531.75818    131501.55   -40684.294     2734.457   -43418.751    16.721522   0.94974921 
    9100    216.89192   -495.26408    131399.49   -40752.255    2698.5478   -43450.802    16.803776   0.95048689 
    9200    219.59078   -433.60616    131458.82   -40648.342    2732.1268   -43380.469    16.921228   0.95005793 
    9300    217.82181   -461.77617    131489.83   -40697.118    2710.1175   -43407.236     16.94426   0.94983383 
    9400    218.51182   -618.41773     131339.4   -40650.406    2718.7025   -43369.109    17.074193   0.95092172 
    9500    220.23981   -588.02769    131381.28   -40671.444    2740.2019   -43411.646    17.381333    0.9506186 
    9600    219.65103   -418.99534    131478.33   -40637.732    2732.8764   -43370.608    17.419397   0.94991691 
    9700    223.19688    -585.6832    131376.33   -40582.216    2776.9935    -43359.21    17.613715   0.95065443 
    9800    213.85344   -612.65637    131344.26   -40655.815    2660.7433   -43316.558    17.627269   0.95088653 
    9900    217.65476   -427.81763    131232.69   -40728.417     2708.039   -43436.456    17.681724   0.95169498 
   10000    213.88672    -316.2764    131214.61   -40734.682    2661.1574   -43395.839    17.733804   0.95182609 
   10100    218.71641   -486.00068    131302.31   -40697.545     2721.248   -43418.793    17.936985   0.95119035 
   10200    214.50574   -427.21247    131246.61   -40750.028    2668.8592   -43418.887    18.035251   0.95159403 
   10300    217.16089   -525.70103    131288.61   -40754.149    2701.8943   -43456.043    18.152723   0.95128958 
   10400    223.40595   -606.93796    131468.74    -40716.22    2779.5948   -43495.815    18.293294   0.94998618 
   10500    222.63463   -519.04286     131583.5   -40707.463    2769.9981   -43477.461    18.448853   0.94915771 
   10600    224.68204   -426.90496    131498.64     -40649.6    2795.4717   -43445.072    18.458917   0.94977024 
   10700     222.8388   -501.55264    131387.33    -40633.98    2772.5383   -43406.518    18.670499   0.95057482 
   10800    222.38896   -520.50122    131484.56    -40623.48    2766.9414   -43390.421    18.808563   0.94987194 
   10900    222.14369   -541.54123    131564.61   -40655.692    2763.8899   -43419.582    18.938461   0.94929395 
   11000    223.78748   -538.48466    131443.61   -40664.033    2784.3417   -43448.375    19.119502   0.95016786 
   11100    218.80687   -566.45488    131683.27    -40713.73    2722.3734   -43436.103     19.26128   0.94843858 
   11200    221.07271    -354.4947    131591.23   -40728.413    2750.5647   -43478.978    19.492865   0.94910195 
   11300    220.30221   -514.86637    131580.56   -40738.288    2740.9783   -43479.266    19.615469   0.94917888 
   11400    219.70594   -497.61241    131776.98   -40744.812    2733.5596   -43478.372    19.846871   0.94776409 
   11500    217.42741   -497.76772    131663.52   -40768.875    2705.2104   -43474.086    19.641208    0.9485808 
   11600    219.15487   -394.06773    131892.75   -40774.553    2726.7032   -43501.256    19.638853   0.94693222 
   11700    225.31253   -501.62006    132106.64   -40673.513    2803.3163   -43476.829    19.936303   0.94539905 
   11800     220.9008   -588.56376    132092.93   -40742.784    2748.4259    -43491.21    20.028427   0.94549716 
   11900    220.71031   -438.56604    131810.43    -40746.19    2746.0559   -43492.246    20.054025    0.9475236 
   12000    221.06869   -476.66884    132129.76   -40745.886    2750.5148     -43496.4    20.287354   0.94523359 
   12100     222.6222   -481.03926    132003.23   -40710.996    2769.8435   -43480.839    20.332456   0.94613967 
   12200    224.76553   -477.05618    132178.21   -40712.747    2796.5106   -43509.257    20.508146   0.94488712 
   12300    218.27766   -474.99836    132131.34   -40721.612    2715.7891   -43437.401    20.627879   0.94522233 
   12400    220.89306   -457.07048    132049.89   -40706.096    2748.3297   -43454.425    20.805928   0.94580531 
   12500    217.76101   -506.65176    132051.82    -40805.87     2709.361   -43515.231     21.00469   0.94579154 
   12600    221.68998   -506.54102    132132.59   -40726.789    2758.2448   -43485.034    20.910683   0.94521336 
   12700    220.85216   -595.48745    132233.77   -40717.874    2747.8208   -43465.695    21.086341    0.9444901 
   12800    225.09854   -313.99118     132002.9    -40712.89    2800.6537   -43513.544    21.123176     0.946142 
   12900     220.1319   -732.21316    131909.43    -40777.88    2738.8594    -43516.74     21.17323   0.94681245 
   13000    224.39616   -458.85147    131847.19    -40729.17    2791.9149   -43521.085    21.432229   0.94725944 
   13100    222.52796   -595.29448    131858.05   -40739.454    2768.6709   -43508.125    21.411056   0.94718139 
   13200    224.42387   -645.78483    131759.88   -40650.647    2792.2597   -43442.906    21.470176   0.94788709 
   13300    223.68686   -526.99851    131851.76   -40686.913    2783.0897   -43470.003    21.411253   0.94722659 
   13400    219.51424   -622.75385    131792.78   -40757.469    2731.1745   -43488.643    21.554405    0.9476505 
   13500     219.5896   -410.96552    131797.27   -40788.731    2732.1121   -43520.843    21.534995   0.94761818 
   13600    218.61608   -527.58449    132164.03   -40811.639    2719.9997   -43531.639    21.664088    0.9449885 
   13700    219.09491   -401.20287    132180.74   -40824.337    2725.9572   -43550.294    21.800538   0.94486904 
   13800    219.70281   -608.92937    132246.85   -40747.636    2733.5206   -43481.156    21.967184   0.94439672 
   13900    222.57536    -499.8508    132148.81   -40799.356    2769.2607   -43568.617    21.995107   0.94509739 
   14000    223.74377   -283.37987     132204.7   -40781.099    2783.7979   -43564.897    22.085541   0.94469783 
   14100    215.56718    -522.4978    132198.13   -40785.157    2682.0656   -43467.223    22.076979   0.94474475 
   14200    220.19594    -421.1015    132340.86   -40840.283    2739.6561   -43579.939      22.2234   0.94372583 
   14300    219.82629   -546.80381    132541.44   -40901.313     2735.057    -43636.37    22.316179   0.94229769 
   14400    218.03635   -522.82792    132651.81   -40870.369    2712.7867   -43583.155    22.466277   0.94151366 
   14500    219.97291   -583.95603    132484.23   -40817.689    2736.8812    -43554.57    22.631668   0.94270458 
   14600    218.80961   -586.44973    132353.92   -40831.639    2722.4075   -43554.046    22.660574   0.94363271 
   14700    217.10273   -471.99365    132210.12   -40876.503    2701.1708   -43577.673    22.712008   0.94465909 
   14800    219.06534     -439.278    132296.78   -40915.281    2725.5893    -43640.87    22.863837   0.94404032 
   14900    215.80814   -504.54965    132364.86   -40978.664    2685.0636   -43663.728    23.038848   0.94355473 
   15000    214.17901    -578.6752    132301.04   -40982.374    2664.7941   -43647.168    23.113554   0.94400992 
   15100    214.45011   -592.35876    132418.97   -41004.241    2668.1671   -43672.408    23.256893    0.9431692 
   15200    212.99295   -476.73269    132421.22   -40931.326    2650.0372   -43581.363    23.342749   0.94315316 
   15300    216.39324   -340.37244     132518.6   -40938.168    2692.3433   -43630.512    23.426397   0.94246008 
   15400    217.32354   -511.13234    132528.37   -40934.331    2703.9179   -43638.249    23.537598   0.94239062 
   15500     218.7323   -595.25271    132567.39   -40916.503    2721.4457   -43637.949    23.452782   0.94211324 
   15600    220.93653   -495.76577    132545.38   -40857.399    2748.8705    -43606.27    23.608237    0.9422697 
   15700    213.51023   -542.62021     132473.8   -40942.062    2656.4732   -43598.535    23.627329   0.94277881 
   15800    215.12701   -491.33873    132571.14   -40935.653     2676.589   -43612.241    23.707131   0.94208661 
   15900    216.24294   -583.08445    132561.69   -40968.472    2690.4732   -43658.946     23.68685   0.94215377 
   16000    218.30085   -471.78182    132604.53   -40898.218    2716.0776   -43614.295    23.695316   0.94184934 
   16100    222.60033   -436.84607    132497.34   -40839.307    2769.5713   -43608.878    23.859344   0.94261131 
   16200    217.51499   -664.61305    132671.46   -40894.276       2706.3   -43600.576    24.103597   0.94137421 
   16300    219.39553   -439.23357    132724.08   -40908.157    2729.6975   -43637.854    24.121005   0.94100101 
   16400    221.98831   -485.63299    132713.61   -40819.937    2761.9566   -43581.894    24.195717   0.94107521 
   16500    226.79259   -486.03073    132719.93   -40820.207     2821.731   -43641.938    24.114056   0.94103041 
   16600    221.81491   -557.75732    132651.28    -40817.64    2759.7992   -43577.439    24.157838    0.9415174 
   16700    218.42286   -488.98582    132675.03   -40861.691    2717.5956   -43579.286    24.405856   0.94134888 
   16800    224.07818   -516.70723     132777.7   -40864.586    2787.9585   -43652.545    24.442633   0.94062095 
   16900    225.32707   -556.97642     132923.7   -40832.665    2803.4972   -43636.162    24.540219   0.93958786 
   17000     221.1009   -652.09973    132895.22   -40853.226    2750.9155   -43604.142     24.48623   0.93978916 
   17100    223.25578   -393.19192    132927.88   -40784.324    2777.7263   -43562.051    24.455745    0.9395583 
   17200    224.37452   -440.00996    132957.82   -40806.952    2791.6456   -43598.597    24.579611   0.93934674 
   17300    219.49116   -527.32025    133008.58   -40866.316    2730.8873   -43597.204    24.761352   0.93898823 
   17400    221.55672   -433.72145    133044.74   -40887.862    2756.5868   -43644.449    24.763999     0.938733 
   17500    222.58475   -713.46231    132765.83   -40881.149    2769.3774   -43650.527     24.67329    0.9407051 
   17600    219.08317   -278.39264    132656.96   -40869.845    2725.8111   -43595.656    24.805024   0.94147709 
   17700    220.42661   -461.54241    132937.58   -40905.077    2742.5261   -43647.603     24.89008   0.93948975 
   17800    216.32325   -594.82328    132861.52   -40908.404    2691.4725   -43599.876    25.041921   0.94002754 
   17900    222.83775   -611.36798    132846.13   -40882.845    2772.5252   -43655.371    24.947236   0.94013649 
   18000      222.428   -500.88774    132734.23   -40843.842    2767.4272   -43611.269    25.061319   0.94092903 
   18100    218.90799   -341.23544    132818.91    -40940.36    2723.6316   -43663.991    25.181314   0.94032914 
   18200    223.12856   -515.22409    132964.76   -40931.264    2776.1435   -43707.407    25.267102   0.93929767 
   18300    224.59081   -400.73826    133048.08   -40862.779    2794.3367   -43657.115    25.417735   0.93870946 
   18400    222.57499   -562.34784    133008.31   -40945.369     2769.256   -43714.625    25.465162   0.93899017 
   18500    223.34879   -553.20359    133105.26   -40914.833    2778.8835   -43693.717    25.610702   0.93830623 
   18600     221.6232   -516.03116    133182.02   -40985.426    2757.4139   -43742.839    25.759438   0.93776541 
   18700    220.82191   -429.52347    133183.53   -40957.324    2747.4444   -43704.768    25.814327   0.93775474 
   18800    220.88034    -365.9861    133410.71   -40929.856    2748.1713   -43678.027    25.732854   0.93615792 
   18900    216.19081   -437.04856    133477.32   -40976.038    2689.8246   -43665.862     25.82285   0.93569072 
   19000    225.14509   -590.64882     133323.4   -40968.816     2801.233   -43770.049    25.942225   0.93677096 
   19100    216.81023   -460.14208    133356.29   -41017.095    2697.5314   -43714.626    26.194871   0.93653993 
   19200    221.23937   -557.12249    133449.01   -40995.242    2752.6384    -43747.88    26.194421   0.93588926 
   19300     219.0467   -403.56208    133477.67   -40952.726    2725.3574   -43678.084    26.121173   0.93568824 
   19400    223.13183   -588.08615       133495    -40966.27    2776.1841   -43742.454       26.166   0.93556684 
   19500    221.07551   -534.78183    133423.23   -40969.718    2750.5997   -43720.318    26.212349   0.93607008 
   19600    223.73031   -491.91471     133569.6   -41008.628    2783.6304   -43792.258    26.298411   0.93504429 
   19700     223.1989    -559.1595    133472.98   -40983.746    2777.0187   -43760.764    26.225373   0.93572116 
   19800    219.20859   -335.93046    133322.04    -41002.07    2727.3717   -43729.442    26.294966   0.93678053 
   19900    219.01673   -391.40738    133495.71   -41011.467    2724.9845   -43736.451    26.280335   0.93556182 
   20000    220.95833   -518.07475    133538.99   -41049.751    2749.1417   -43798.893    26.196895   0.93525864 
   20100    222.07019   -400.39136    133478.14   -41018.383    2762.9754   -43781.358     26.23532   0.93568501 
   20200     221.0604   -483.84374    133552.19   -41071.691    2750.4116   -43822.103    26.371376   0.93516616 
   20300    217.22204   -513.61696    133664.65   -41099.558    2702.6552   -43802.213    26.543202   0.93437937 
   20400     215.9925    -711.5728    133627.56   -41101.999    2687.3574   -43789.357    26.644631   0.93463869 
   20500    218.57476   -408.19425    133522.46   -41075.136    2719.4855   -43794.622    26.541681   0.93537442 
   20600    215.69853   -450.21445    133212.34   -41116.182    2683.6998   -43799.882    26.597052   0.93755195 
   20700    220.94851   -508.28896    133362.79   -41059.531    2749.0195   -43808.551    26.603135   0.93649429 
   20800    218.17863   -445.20966    133362.24   -41055.903     2714.557    -43770.46    26.690487   0.93649814 
   20900    219.81553    -554.9407    133386.16    -41090.75    2734.9231   -43825.673    26.705704    0.9363302 
   21000    218.04136   -348.34026    133447.21   -41191.633     2712.849   -43904.482    26.792285   0.93590183 
   21100    218.22376   -433.12221    133417.95   -41206.074    2715.1184   -43921.192    26.903825   0.93610711 
   21200    214.48135   -559.40322    133547.52   -41182.858    2668.5557   -43851.414     27.00238    0.9351989 
   21300    217.51329   -339.78006    133654.14   -41187.069    2706.2789   -43893.348    27.100793   0.93445285 
   21400    216.92926    -743.5252    133478.79   -41160.353    2699.0124   -43859.365    27.059981    0.9356804 
   21500    218.12163   -579.05306     133415.3   -41152.273    2713.8477   -43866.121    27.004022   0.93612569 
   21600     221.6535    -468.6408    133566.75     -41082.3    2757.7909   -43840.091    27.164944   0.93506423 
   21700     221.4243   -414.51727    133610.52   -41052.701    2754.9393    -43807.64     27.15277   0.93475795 
   21800    219.12692   -381.78708    133683.75   -41037.871    2726.3555   -43764.227     27.08725   0.93424587 
   21900     222.3392   -503.77852    133681.51   -41064.783    2766.3224   -43831.106    27.219675   0.93426153 
   22000    222.48323    -489.3286    133643.82   -41103.798    2768.1144   -43871.912    27.433717   0.93452501 
   22100    219.53195   -573.55103    133673.89   -41041.502    2731.3948   -43772.897    27.483331    0.9343148 
   22200    218.54666   -524.94517    133673.44   -41062.535    2719.1359   -43781.671    27.652137   0.93431795 
   22300    220.63041   -484.64643    133763.54   -41050.067    2745.0618   -43795.129    27.675885   0.93368857 
   22400    220.69235   -426.21111    133804.94   -41016.013    2745.8324   -43761.845    27.759113   0.93339967 
   22500    220.24597   -481.48167    133749.08   -41025.161    2740.2786    -43765.44    27.735674   0.93378956 
   22600    224.00073   -492.52541    133869.28   -40997.893    2786.9949   -43784.888    27.853884   0.93295108 
   22700    218.44024   -536.02911    133908.15   -40998.523    2717.8119   -43716.335    27.950366   0.93268028 
   22800    223.66613   -453.30196    133796.18   -40974.968    2782.8319     -43757.8     28.03325    0.9334608 
   22900    224.20234   -464.06691    133677.17   -41028.099    2789.5033   -43817.603    27.986669   0.93429189 
   23000    219.60603   -425.12341    133708.94   -41017.795    2732.3165   -43750.111    28.110253   0.93406984 
   23100    218.21996   -699.45419    133777.95   -41141.992    2715.0712   -43857.063    28.162689   0.93358799 
   23200    219.46068   -624.40631     133841.2   -41095.167    2730.5081   -43825.675    28.497376   0.93314683 
   23300     216.7734    -689.9189    133974.96   -41144.354    2697.0732   -43841.427    28.342452   0.93221518 
   23400    220.58127   -456.83862    133789.54   -41073.693    2744.4504   -43818.143    28.194344   0.93350714 
   23500    216.86338   -491.52638    133611.13    -41110.85    2698.1927   -43809.043    28.273682   0.93475365 
   23600    221.80508   -559.41688    133704.83   -41089.759    2759.6769   -43849.436    28.294359   0.93409856 
   23700    219.92034   -672.13654    133649.94   -41129.132    2736.2271   -43865.359    28.326726   0.93448223 
   23800    214.86728    -482.2993     133706.3   -41180.153    2673.3574    -43853.51    28.437465   0.93408831 
   23900    218.14531   -487.37766    133782.05    -41181.71    2714.1424   -43895.853    28.342303   0.93355943 
   24000    217.01221   -651.11078    134033.13   -41103.055    2700.0444   -43803.099    28.419061   0.93181062 
   24100    219.64343   -558.65337    133918.29    -41104.51    2732.7819   -43837.292    28.500873   0.93260965 
   24200    218.61988   -680.60882    133848.51   -41161.006    2720.0469   -43881.053    28.508593   0.93309587 
   24300    223.26991   -610.42663    133730.18   -41128.705    2777.9021   -43906.608    28.420406   0.93392152 
   24400     215.9064   -497.53628     133781.6   -41170.309    2686.2861   -43856.596    28.375744   0.93356255 
   24500    219.34566   -689.30253    133953.82   -41125.437    2729.0771   -43854.514    28.360806    0.9323623 
   24600    221.54606   -558.72677    133847.06   -41123.725    2756.4542    -43880.18    28.514999   0.93310598 
   24700    215.71749   -597.73605     133782.5   -41151.294    2683.9357    -43835.23    28.673542   0.93355626 
   24800    217.33326    -462.7093    133897.46   -41147.699    2704.0389   -43851.738    28.654845   0.93275475 
   24900    221.13156   -650.63219    133978.65   -41103.802     2751.297   -43855.099    28.630167   0.93218947 
   25000    225.76326   -455.48475    133799.67   -41094.507    2808.9242   -43903.431    28.695548   0.93343649 
   25100    222.48931   -612.02607    133820.63   -41096.172      2768.19   -43864.362    28.668876   0.93329029 
   25200    220.48113   -496.88675    133894.22   -41126.736    2743.2045    -43869.94    28.918724   0.93277728 
   25300    219.76843   -526.59851    133858.01   -41146.742    2734.3371   -43881.079    29.110191   0.93302964 
   25400    221.76434   -251.37534    133983.72   -41127.126      2759.17   -43886.296    29.035135    0.9321542 
   25500    221.41761   -605.74144    134012.06   -41079.603     2754.856   -43834.459    29.077403   0.93195711 
   25600    218.79275   -434.62696    133976.82   -41153.651    2722.1978   -43875.849    29.033791   0.93220225 
   25700    218.12609   -510.11024    133875.57   -41159.426    2713.9033    -43873.33    29.066872   0.93290729 
   25800    218.67766   -495.50262    133835.51   -41138.427    2720.7659   -43859.193    29.099538    0.9331865 
   25900    219.73506   -459.56926    133899.16   -41107.425    2733.9219   -43841.347    29.401137   0.93274293 
   26000    223.57704   -634.01858    133839.13   -41031.502    2781.7234   -43813.225    29.276013   0.93316125 
   26100    221.62782   -474.21368    133771.38   -41112.118    2757.4714   -43869.589    29.164831   0.93363389 
   26200    220.92695   -494.84272    133994.64   -41101.327    2748.7513   -43850.079     29.20926   0.93207824 
   26300    221.94143   -466.53504    133964.64   -41073.092    2761.3734   -43834.465    29.257733   0.93228698 
   26400    223.24796   -450.46777    133913.57   -41068.083     2777.629   -43845.712    29.402616   0.93264253 
   26500    222.56108   -527.03252    133855.22   -41121.236     2769.083   -43890.319    29.525933   0.93304912 
   26600    221.33432   -464.69073    133807.09   -41178.382    2753.8197   -43932.202     29.51703    0.9333847 
   26700    219.23277    -578.8516    133623.63   -41204.665    2727.6724   -43932.337    29.652582   0.93466622 
   26800    221.44898   -479.34675    133761.72   -41129.635    2755.2464   -43884.881    29.597034   0.93370132 
   26900    223.43227   -479.05414    133724.26   -41127.266    2779.9223   -43907.188    29.747942   0.93396283 
   27000    220.98637   -557.60968     133721.3   -41167.627    2749.4906   -43917.117    29.759852    0.9339835 
   27100     217.0139   -297.30686    133777.04   -41158.025    2700.0655    -43858.09    29.740158   0.93359436 
   27200    217.31341   -525.77377    133682.82   -41159.856    2703.7919   -43863.648    29.778751   0.93425237 
   27300    213.40024    -523.4062    133735.68   -41177.042    2655.1047   -43832.147    29.905914   0.93388307 
   27400    219.96109   -575.02237    133866.39   -41106.058    2736.7342   -43842.792    30.055527   0.93297126 
   27500    224.96881   -417.76427    133802.31   -41045.714    2799.0396   -43844.753    29.976593   0.93341803 
   27600      220.836   -559.33752    133753.06   -41081.902    2747.6197   -43829.522    30.017098   0.93376175 
   27700    219.25444   -506.85725    133738.45   -41083.236     2727.942   -43811.178    30.209859   0.93386374 
   27800    222.96535   -458.85429    133621.51   -41033.121    2774.1128   -43807.234    30.057362   0.93468106 
   27900    219.15805   -546.35226    133395.82   -41049.266    2726.7429   -43776.009    30.212367   0.93626244 
   28000    220.89647   -388.74472    133600.51   -41089.668    2748.3721    -43838.04    30.227967   0.93482798 
   28100    219.74268   -466.35866    133529.42    -41074.39    2734.0167   -43808.406    30.269027   0.93532562 
   28200    219.45716   -484.75494    133678.55    -41122.57    2730.4642   -43853.034    30.462147    0.9342822 
   28300    219.06322   -554.54585    133612.76   -41114.238    2725.5629   -43839.801    30.489511   0.93474228 
   28400    217.22785   -668.47763    133574.28   -41149.189    2702.7274   -43851.917    30.337012   0.93501153 
   28500    218.77398   -397.39926    133472.62   -41164.494    2721.9642   -43886.459    30.372898    0.9357237 
   28600    219.88701   -369.50609    133712.76   -41118.013    2735.8124   -43853.825    30.487388   0.93404318 
   28700    218.68745   -496.38846    133493.67   -41116.212    2720.8877     -43837.1      30.5253   0.93557611 
   28800    220.47451   -403.77336    133647.31   -41085.357     2743.122   -43828.479    30.655577   0.93450059 
   28900    217.93318   -568.67171    133773.27   -41057.786    2711.5031   -43769.289    30.742878   0.93362066 
   29000    215.07391   -457.44185    133652.56   -41130.672    2675.9284     -43806.6    30.653309   0.93446387 
   29100    222.16986   -644.02772     133426.7   -41076.121    2764.2154   -43840.336    30.630987   0.93604575 
   29200    222.54408   -410.07145    133452.82   -41047.525    2768.8714   -43816.396    30.746058   0.93586254 
   29300    218.05965   -511.15617    133557.03   -41113.292    2713.0766   -43826.369     30.61544   0.93513229 
   29400    216.39913   -550.60509    133504.01   -41160.866    2692.4166   -43853.283    30.694043   0.93550368 
   29500    219.22558    -478.0905    133506.12   -41187.323     2727.583   -43914.906    30.791774   0.93548886 
   29600    221.01886   -380.12268    133634.71   -41109.194    2749.8948   -43859.089    30.906942   0.93458868 
   29700    219.17679   -606.65307    133606.21   -41164.486     2726.976   -43891.462    30.885701   0.93478805 
   29800    217.79051   -308.73174    133699.41   -41138.103     2709.728   -43847.831    30.905599   0.93413641 
   29900    218.12943   -509.74898    133701.96    -41163.06    2713.9448   -43877.005    30.942929   0.93411865 
   30000    220.51703   -485.78728    133865.76    -41137.65    2743.6511   -43881.301    31.169311   0.93297565 
   30100    220.37214   -500.50196     133890.6   -41143.876    2741.8483   -43885.725    31.146029   0.93280255 
   30200    222.00267   -690.76522     133796.8   -41168.882    2762.1353   -43931.017    31.123894   0.93345647 
   30300    219.70919    -467.6463    133767.32   -41132.117       2733.6   -43865.717    31.152782   0.93366224 
   30400    218.02332   -476.70426    133716.64   -41107.809    2712.6246   -43820.433    31.185544   0.93401605 
   30500    219.23367   -484.50567    133733.43   -41118.656    2727.6837    -43846.34    31.241435    0.9338988 
   30600    223.78775   -484.86538    134000.17   -41113.662     2784.345   -43898.007    31.186906    0.9320398 
   30700    220.78734   -634.75497    133938.42   -41131.108    2747.0143   -43878.122    31.239178   0.93246949 
   30800    226.47789   -546.31449    133877.54   -41064.464    2817.8155    -43882.28    31.373497   0.93289356 
   30900    217.82202     -580.162    133777.46   -41183.465    2710.1201   -43893.585    31.389572   0.93359145 
   31000    219.20525   -411.03237    133895.99   -41225.767      2727.33   -43953.097    31.401978   0.93276497 
   31100    219.84838   -632.24106    133872.49   -41222.866    2735.3318   -43958.198     31.31391   0.93292873 
   31200    215.03215   -498.72185    133830.95   -41236.635    2675.4088   -43912.044    31.390774   0.93321827 
   31300    220.07832   -595.69297    133827.64   -41195.145    2738.1928   -43933.338    31.598605    0.9332414 
   31400    219.88318   -445.51669    134014.54    -41150.66    2735.7648   -43886.425    31.783803   0.93193989 
   31500    217.30585   -580.81903    133971.76   -41189.685    2703.6979   -43893.383    31.808403   0.93223746 
   31600    224.03674   -439.07005    134035.97   -41113.815     2787.443   -43901.258    31.908418   0.93179084 
   31700      218.153   -497.32841    133867.87   -41167.493    2714.2381   -43881.731    31.878193   0.93296089 
   31800    223.37925   -499.24203    133865.29   -41100.323    2779.2626   -43879.585    31.836464   0.93297888 
   31900    221.44724   -508.43027       133943   -41106.375    2755.2247     -43861.6    31.937987   0.93243758 
   32000    224.48909   -541.75911    134018.59   -41105.914     2793.071   -43898.985    32.152155   0.93191166 
   32100    218.89639   -406.47946     133905.4   -41122.929    2723.4872   -43846.416    32.247536   0.93269944 
   32200    219.12169   -417.26685    133747.28   -41123.448    2726.2905   -43849.739    32.140536   0.93380212 
   32300    222.29595   -422.08725     133710.7   -41096.769    2765.7843   -43862.553    32.020086   0.93405756 
   32400    223.24157   -526.76886    133722.95   -41159.755    2777.5495   -43937.305    31.963699   0.93397198 
   32500    217.76184   -502.23771    133633.74   -41168.713    2709.3713   -43878.085    32.072346   0.93459551 
   32600    220.13244   -404.86779    133756.67   -41094.809    2738.8661   -43833.675    32.276373   0.93373656 
   32700    219.83206   -579.22646    133561.06    -41161.68    2735.1287   -43896.809    32.399082   0.93510406 
   32800    214.76894   -559.15211     133670.3   -41197.887    2672.1339   -43870.021    32.433495   0.93433986 
   32900    220.32093   -509.70764    133641.95   -41194.995    2741.2112   -43936.206    32.410296    0.9345381 
   33000    216.38813   -414.07624    133564.53   -41242.185    2692.2797   -43934.465    32.268248   0.93507975 
   33100    221.86003   -468.87302    133550.99   -41173.845    2760.3606   -43934.205    32.106986    0.9351746 
   33200    218.02323   -528.53913     133619.1   -41208.765    2712.6235   -43921.388    32.281651   0.93469788 
   33300    219.79577   -568.23804    133689.84   -41140.982    2734.6773    -43875.66    32.390805   0.93420331 
   33400    220.26442   -374.07251     133636.8   -41230.304    2740.5081   -43970.812     32.59659   0.93457411 
   33500    220.57959    -389.0168    133780.57   -41187.484    2744.4294   -43931.913     32.77191   0.93356974 
   33600    221.10927    -450.8997    133826.32   -41153.612    2751.0197   -43904.631    32.752842   0.93325055 
   33700    217.56493   -462.34368    133846.91   -41140.585    2706.9213   -43847.506    32.737952     0.933107 
   33800    218.13602   -439.73785    133770.15   -41142.864    2714.0268    -43856.89    32.597784   0.93364245 
   33900     222.8625   -419.59342     133871.1   -41161.341    2772.8331   -43934.174    32.522567   0.93293844 
   34000    222.56549   -517.69069    133808.62   -41129.156    2769.1379   -43898.294    32.848491   0.93337406 
   34100    219.60239   -507.85618    133835.97   -41152.297    2732.2713   -43884.569    32.886928   0.93318328 
   34200    215.35746    -530.8188    133812.78   -41154.953    2679.4562   -43834.409    32.918717   0.93334498 
   34300    216.94112   -436.96759    133914.46   -41204.085      2699.16   -43903.245    33.082605   0.93263632 
   34400    221.07856   -500.28232    133946.31   -41128.915    2750.6376   -43879.553    33.038105   0.93241454 
   34500    219.09209   -482.07078     133895.9   -41157.298    2725.9221    -43883.22    32.904073    0.9327656 
   34600    220.69203    -476.6553    134021.86   -41146.263    2745.8284   -43892.091    33.152326   0.93188899 
   34700    215.13256   -393.96909    133956.67   -41225.724     2676.658   -43902.382    33.394309   0.93234246 
   34800    218.88305   -478.52705    133896.76   -41223.318    2723.3213   -43946.639    33.464484   0.93275961 
   34900    215.36107   -518.51809    133861.68   -41236.131    2679.5011   -43915.633    33.498787   0.93300403 
   35000    219.76156   -491.99042    133756.18   -41312.638    2734.2516    -44046.89     33.55286   0.93373997 
   35100    214.95809   -447.97849    133656.81   -41239.979    2674.4873   -43914.467    33.581655   0.93443421 
   35200    215.91316   -517.46879    133649.24   -41237.181    2686.3702   -43923.551    33.359734   0.93448707 
   35300    222.22978   -391.34918    133639.17   -41218.255     2764.961   -43983.216    33.292488   0.93455753 
   35400    219.86635   -491.30758    133692.73   -41242.725    2735.5554   -43978.281    33.597901   0.93418313 
   35500    224.03449   -472.03182    133653.91   -41135.454     2787.415   -43922.869    33.601302   0.93445447 
   35600     218.5958   -532.63913    133735.84   -41186.477    2719.7473   -43906.224    33.737409   0.93388197 
   35700    224.12565   -627.35093     133563.8   -41153.367    2788.5492   -43941.916     33.60481    0.9350849 
   35800    218.87205   -359.68002    133570.08    -41200.76    2723.1845   -43923.944     33.69659    0.9350409 
   35900    224.25504   -467.65507     133646.7   -41154.639    2790.1591   -43944.798    33.799482   0.93450485 
   36000    217.23108   -445.39497    133694.25    -41120.14    2702.7676   -43822.907    33.829685   0.93417252 
   36100    219.53665   -442.15202    133772.36   -41142.237    2731.4533    -43873.69    33.932777     0.933627 
   36200    224.48512   -536.16017    133778.59   -41171.488    2793.0217   -43964.509    33.977361   0.93358356 
   36300     220.8579   -508.01721    133911.29   -41232.397    2747.8921    -43980.29    34.022328   0.93265839 
   36400    220.53148   -464.86065    133954.18   -41167.359    2743.8309    -43911.19    34.065891    0.9323598 
   36500    219.55769    -653.1672    133857.84   -41151.598     2731.715   -43883.313    34.098379   0.93303085 
   36600    217.17974   -479.55813    133985.89   -41282.467    2702.1288   -43984.596    34.060526   0.93213913 
   36700    218.97277     -331.668    134173.77   -41218.726    2724.4375   -43943.163    34.154628    0.9308339 
   36800    221.63626   -518.42425    134169.29   -41218.005    2757.5765   -43975.581    34.203891   0.93086496 
   36900     217.7001   -412.16947    134175.04   -41250.091    2708.6031   -43958.695      34.1534   0.93082506 
   37000    220.59416   -591.61637    134090.95   -41205.962    2744.6108   -43950.573    34.110578   0.93140877 
   37100    220.71976   -407.07196    133984.91   -41193.124    2746.1735   -43939.297    34.091241   0.93214592 
   37200    218.26642   -473.50265    133935.94   -41253.959    2715.6492   -43969.608     34.21088   0.93248679 
   37300      213.983   -333.02239    133934.87   -41262.888    2662.3554   -43925.244    34.229307   0.93249419 
   37400    212.99483    -805.7406    134066.97   -41281.754    2650.0607   -43931.815     34.27483    0.9315754 
   37500     220.2141    -626.8192    133774.65     -41292.2    2739.8821   -44032.082    34.193928   0.93361101 
   37600    218.44548   -559.32847    133789.13   -41236.144    2717.8771   -43954.021    34.133482   0.93350999 
   37700     222.1797   -673.92442    133926.05   -41237.758    2764.3378   -44002.095    34.335947   0.93255562 
   37800    213.96337    -496.2963    134040.47   -41348.653    2662.1111   -44010.765    34.407532   0.93175961 
   37900    214.55441   -367.15092    134192.13   -41309.349    2669.4647   -43978.814    34.412671    0.9307065 
   38000    218.32829   -431.61867    134127.75   -41272.533     2716.419   -43988.952    34.552122   0.93115327 
   38100    221.16051   -431.38204    134297.66   -41229.999    2751.6573   -43981.657    34.644942   0.92997518 
   38200    217.34564   -637.87256    134136.31   -41251.036     2704.193   -43955.229    34.745898   0.93109383 
   38300    220.86814   -528.59784    134051.01    -41195.71    2748.0196   -43943.729    34.776092   0.93168631 
   38400    222.17532     -418.721    134023.74   -41264.213    2764.2833   -44028.496    34.859105   0.93187591 
   38500     222.1986   -617.66289    134148.72   -41271.301     2764.573   -44035.874    34.657927   0.93100769 
   38600    223.13972   -445.80718    134077.77   -41234.333    2776.2823   -44010.615    34.727159   0.93150035 
   38700    220.33847   -453.97281    134248.22   -41240.325    2741.4294   -43981.754    35.031529    0.9303177 
   38800    219.20161   -366.22273    134119.51   -41262.707    2727.2847   -43989.992    35.036405   0.93121044 
   38900    222.45802    -454.1471    134316.24   -41219.501    2767.8007   -43987.301    35.149133   0.92984651 
   39000    221.04577   -601.17896    134333.76   -41272.831    2750.2296   -44023.061    35.142508   0.92972529 
   39100    215.98067   -359.60752    134214.32   -41241.589    2687.2101   -43928.799    35.135454   0.93055268 
   39200    220.32352   -373.46938    134317.25   -41267.684    2741.2435   -44008.927    35.231116   0.92983956 
   39300    218.74892   -493.31335     134188.5   -41254.599    2721.6525   -43976.252    35.256073   0.93073174 
   39400    224.26411   -429.18343    134349.66   -41223.319    2790.2718   -44013.591     35.36895   0.92961524 
   39500    221.37858   -540.81888    134184.75   -41209.464    2754.3704   -43963.834    35.185138    0.9307577 
   39600    226.67078   -601.24968    134216.29   -41264.914    2820.2154   -44085.129    35.257814   0.93053901 
   39700    220.96092   -451.86339    134161.86   -41218.708     2749.174   -43967.882    35.387825   0.93091651 
   39800    220.38877   -367.99133    134327.28   -41283.642    2742.0553   -44025.697    35.530824   0.92977014 
   39900    219.88441    -584.9192     134428.1   -41324.103    2735.7801   -44059.883    35.432448   0.92907279 
   40000    218.84308   -481.47752    134428.19   -41356.033     2722.824   -44078.857    35.246169   0.92907218 
   40100    218.94489   -611.10349    134360.06   -41264.338    2724.0907   -43988.428    35.443841   0.92954328 
   40200    220.46129   -377.74874    134279.79   -41282.257    2742.9576   -44025.215    35.490848   0.93009896 
   40300    221.49876   -498.18026    134337.53   -41272.141    2755.8657   -44028.006    35.529224   0.92969916 
   40400    224.53796   -385.25226    134260.39   -41177.553    2793.6791   -43971.232    35.424002   0.93023337 
   40500    220.78136   -383.69143     134199.3   -41189.913    2746.9399   -43936.853    35.672349   0.93065681 
   40600    215.23197   -524.17056    134355.41   -41218.288    2677.8949   -43896.183    35.718982   0.92957548 
   40700     220.4665   -410.42285    134231.23    -41260.51    2743.0224   -44003.532     35.52553   0.93043539 
   40800     215.7904   -532.51178    134144.26   -41310.105    2684.8428   -43994.948    35.635668   0.93103867 
   40900    215.82309   -538.40231    134063.92    -41327.84    2685.2496   -44013.089    35.591985   0.93159661 
   41000    216.91016   -568.87074    134174.25   -41244.341    2698.7747   -43943.116    35.717632   0.93083053 
   41100    217.48198   -349.81304    134248.55   -41222.669    2705.8893   -43928.558    35.592456   0.93031536 
   41200    216.59871   -511.53361    134030.41   -41228.079    2694.8997   -43922.979    35.541058   0.93182953 
   41300    219.38932   -359.55696     134120.1   -41374.824    2729.6203   -44104.444     35.75974   0.93120635 
   41400    215.96906   -573.54162    134031.98   -41321.435    2687.0657     -44008.5    35.825843   0.93181859 
   41500    214.43308    -510.1078    134201.08   -41319.571    2667.9552   -43987.526    35.862948   0.93064448 
   41600    217.16806   -631.01043    134118.08   -41284.906    2701.9836    -43986.89    35.652826   0.93122041 
   41700    220.10306   -576.23975    134061.87   -41265.225    2738.5005   -44003.726     35.89227   0.93161083 
   41800    218.94732   -510.09201    133890.19   -41283.099    2724.1209    -44007.22     35.71435   0.93280542 
   41900    222.05215   -479.55469    133839.03   -41250.882    2762.7509   -44013.633    35.800838   0.93316195 
   42000    220.59042   -367.00706    134006.08   -41246.101    2744.5642   -43990.665    35.819046   0.93199866 
   42100    215.85972   -479.68923    134184.77   -41232.765    2685.7052   -43918.471    36.051088    0.9307576 
   42200    216.34748   -338.75221    134242.67   -41178.302    2691.7739   -43870.076    35.962158   0.93035611 
   42300    223.55838   -487.29995    134302.03   -41168.618    2781.4912   -43950.109    36.037912   0.92994491 
   42400    220.59105    -516.4367    134422.25   -41207.877    2744.5721   -43952.449     36.24551   0.92911323 
   42500    223.71068   -538.45039    134382.28   -41208.564    2783.3862    -43991.95     36.16907   0.92938961 
   42600    224.16626    -440.5604    134377.73   -41209.221    2789.0544   -43998.275    36.171037   0.92942104 
   42700    218.24388   -577.77096    134364.19   -41220.757    2715.3687   -43936.126    36.214445   0.92951471 
   42800    220.98716   -501.22528    134285.99   -41170.102    2749.5004   -43919.602    36.299678   0.93005603 
   42900    221.23397    -389.2259    134414.05   -41244.613    2752.5712   -43997.184    36.364043    0.9291699 
   43000    221.79829   -468.15303    134518.94   -41281.888    2759.5925   -44041.481    36.363418    0.9284454 
   43100    222.60519   -587.51171    134539.34   -41271.624    2769.6317   -44041.256    36.371184    0.9283046 
   43200    222.16637   -653.46652    134435.52   -41236.222     2764.172   -44000.394     36.54539    0.9290215 
   43300    224.18509   -546.21372    134400.57   -41241.941    2789.2888   -44031.229     36.46047   0.92926308 
   43400    226.17221     -531.745     134336.1   -41181.761    2814.0123   -43995.774    36.444217    0.9297091 
   43500    220.84102   -483.71635    134177.71   -41189.024    2747.6821   -43936.706    36.384682   0.93080657 
   43600    223.14138   -527.37258    134134.87   -41090.291     2776.303   -43866.594    36.426541   0.93110381 
   43700    225.37173   -427.26856    134105.95   -41125.104    2804.0528   -43929.157    36.556099   0.93130461 
   43800    221.40331   -515.66009     134207.6   -41122.578    2754.6781   -43877.256    36.551478   0.93059922 
   43900     219.1213   -600.85642    134260.46    -41153.62    2726.2855   -43879.905    36.667793   0.93023287 
   44000    216.72281   -470.42698    134158.78   -41194.626    2696.4438   -43891.069    36.532448   0.93093788 
   44100    219.05613   -327.16925    134150.32   -41213.482    2725.4747   -43938.956    36.682516   0.93099659 
   44200    216.10459     -543.575    134104.31   -41245.447    2688.7519   -43934.199    36.937407   0.93131602 
   44300    220.87508   -550.29543     134009.8   -41266.639     2748.106   -44014.745    37.056533   0.93197281 
   44400    220.47212   -431.13192    133966.02    -41228.67    2743.0924   -43971.763    36.980763   0.93227741 
   44500    216.57243   -492.75801    133968.05   -41262.877    2694.5727    -43957.45     36.96379   0.93226327 
   44600    213.97577   -577.70622    133905.49   -41325.338    2662.2654   -43987.603     37.01885   0.93269879 
   44700    217.29078   -641.50963    133852.73    -41295.36    2703.5104    -43998.87    37.029682   0.93306647 
   44800    217.88089   -444.62312    134047.24   -41271.421    2710.8524   -43982.274    36.939205   0.93171252 
   44900    221.62509    -435.8906    134026.97   -41227.348    2757.4375   -43984.785    37.090115   0.93185342 
   45000    220.88427   -533.50637    134138.43   -41226.029    2748.2202    -43974.25    37.214524   0.93107911 
   45100    220.84282     -518.989    133999.69   -41170.444    2747.7045   -43918.149    37.250308   0.93204311 
   45200    218.78816   -439.88646    133927.51   -41230.481    2722.1406   -43952.621    37.296279   0.93254546 
   45300    218.46396   -611.15438    134161.61   -41244.078     2718.107   -43962.185    37.281882   0.93091828 
   45400    225.82831   -530.71185    134166.22   -41216.554    2809.7335   -44026.287    37.201939   0.93088623 
   45500    217.35219   -546.24514    134087.29    -41233.47    2704.2745   -43937.745    37.200996   0.93143424 
   45600    220.57409    -482.4941    134099.06   -41222.362     2744.361   -43966.723    37.279164    0.9313525 
   45700    217.99251   -415.53114    134023.96   -41226.788    2712.2412   -43939.029    37.149815   0.93187436 
   45800    225.64222   -513.89886    134020.63   -41184.216    2807.4182   -43991.635    37.282407   0.93189753 
   45900    223.74405   -497.84135    134209.82   -41122.984    2783.8014   -43906.785     37.33774   0.93058383 
   46000    225.60295    -566.7871    134125.17   -41112.628    2806.9296   -43919.558    37.378196   0.93117119 
   46100    226.90943    -560.8523     134000.6   -41074.087    2823.1847   -43897.272    37.331206   0.93203683 
   46200    227.12327   -377.41075    134202.24   -41070.478    2825.8453   -43896.324    37.456391   0.93063638 
   46300    220.53554   -561.19693    134240.76    -41088.32    2743.8813   -43832.201    37.748468   0.93036937 
   46400    226.08639   -541.01014    134191.41    -41145.02    2812.9445   -43957.964    37.727925   0.93071155 
   46500    223.87413   -549.94381    134161.17   -41162.758    2785.4198   -43948.178    37.690722   0.93092127 
   46600     222.9172   -530.33304    134297.04   -41148.991    2773.5138   -43922.505    37.609234    0.9299795 
   46700    220.92081   -348.94983    134123.64   -41252.819    2748.6749   -44001.494    37.638991   0.93118178 
   46800    220.19433   -512.90362    134120.42   -41298.356    2739.6361   -44037.992    37.712398   0.93120417 
   46900    220.82094   -512.22571    134117.86   -41218.625    2747.4323   -43966.057    37.823538   0.93122192 
   47000    221.10212   -593.03108     134077.4   -41211.837    2750.9307   -43962.768    37.977725    0.9315029 
   47100     224.4479   -524.59374    134046.72    -41191.33    2792.5586   -43983.889    37.932037    0.9317161 
   47200    219.78916   -525.11089    134142.37   -41240.813     2734.595   -43975.408    37.969011   0.93105178 
   47300     221.0129   -687.34523    134036.65   -41265.335    2749.8206   -44015.156    38.054942   0.93178614 
   47400     218.8248   -494.41514    133974.21   -41230.484    2722.5965   -43953.081    38.116726   0.93222037 
   47500    220.91422   -457.35017    134129.68    -41170.79    2748.5928   -43919.383    38.144731   0.93113984 
   47600      225.861   -616.68648    134281.93    -41130.01    2810.1402    -43940.15    38.126493   0.93008411 
   47700    222.07607   -546.51599    134233.25   -41173.046    2763.0485   -43936.095    38.213962   0.93042142 
   47800     222.9446   -486.00881    134172.35   -41192.577    2773.8546   -43966.431    38.479177   0.93084373 
   47900    219.01035   -609.49758     134012.1   -41273.073    2724.9051   -43997.978    38.325454   0.93195682 
   48000    219.78067   -528.02235    134199.85   -41284.939    2734.4893   -44019.429    38.233271     0.930653 
   48100     219.5883   -375.81583    134148.73   -41251.975    2732.0959   -43984.071    38.267287   0.93100764 
   48200    219.23537   -433.01382       134229   -41284.937    2727.7048   -44012.642    38.590574    0.9304509 
   48300    219.93709   -458.11072    134257.63   -41270.286    2736.4356   -44006.722    38.462087   0.93025248 
   48400    224.39858   -473.54385    134234.06   -41188.596     2791.945   -43980.541    38.584257   0.93041582 
   48500    219.93948   -541.55054    134175.24   -41249.944    2736.4652   -43986.409    38.623238    0.9308237 
   48600    218.99579   -499.66613    133959.37   -41247.784     2724.724   -43972.508    38.623789   0.93232367 
   48700     218.2537   -525.69887    133861.14   -41214.467    2715.4909   -43929.958    38.716693    0.9330078 
   48800    221.20587   -475.11164    133904.49    -41240.65    2752.2215   -43992.871    38.531141    0.9327058 
   48900    221.37266   -555.66583    133863.34   -41227.587    2754.2968   -43981.883    38.760005    0.9329925 
   49000    219.46188   -490.02497    133858.56   -41266.634     2730.523   -43997.157    38.876481    0.9330258 
   49100    219.60801   -409.74101    133980.25   -41266.447    2732.3412   -43998.788    38.990034   0.93217836 
   49200    220.35013   -397.40407    133911.76   -41290.131    2741.5745   -44031.706    38.897164   0.93265511 
   49300    225.31085   -450.87769    134098.01   -41220.049    2803.2954   -44023.344    38.900753   0.93135974 
   49400    222.23955   -357.73196    134017.55   -41196.915    2765.0825   -43961.997     38.82693   0.93191891 
   49500    220.15479    -538.7687    133964.16   -41208.071    2739.1441   -43947.215    39.073276   0.93229033 
   49600     219.7573   -514.11672    133901.62   -41198.663    2734.1986   -43932.862    39.172069    0.9327258 
   49700    219.91208   -506.73945    133956.74   -41215.526    2736.1244    -43951.65    39.229788   0.93234196 
   49800    216.61722    -599.0131    133902.65   -41263.223      2695.13   -43958.353    39.356675   0.93271858 
   49900    220.94014   -449.68492    133831.38   -41157.155    2748.9153    -43906.07    39.115224    0.9332153 
   50000    223.55043   -385.93853    133947.53   -41186.406    2781.3924   -43967.799    39.405886   0.93240606 
   50100    223.44732   -624.54597    133976.27   -41200.601    2780.1095   -43980.711    39.457354   0.93220609 
   50200    220.70951    -671.9191    133985.81   -41237.045    2746.0458   -43983.091    39.525118   0.93213966 
   50300    220.42916   -368.16613    133819.27   -41208.609    2742.5578   -43951.167    39.610035   0.93329975 
   50400    218.43636   -343.78548    133861.32   -41224.658    2717.7636   -43942.421    39.607879   0.93300657 
   50500    221.90968   -618.22187    133774.84   -41266.987    2760.9783   -44027.965    39.721563    0.9336097 
   50600    218.20987   -620.77569    133870.91   -41292.578    2714.9457   -44007.523    39.621765   0.93293974 
   50700    217.61602   -510.44135    133761.48   -41322.893     2707.557    -44030.45    39.719893   0.93370298 
   50800    216.45416   -506.70118    133830.96   -41323.639    2693.1013    -44016.74    39.995744    0.9332182 
   50900    220.43832   -430.38633    133928.75   -41234.916    2742.6718   -43977.588    40.035214   0.93253684 
   51000     216.3585   -638.51781       133634   -41265.533     2691.911   -43957.444    39.805906   0.93459368 
   51100    222.38588   -488.07884    133622.71   -41303.006    2766.9032   -44069.909    39.912688   0.93467264 
   51200    217.74938   -571.09425    133486.14   -41285.778    2709.2163   -43994.995    39.830494   0.93562887 
   51300    216.82523   -585.94452    133539.75   -41339.255     2697.718   -44036.973    39.839281   0.93525333 
   51400    217.03523   -447.78297    133712.53   -41346.604    2700.3308   -44046.934    39.938434   0.93404478 
   51500     219.9004   -576.37544    133745.41   -41357.232     2735.979   -44093.211    40.094392   0.93381513 
   51600    221.09111   -398.63269    133848.79   -41307.655    2750.7937   -44058.449    40.318258   0.93309392 
   51700    222.26035   -389.00926    133731.42   -41303.139    2765.3413    -44068.48    40.125779   0.93391281 
   51800    220.09398   -513.22556    133824.25   -41339.743    2738.3875   -44078.131    40.092821     0.933265 
   51900    219.09462   -522.28506    133811.25   -41392.171    2725.9536   -44118.125    40.168417   0.93335568 
   52000    219.63941   -380.39899    134066.25   -41422.681    2732.7318   -44155.412    40.308378   0.93158037 
   52100    213.99664   -432.34364    134055.04   -41376.591     2662.525   -44039.116    40.361518   0.93165827 
   52200    214.90212    -578.2572    133953.53   -41402.318    2673.7909   -44076.109    40.537636   0.93236434 
   52300    219.79595    -448.8371    134072.04   -41369.096    2734.6795   -44103.775    40.573542    0.9315402 
   52400    220.10174   -435.42631    134209.62   -41308.701     2738.484   -44047.185    40.739568   0.93058526 
   52500    220.15108   -440.39783    134227.19   -41312.187     2739.098   -44051.285     40.69359   0.93046345 
   52600     216.3093    -358.8165    134295.42   -41340.904    2691.2989   -44032.203    40.734118   0.92999072 
   52700    219.78014   -502.03351    134427.04   -41351.854    2734.4828   -44086.337    40.669741   0.92908014 
   52800    214.06479   -373.03198    134204.41   -41305.196     2663.373   -43968.569    40.484545   0.93062136 
   52900    220.07339   -438.63259     134209.2   -41299.069    2738.1314     -44037.2    40.481257   0.93058817 
   53000    219.37878     -457.943    134226.64   -41276.087    2729.4891   -44005.576    40.656461   0.93046722 
   53100    222.54369   -341.20191    134235.24   -41324.455    2768.8666   -44093.322    40.709117   0.93040759 
   53200    219.03872   -483.01934    134311.04   -41317.178    2725.2581   -44042.436    40.875957   0.92988255 
   53300     220.2066   -559.81426    134312.07   -41304.275    2739.7888   -44044.064    40.838706   0.92987542 
   53400    219.71064   -522.93302    134223.02    -41382.24     2733.618   -44115.858    40.682407   0.93049235 
   53500     216.8211   -511.58585     134322.5    -41382.32    2697.6667   -44079.987    40.684182   0.92980321 
   53600    219.32804   -476.27664    134278.09   -41381.982    2728.8578    -44110.84    40.736708   0.93011072 
   53700    217.24859   -504.78324    134517.52    -41421.74    2702.9855   -44124.725    40.971669    0.9284552 
   53800    218.22281   -569.84725    134581.34   -41306.009    2715.1066   -44021.116    41.105124   0.92801492 
   53900    219.76704   -389.71626    134671.77   -41367.426    2734.3198   -44101.746    41.018303   0.92739178 
   54000    218.31263    -531.5159    134672.71   -41353.047    2716.2242   -44069.271    40.764518    0.9273853 
   54100    220.52903   -423.82495    134874.78   -41366.726    2743.8003   -44110.526    40.865891    0.9259959 
   54200     221.1151   -533.82607    134816.64   -41344.705    2751.0922   -44095.798    40.941506   0.92639522 
   54300    220.30294   -667.34639    134704.11   -41329.902    2740.9875   -44070.889    40.915299   0.92716914 
   54400     216.8042   -521.60348    134437.93   -41367.516    2697.4565   -44064.973    40.951487   0.92900485 
   54500    220.17259   -607.46983    134433.91   -41352.969    2739.3656   -44092.334    41.055497   0.92903264 
   54600    219.17697   -597.35934    134507.48   -41251.283    2726.9782   -43978.262    41.017941   0.92852453 
   54700    220.57422   -459.21322    134479.99   -41262.616    2744.3626   -44006.979    41.080509   0.92871434 
   54800    218.99718   -619.42774    134515.84   -41337.723    2724.7412   -44062.464    41.101311   0.92846683 
   54900    222.08086   -493.07797    134573.42   -41387.331    2763.1081   -44150.439    41.095933   0.92806954 
   55000    214.57044   -661.97855    134478.51   -41447.821    2669.6643   -44117.485    41.275639   0.92872455 
   55100    218.06587   -586.99618    134559.38   -41421.153     2713.154   -44134.307    41.311668   0.92816638 
   55200    217.49613   -475.52389    134565.47   -41427.125    2706.0653    -44133.19    41.213365   0.92812436 
   55300    220.24483   -429.79001    134698.95   -41381.372    2740.2644   -44121.636    41.178583   0.92720465 
   55400    217.85408   -501.97197    134545.03    -41366.55     2710.519   -44077.069     41.28146   0.92826539 
   55500    222.14532   -501.37567    134540.02   -41313.293    2763.9101   -44077.203    41.430689   0.92829993 
   55600    222.34489   -570.27627    134569.61   -41355.094    2766.3931   -44121.488    41.613156   0.92809579 
   55700    225.08869   -394.48034    134602.29   -41355.044    2800.5312   -44155.575    41.342406   0.92787046 
   55800    223.94568   -492.88898    134688.88   -41365.754      2786.31   -44152.064    41.478163   0.92727399 
   55900    227.16463   -362.50874    134711.63   -41343.704    2826.3599   -44170.064     41.32053   0.92711734 
   56000     222.1411   -483.62291     134835.6   -41338.414    2763.8577   -44102.272    41.443746   0.92626498 
   56100    225.88908   -443.25959    134815.42    -41308.63    2810.4896   -44119.119     41.46569   0.92640363 
   56200    222.92734   -512.40955    134736.83   -41319.412    2773.6399   -44093.052    41.316176   0.92694398 
   56300    217.94345    -517.7862    134695.16   -41350.963    2711.6308   -44062.594    41.422128   0.92723074 
   56400    221.71859    -394.5134    134681.71   -41330.332    2758.6008   -44088.933    41.573375    0.9273233 
   56500    215.29974   -497.19288    134608.73   -41412.826    2678.7381   -44091.564    41.517285   0.92782611 
   56600    214.73354   -618.39049    134572.73   -41414.422    2671.6934   -44086.116    41.466868    0.9280743 
   56700     214.4796   -612.12751    134586.12   -41444.173     2668.534   -44112.707     41.37897   0.92798197 
   56800    222.82649   -402.50576    134603.88   -41365.762    2772.3851   -44138.147    41.366481   0.92785951 
   56900    217.27182    -435.9298    134701.67   -41343.593    2703.2745   -44046.867    41.452318   0.92718592 
   57000    224.12742   -460.24634    134825.01   -41276.896    2788.5713   -44065.467    41.564452    0.9263377 
   57100    219.64491   -431.79767    134828.17   -41339.666    2732.8003   -44072.466    41.559207   0.92631599 
   57200     216.9395   -354.67058    134868.74   -41377.678    2699.1398   -44076.818     41.65284   0.92603736 
   57300    214.95399   -574.52135     134701.5   -41423.084    2674.4363   -44097.521    41.770643   0.92718709 
   57400    213.24025   -617.67476    134730.11   -41432.539    2653.1141   -44085.653    41.672845   0.92699022 
   57500    212.35366   -537.99582    134679.98   -41482.962    2642.0832   -44125.045    41.526892   0.92733521 
   57600    218.45578   -556.40192    134640.55   -41429.792    2718.0052   -44147.797    41.483798   0.92760679 
   57700    213.38407    -507.0821    134836.38   -41468.973    2654.9035   -44123.876     41.76186   0.92625958 
   57800    215.01171   -550.31182    134830.78    -41500.08    2675.1544   -44175.234    41.792638   0.92629808 
   57900    215.15947   -521.01973    134818.18   -41459.745    2676.9929   -44136.738    41.828743   0.92638461 
   58000    217.55979   -452.70099    134807.13   -41463.963    2706.8573    -44170.82    41.883816   0.92646057 
   58100    218.04251   -594.91948    134997.98   -41392.515    2712.8633   -44105.378    41.909937   0.92515084 
   58200    221.05534   -722.95633    134890.54   -41350.556    2750.3487   -44100.905    41.824709   0.92588773 
   58300    224.28853   -439.11303     134981.1   -41291.164    2790.5757    -44081.74    41.811596   0.92526652 
   58400    221.25322   -644.18871    134811.46   -41303.831    2752.8106   -44056.642    41.933678   0.92643083 
   58500    226.48952   -516.13777    134736.54   -41316.547    2817.9603   -44134.508    41.727818   0.92694599 
   58600     223.1443   -501.24788     134766.9    -41287.29    2776.3393    -44063.63    41.991602   0.92673716 
   58700    223.22401   -451.12758    134725.28    -41298.19     2777.331   -44075.521     41.99903   0.92702346 
   58800    220.87997   -442.52031     134775.3   -41352.282    2748.1667   -44100.449    42.137061   0.92667935 
   58900    216.96904   -447.23716    134797.85    -41393.69    2699.5073   -44093.197    42.287751   0.92652434 
   59000    220.05316   -496.95971    134718.55   -41368.941    2737.8796   -44106.821    42.076501   0.92706972 
   59100    219.82712   -485.29898    134892.35   -41383.141    2735.0673   -44118.208    42.085536   0.92587529 
   59200    221.43587   -607.18262    134808.18   -41407.032    2755.0832   -44162.116    42.140338   0.92645335 
   59300    217.04871   -590.84275    134852.69   -41396.142    2700.4986   -44096.641    42.064702   0.92614758 
   59400    220.33538    -511.6115    134783.94   -41437.362    2741.3911   -44178.753    42.277581   0.92662001 
   59500    214.21641   -662.13707    134798.07   -41402.076    2665.2594   -44067.335    42.344846   0.92652287 
   59600    219.61843   -467.08671    134835.97   -41389.495    2732.4708   -44121.966    42.368667    0.9262624 
   59700    218.84691   -594.59446    134862.97   -41421.112    2722.8716   -44143.983     42.38561   0.92607696 
   59800    218.35226   -539.76512    134767.01   -41409.943    2716.7172   -44126.661    42.499159   0.92673641 
   59900    221.15245   -362.50969     134669.3   -41387.707     2751.557   -44139.264    42.374245    0.9274088 
   60000    219.19475   -434.32791    134731.33   -41415.551    2727.1994   -44142.751    42.430332   0.92698178 
   60100    222.52841   -481.20609    134737.57   -41373.617    2768.6764   -44142.293    42.481662   0.92693889 
   60200      222.364    -496.1564    134786.86   -41353.031    2766.6309   -44119.662    42.514049   0.92659987 
   60300    218.13747   -574.75005    134653.58   -41312.409    2714.0448   -44026.453    42.406633   0.92751705 
   60400    225.26146   -474.54486    134483.95   -41259.095    2802.6808   -44061.776    42.508395     0.928687 
   60500     221.5972   -419.24702    134311.02   -41290.398    2757.0905   -44047.489    42.325855   0.92988266 
   60600    218.73165   -480.57643    134492.52   -41343.549    2721.4375   -44064.987    42.330665   0.92862781 
   60700    217.75466   -436.57057    134193.92    -41353.42     2709.282   -44062.702    42.243485   0.93069413 
   60800    218.87834   -634.81831     134229.1   -41298.976    2723.2627   -44022.239    42.533164   0.93045016 
   60900    222.23448   -614.65306    134186.34   -41274.592    2765.0195   -44039.611    42.562225   0.93074666 
   61000    217.87287   -563.89556    134228.35   -41303.816    2710.7527   -44014.569     42.63543   0.93045539 
   61100    220.09661    -502.7039    134205.22   -41348.156    2738.4203   -44086.576    42.532013   0.93061572 
   61200    219.76837   -356.23182    134292.74   -41351.499    2734.3363   -44085.835    42.506998   0.93000927 
   61300    220.74965   -584.55699    134330.87   -41348.156    2746.5453   -44094.701    42.479994    0.9297453 
   61400    218.51125   -395.34796    134317.79   -41381.317    2718.6954   -44100.012     42.48532   0.92983583 
   61500    216.70014   -504.07984    134235.95   -41375.978    2696.1617    -44072.14     42.53858   0.93040272 
   61600    221.38929   -525.25159    134440.46   -41336.279    2754.5037   -44090.783    42.730012   0.92898736 
   61700    213.26445   -456.05172    134197.41   -41419.134    2653.4152   -44072.549    42.577667   0.93066993 
   61800    215.85767   -544.35997    134142.25    -41475.55    2685.6798    -44161.23    42.528743   0.93105257 
   61900    214.74844   -380.27455    134225.05   -41399.549    2671.8788   -44071.428    42.739701   0.93047823 
   62000     217.7095   -440.76669     134402.2   -41357.569    2708.7201   -44066.289    42.773278   0.92925183 
   62100    214.89025    -615.3141    134563.75    -41371.82    2673.6433   -44045.464    42.868418   0.92813622 
   62200    218.84615   -521.88298    134547.92   -41329.769    2722.8621   -44052.631    42.718147   0.92824542 
   62300    219.44796   -514.33408     134485.8   -41362.941    2730.3498   -44093.291    42.800568   0.92867418 
   62400    219.12724   -530.43517    134384.34   -41312.461    2726.3595    -44038.82    42.730974   0.92937535 
   62500    219.78391   -621.47881    134392.13   -41333.446    2734.5297   -44067.976    42.752232   0.92932145 
   62600     218.5832   -436.93123     134217.3   -41332.434    2719.5906   -44052.024    42.882478   0.93053202 
   62700    218.15533   -474.38088    134386.78   -41349.367    2714.2671   -44063.634    42.816858   0.92935845 
   62800    218.34905   -552.17179    134457.98   -41327.423    2716.6773     -44044.1    42.899067   0.92886636 
   62900    218.82682   -583.20171    134478.95   -41283.602    2722.6217   -44006.224    42.821349   0.92872152 
   63000    223.50913   -614.72376    134386.62   -41253.922    2780.8785     -44034.8    42.996874   0.92935957 
   63100    221.64993     -580.784    134301.19   -41234.673    2757.7465   -43992.419    43.050331   0.92995077 
   63200    223.06902    -479.4412     134209.7    -41269.61    2775.4027   -44045.013    43.072145    0.9305847 
   63300    220.72822   -402.88954    134307.98   -41306.866    2746.2787   -44053.145    43.068648   0.92990376 
   63400    225.07493   -499.41826    134333.84   -41218.334      2800.36   -44018.694    42.884915   0.92972471 
   63500    222.47646   -457.12653    134333.01   -41317.613    2768.0301   -44085.644    42.925848   0.92973044 
   63600     219.2464   -425.28434    134295.88   -41319.051     2727.842   -44046.893    42.997637   0.92998752 
   63700    219.98567   -516.19233    134281.19   -41318.012      2737.04   -44055.052    43.235533   0.93008923 
   63800    219.36764   -484.80924    134219.11   -41418.262    2729.3504   -44147.613    42.983541   0.93051945 
   63900    215.89145   -539.91205    134108.33   -41405.013    2686.1001   -44091.113    43.140783   0.93128809 
   64000    218.35287   -368.04138    134038.44   -41378.166    2716.7248   -44094.891    43.222283   0.93177372 
   64100    220.93228   -366.72891    134276.43   -41298.316    2748.8176   -44047.133    43.274669   0.93012222 
   64200    222.30698   -357.48234    134288.16    -41286.41    2765.9215   -44052.332     43.41952   0.93004094 
   64300    224.41832    -489.1791    134412.47   -41186.269    2792.1906    -43978.46     43.23495   0.92918082 
   64400     219.3681   -529.73689    134385.93   -41216.485    2729.3562   -43945.842    43.259145   0.92936433 
   64500    220.33885   -441.23069    134244.98   -41199.986    2741.4342   -43941.421    43.434882   0.93034016 
   64600    219.47246    -514.9997    134275.98   -41252.855    2730.6547    -43983.51     43.54414   0.93012533 
   64700    221.35324   -517.36091    134294.56   -41258.684    2754.0551   -44012.739    43.476199   0.92999665 
   64800    219.79984   -449.99615    134284.66    -41268.86    2734.7278   -44003.588    43.654263   0.93006521 
   64900    221.65252   -582.90887    134319.63   -41249.523    2757.7787   -44007.302    43.748091   0.92982305 
   65000    220.60989   -677.90638     134265.6   -41211.094    2744.8065   -43955.901    43.653592   0.93019727 
   65100     221.0081   -355.37032    134294.51   -41247.046    2749.7609   -43996.807    43.665364   0.92999698 
   65200     221.9615   -566.52699    134190.94   -41249.458     2761.623   -44011.081     43.80078   0.93071475 
   65300    220.42084    -386.6014    134298.26   -41250.428    2742.4543   -43992.882    43.844902     0.929971 
   65400    223.58437   -483.24263    134388.61   -41198.592    2781.8147   -43980.406    43.719457   0.92934577 
   65500     219.1585   -511.82896    134255.27   -41284.133    2726.7484   -44010.881    43.743263   0.93026881 
   65600    218.99068   -482.95317    134092.45    -41316.01    2724.6604    -44040.67    43.707772   0.93139838 
   65700     215.5271   -366.20516    134095.75   -41359.581    2681.5669   -44041.148    43.700459   0.93137548 
   65800    216.28271   -544.94157    134191.63   -41361.962    2690.9681    -44052.93    43.929576   0.93070997 
   65900    220.59838   -482.92058    134206.05   -41339.329    2744.6632   -44083.992    43.940734   0.93060999 
   66000    219.54397   -555.95596    134322.62   -41232.863    2731.5444   -43964.407    43.971055   0.92980235 
   66100    222.10592   -313.93111    134245.03   -41184.139    2763.4199   -43947.559    43.924239   0.93033977 
   66200    223.61997   -436.30758    134285.97   -41164.863    2782.2575    -43947.12    43.830058   0.93005616 
   66300    221.12777   -480.02133     134092.9   -41202.653    2751.2499   -43953.903    43.941227   0.93139526 
   66400     215.0815    -625.6392    134069.37   -41246.427    2676.0227   -43922.449    43.975738   0.93155869 
   66500    216.58608   -378.22723     134011.5   -41257.292    2694.7425   -43952.035    44.003816   0.93196103 
   66600    218.03055   -491.69251    134160.04    -41275.01    2712.7145   -43987.725    44.153907   0.93092912 
   66700    216.18552   -461.17206    134088.38   -41290.138    2689.7589   -43979.897    44.195998   0.93142668 
   66800    219.48611   -538.56094    134237.23   -41223.758    2730.8245   -43954.582    44.308284   0.93039386 
[...]
   84600     214.4616   -496.81623    134007.28   -41411.312      2668.31   -44079.622    49.917542   0.93199034 
   84700     217.0212    -510.1856    134082.37   -41411.928    2700.1563   -44112.084    49.762721   0.93146837 
   84800    218.34298   -347.40605    134292.95   -41380.703    2716.6018   -44097.305    49.747245   0.93000777 
   84900    221.10371   -548.07097    134336.69   -41363.082    2750.9506   -44114.033    49.789422   0.92970501 
   85000    218.93537    -586.0441     134178.1   -41312.323    2723.9723   -44036.295    49.901875   0.93080386 
   85100    217.84342   -485.59398    134314.77    -41315.76    2710.3863   -44026.146    49.802167   0.92985671 
   85200    217.65808   -543.13073     134476.9   -41329.591    2708.0804   -44037.671    50.019788   0.92873565 
   85300    216.30891    -504.7665    134414.09   -41374.975     2691.294   -44066.269    50.230155   0.92916967 
   85400     218.8701   -513.97352    134370.84   -41363.871    2723.1601   -44087.031     50.45438   0.92946872 
   85500    218.23731   -534.87267    134134.46   -41331.747     2715.287   -44047.034    50.319376   0.93110667 
   85600    218.77564   -486.94697    134129.81   -41313.125    2721.9849    -44035.11    50.012383   0.93113898 
   85700    216.18775   -524.97345    134176.28   -41341.404    2689.7866    -44031.19    49.943368   0.93081645 
   85800    216.40178   -501.07175    134088.86   -41353.723    2692.4496   -44046.172    50.168128   0.93142334 
   85900    221.38105   -402.47299    134307.22   -41266.227    2754.4012   -44020.628    50.328989   0.92990898 
   86000    220.18289   -550.11405    134456.25   -41327.848    2739.4938   -44067.342    50.410428   0.92887828 
   86100    220.35426   -523.18413    134577.88   -41320.624     2741.626    -44062.25    50.547357   0.92803877 
   86200    217.32135   -546.08251    134474.19   -41299.283    2703.8908   -44003.174    50.623521   0.92875439 
   86300    222.88661   -455.02683    134293.37   -41332.266    2773.1332   -44105.399    50.656504   0.93000493 
   86400    222.62767   -507.18526    134365.38    -41341.94    2769.9114   -44111.851    50.714883    0.9295065 
   86500     219.6606   -428.27978    134380.55   -41319.886    2732.9954   -44052.881    50.826816   0.92940156 
   86600    217.56181   -470.71947    134480.03   -41265.579    2706.8826   -43972.462    51.000662   0.92871406 
   86700    222.94424   -403.71093    134377.21   -41263.113    2773.8501   -44036.963    50.888565   0.92942468 
   86800    220.39755    -409.6242    134421.12   -41327.936    2742.1645   -44070.101    50.890002   0.92912105 
   86900    223.76551   -493.91163    134327.48   -41292.934    2784.0684   -44077.003       50.874   0.92976872 
   87000    222.12903   -548.97839    134310.09   -41299.465    2763.7074   -44063.172    50.937522   0.92988911 
   87100    217.72838   -529.46687    134286.51   -41328.813     2708.955   -44037.768    51.092875   0.93005239 
   87200    221.46183   -516.70896    134385.19   -41315.323    2755.4062   -44070.729    51.003851   0.92936944 
   87300    220.59401    -514.7621    134250.54   -41333.172    2744.6088   -44077.781    51.009982   0.93030158 
   87400    218.83258   -542.53252    134189.53   -41337.388    2722.6933   -44060.081     51.09458   0.93072454 
   87500    218.60827   -594.41647    134114.76    -41351.99    2719.9025   -44071.893      51.1536   0.93124342 
   87600    217.81664   -489.06251    134240.74   -41349.195    2710.0531   -44059.248    51.109825    0.9303695 
   87700    217.47329   -567.54457    134239.38   -41355.827    2705.7811   -44061.608    51.162154   0.93037893 
   87800     220.2858   -565.43913    134138.36   -41340.103    2740.7741   -44080.877    51.058733   0.93107958 
   87900    220.43082   -577.01568    133982.79   -41359.705    2742.5784   -44102.283    51.018907   0.93216067 
   88000    217.18026   -501.96954    134060.33   -41380.284    2702.1353   -44082.419    51.146254   0.93162154 
   88100     220.3667   -504.22037    134015.53   -41311.847    2741.7807   -44053.627    51.075751   0.93193295 
   88200    220.01274   -578.79054    133947.25   -41289.447    2737.3768   -44026.823    51.119104     0.932408 
   88300    223.07093   -646.19566    133844.97   -41328.488    2775.4264   -44103.914    51.185568   0.93312056 
   88400    213.98913   -368.87699     133863.5   -41419.605    2662.4316   -44082.036    51.330586   0.93299137 
   88500    220.59414   -490.34961    134105.49   -41307.749    2744.6105   -44052.359    51.284412   0.93130784 
   88600    216.78399   -601.71098    134166.44   -41251.727    2697.2049   -43948.932    51.220961   0.93088476 
   88700    222.58859   -328.19366     134246.2   -41233.999    2769.4252   -44003.424    51.352606   0.93033167 
   88800    227.97434    -512.9264    134210.58   -41168.591    2836.4342   -44005.025    51.481308   0.93057858 
   88900    217.46026   -468.85777    134305.84   -41210.559     2705.619   -43916.178    51.448892   0.92991857 
   89000    224.26168   -563.31668    134185.82   -41197.251    2790.2416   -43987.492    51.215068   0.93075028 
   89100    217.77453   -616.43785    134215.74   -41295.909    2709.5292   -44005.438    51.495764    0.9305428 
   89200    214.59736   -545.57009    134166.77   -41323.645    2669.9991   -43993.644    51.546622   0.93088248 
   89300    219.45701   -452.21937    134292.54   -41338.705    2730.4624   -44069.167    51.608492   0.93001063 
   89400     217.5086     -567.737    134295.65   -41368.029    2706.2205    -44074.25    51.737962   0.92998913 
   89500    214.48149   -464.13785    134244.25   -41390.171    2668.5575   -44058.728    51.703156   0.93034518 
   89600    215.19297   -676.58851    134358.16   -41430.498    2677.4096   -44107.908     51.93593   0.92955644 
   89700    216.86152   -553.78434    134583.53    -41401.32    2698.1696   -44099.489    51.762837   0.92799984 
   89800    222.69483   -462.68654    134657.13   -41374.692     2770.747   -44145.439    51.938031   0.92749259 
   89900    214.38244   -643.31266    134477.98   -41432.226    2667.3251   -44099.551    51.876896   0.92872819 
   90000    220.62098   -416.84037    134519.48    -41351.75    2744.9444   -44096.694    52.153058   0.92844171 
   90100    217.75497   -467.51279    134596.11   -41364.085    2709.2858   -44073.371    52.128038   0.92791305 
   90200    219.37952   -482.29307    134594.85   -41401.838    2729.4983   -44131.337    52.156303   0.92792175 
   90300    216.66346   -552.81577    134806.85   -41410.367    2695.7054   -44106.073    51.870702   0.92646249 
   90400    218.22299   -400.58541    134733.32   -41382.406    2715.1088   -44097.515    52.043243   0.92696811 
   90500     219.2922   -553.37731    134865.96   -41340.177    2728.4119   -44068.589     52.04883   0.92605647 
   90600    223.16664   -520.62318    134729.26   -41267.738    2776.6173   -44044.355    52.161888   0.92699604 
   90700    223.52952    -640.4995    134712.06   -41285.566    2781.1323   -44066.698    52.340704   0.92711438 
   90800    222.23517   -622.89042    134626.13   -41319.046     2765.028   -44084.074     52.09011   0.92770614 
   90900    214.60597   -542.85277     134514.1   -41411.987    2670.1062   -44082.093    51.964201   0.92847882 
   91000    215.68488   -504.41574    134398.87   -41413.137    2683.5299   -44096.667    51.949325   0.92927483 
   91100    215.30835   -451.27982    134399.57   -41407.772    2678.8452   -44086.617    52.350469   0.92927001 
   91200    218.14812   -536.53954    134537.46    -41360.06    2714.1773   -44074.237    52.439442   0.92831757 
   91300    219.73281   -481.28376    134703.09   -41257.237    2733.8939   -43991.131    52.437287   0.92717613 
   91400    223.66905     -509.791    134667.11   -41231.748    2782.8682   -44014.616    52.333559   0.92742389 
   91500    221.12034    -557.9604    134490.81   -41239.235    2751.1574   -43990.392    52.080907    0.9286396 
   91600    221.67791   -375.40623    134538.44   -41280.081    2758.0947   -44038.176    52.288751   0.92831083 
   91700      218.439   -362.69068    134475.58   -41342.779    2717.7964   -44060.576    52.216793   0.92874477 
   91800    221.57097   -626.31724     134672.8   -41305.903    2756.7641   -44062.667    52.339684   0.92738471 
   91900    218.06323    -462.3856    134609.61    -41314.34    2713.1211   -44027.461    52.361023   0.92782004 
   92000    220.27799   -375.18628    134516.81   -41318.255    2740.6769   -44058.932    52.439406   0.92846012 
   92100    215.09095   -515.89938    134604.18   -41360.079    2676.1404   -44036.219    52.563479   0.92785744 
   92200    220.08653   -452.51757    134713.61   -41306.216    2738.2949   -44044.511    52.619993   0.92710373 
   92300    223.49998   -573.66599    134781.99   -41218.832    2780.7647   -43999.597    52.656218    0.9266334 
   92400    224.77192   -441.46289    134758.95   -41238.455      2796.59   -44035.045    52.779326   0.92679182 
   92500    219.33204   -455.15841    134784.44   -41280.259    2728.9076   -44009.166     52.72982   0.92661651 
   92600    218.58341   -492.90379    134815.28   -41266.843    2719.5932   -43986.436      52.8601   0.92640458 
   92700    222.45953   -658.85682    134674.25   -41250.563    2767.8195   -44018.382    52.761677   0.92737472 
   92800     215.2643   -658.25774    134548.23   -41292.008    2678.2971   -43970.305    52.721823   0.92824331 
   92900    220.50014   -517.07875    134502.29   -41260.538    2743.4409   -44003.979    52.878444   0.92856036 
   93000    217.33647   -510.37647    134500.56   -41283.624    2704.0788   -43987.703    52.917791   0.92857226 
   93100    220.76699    -439.8961    134403.62   -41234.319    2746.7611    -43981.08    52.931612     0.929242 
   93200    224.75927   -511.11065    134514.83   -41249.735    2796.4326   -44046.167    52.928659    0.9284738 
   93300    219.44216   -345.41871    134652.72   -41268.283    2730.2777   -43998.561    53.152262   0.92752299 
   93400    220.41542   -493.82439    134705.49   -41312.943    2742.3869    -44055.33    53.072618   0.92715965 
   93500    216.67175   -534.05631    134737.92   -41352.278    2695.8085   -44048.087    53.043438   0.92693644 
   93600    215.80784   -486.80489    134705.16   -41416.843    2685.0598   -44101.903     53.30298   0.92716189 
   93700     217.6904   -441.37573    134531.64   -41383.082    2708.4825   -44091.565    53.420501   0.92835778 
   93800    221.18598   -345.29516    134605.88   -41352.592    2751.9741   -44104.566    53.448389   0.92784574 
   93900    221.84982   -578.18724     134611.2   -41326.577    2760.2335   -44086.811    53.342564   0.92780907 
   94000    220.69287    -403.9704    134532.45   -41338.376    2745.8389   -44084.215    53.391374   0.92835218 
   94100    220.07622   -670.42719    134453.36   -41351.409    2738.1666   -44089.576    53.191674   0.92889825 
   94200     219.2766    -534.9253    134384.03   -41347.701    2728.2178   -44075.919     53.29834   0.92937751 
   94300     218.4156   -567.71056    134339.56   -41309.401    2717.5054   -44026.906    53.357129   0.92968512 
   94400    221.20812   -387.37339    134517.45   -41294.521    2752.2495    -44046.77    53.262845   0.92845567 
   94500     226.2587   -527.65484    134291.06   -41237.238    2815.0883   -44052.326    53.266282   0.93002088 
   94600    220.65461   -583.19373    134270.04   -41278.926    2745.3629   -44024.289    53.407005   0.93016648 
   94700    218.23087   -354.23759    134368.15   -41318.217    2715.2069   -44033.424    53.419272   0.92948731 
   94800    220.30152   -452.30792    134349.39   -41313.065    2740.9698   -44054.035    53.273172   0.92961712 
   94900    219.17116   -596.24652    134417.38   -41271.176    2726.9059   -43998.081    53.390754   0.92914687 
   95000    225.25572   -559.94136    134435.83   -41244.337    2802.6094   -44046.946       53.379   0.92901935 
   95100    220.34509   -511.77146    134309.53   -41233.564    2741.5118   -43975.075    53.116635     0.929893 
   95200    222.83154   -510.23728    134399.67   -41250.914     2772.448   -44023.362    53.250555   0.92926933 
   95300    223.14137   -412.79856    134350.15   -41145.026    2776.3028   -43921.329    53.400329   0.92961185 
   95400    222.74313   -456.47572    134291.76   -41203.691     2771.348   -43975.039    53.486866   0.93001606 
   95500    220.61918   -579.98824    134275.48   -41210.438    2744.9221    -43955.36     53.56721   0.93012882 
   95600    224.20338   -439.84514    134369.62   -41208.299    2789.5163   -43997.815    53.719512   0.92947712 
   95700    219.50206   -514.45494    134183.65   -41270.984     2731.023   -44002.007    53.572423   0.93076537 
   95800    219.30947   -457.98712    134168.33   -41329.224    2728.6267   -44057.851    53.536291   0.93087161 
   95900    218.89935   -461.81191     134364.9   -41276.614    2723.5241   -44000.138    53.514194   0.92950981 
   96000    215.99297   -639.34158    134251.09   -41352.886    2687.3632   -44040.249    53.469454   0.93029779 
   96100    222.72183   -601.84624    134256.38     -41310.3     2771.083   -44081.383    53.659266   0.93026111 
   96200    218.69077   -515.33615    134278.53   -41353.633     2720.929   -44074.562    53.874303   0.93010769 
   96300    224.36576   -427.50533    134283.63   -41308.378    2791.5366   -44099.914    53.795919   0.93007236 
   96400    218.49374   -557.49369    134255.38   -41289.513    2718.4776   -44007.991    53.940664   0.93026804 
   96500    216.10281    -512.9498    134226.47   -41332.259    2688.7298   -44020.989    53.986596   0.93046842 
   96600    221.59671   -442.95875    134184.66    -41330.43    2757.0844   -44087.515    53.813531   0.93075835 
   96700    218.65669   -437.33913    134112.21   -41416.668     2720.505   -44137.172    53.870151   0.93126117 
   96800    216.97758   -364.80293    134223.21    -41469.66    2699.6136   -44169.274    53.839665   0.93049104 
   96900    220.00936   -440.79329    134235.93    -41411.79    2737.3347   -44149.125    53.957858   0.93040283 
   97000    216.09686   -581.05629     134297.2   -41417.821    2688.6558   -44106.476    54.120156   0.92997838 
   97100    215.69117   -619.22776    134443.77   -41400.987    2683.6082   -44084.595    53.925595   0.92896454 
   97200    216.18739   -482.21933    134476.25   -41401.666    2689.7821   -44091.448    54.013577   0.92874016 
   97300    215.58144   -473.76961    134318.52   -41400.316    2682.2429   -44082.559    54.062265   0.92983077 
   97400    217.26671   -397.42851    134422.49   -41391.152     2703.211   -44094.363    54.096435   0.92911159 
   97500    221.54484   -465.05423    134302.96    -41296.65     2756.439   -44053.089    53.993604   0.92993847 
   97600     218.5592   -618.52762    134269.69   -41363.656     2719.292   -44082.948    53.817892    0.9301689 
   97700    221.15699   -598.17556    134304.27   -41309.146    2751.6134   -44060.759     54.09783   0.92992943 
   97800    218.47641   -522.50611    134183.71   -41295.279    2718.2618    -44013.54    54.171748   0.93076493 
   97900    222.51547   -506.07917     134140.8   -41262.013    2768.5155   -44030.529    54.133459    0.9310627 
   98000    218.27168   -549.79567    134025.57    -41304.75    2715.7146   -44020.465    54.013552   0.93186317 
   98100    219.54699   -501.60082    134064.99   -41383.822     2731.582   -44115.404    54.338032   0.93158913 
   98200    219.05436   -553.47301    134002.12   -41369.592    2725.4527   -44095.045     54.32477   0.93202625 
   98300    217.87699    -565.8562    133886.91   -41394.713    2710.8039   -44105.517    54.182956   0.93282823 
   98400    215.91993   -630.61726    134046.25   -41397.731    2686.4545   -44084.186     54.18723   0.93171941 
   98500    217.01817   -459.44969    134122.96   -41401.535    2700.1186   -44101.654    54.034183   0.93118649 
   98600      218.728   -424.89972    134177.46   -41417.072    2721.3921   -44138.464    54.324742   0.93080828 
   98700    215.50691   -438.44798    134271.32   -41473.491    2681.3156   -44154.807    54.277684   0.93015761 
   98800    218.23645   -476.61275    134313.17   -41438.807    2715.2763   -44154.083     54.36786   0.92986776 
   98900    215.74676    -526.8196    134396.57   -41432.437    2684.2998   -44116.737    54.431222   0.92929077 
   99000    213.36356    -401.6692    134245.43    -41472.04    2654.6483   -44126.688    54.465019     0.930337 
   99100    217.90744   -377.07433    134385.47   -41381.584    2711.1828   -44092.766    54.401702    0.9293675 
   99200    220.81381   -548.60188    134531.61   -41375.867    2747.3436   -44123.211    54.484139   0.92835798 
   99300     224.4291   -574.83924    134441.99   -41341.742    2792.3247   -44134.067     54.62143   0.92897682 
   99400    223.68627   -537.20111    134458.15   -41315.276    2783.0824   -44098.359    54.717226   0.92886515 
   99500    223.30888   -475.40202    134234.08   -41205.457     2778.387   -43983.844    54.496789    0.9304157 
   99600    225.79995   -588.66993    134370.25   -41229.612    2809.3807   -44038.993    54.657818   0.92947281 
   99700    221.01566   -447.83011    134313.38   -41250.803     2749.855   -44000.658    54.770659   0.92986635 
   99800    224.28913   -563.57104    134418.39   -41273.829    2790.5832   -44064.413    54.695389   0.92913993 
   99900    221.17338   -558.18297    134199.81   -41333.601    2751.8174   -44085.418    54.579077   0.93065328 
  100000    217.75547   -546.22828    134135.14   -41334.785     2709.292   -44044.077    54.696746   0.93110197 
  100100    222.58324   -609.92694     134090.3   -41268.951    2769.3586    -44038.31     54.79765    0.9314133 
  100200     225.2515   -479.80899    134174.18   -41275.493    2802.5568   -44078.049    54.740113   0.93083104 
  100300    224.10529    -484.7531    134100.83   -41257.495    2788.2958   -44045.791    54.853344   0.93134016 
  100400    222.70771   -474.29395    134192.31   -41297.173    2770.9074    -44068.08    54.933237    0.9307053 
  100500    223.20643   -516.11564    134120.64   -41211.551    2777.1124   -43988.664    55.092636   0.93120259 
  100600    219.03964   -593.04289    133990.26   -41290.191    2725.2696    -44015.46    54.882259   0.93210872 
  100630    220.24671   -496.49187    133998.52   -41272.825    2740.2878   -44013.113     54.69262   0.93205124 
Loop time of 73.4853 on 6 procs for 100000 steps with 4175 atoms

Performance: 587.872 ns/day, 0.041 hours/ns, 1360.816 timesteps/s
98.3% CPU use with 6 MPI tasks x no OpenMP threads

MPI task timing breakdown:
Section |  min time  |  avg time  |  max time  |%varavg| %total
---------------------------------------------------------------
Pair    | 57.67      | 59.322     | 60.549     |  14.0 | 80.73
Neigh   | 4.9411     | 4.9709     | 4.9856     |   0.7 |  6.76
Comm    | 5.4384     | 6.6353     | 8.2771     |  41.9 |  9.03
Output  | 0.15939    | 0.16011    | 0.16347    |   0.4 |  0.22
Modify  | 1.7325     | 1.7623     | 1.7851     |   1.4 |  2.40
Other   |            | 0.6347     |            |       |  0.86

Nlocal:        695.833 ave         701 max         685 min
Histogram: 1 0 0 0 0 0 3 0 0 2
Nghost:        1459.67 ave        1468 max        1452 min
Histogram: 2 0 0 0 0 2 0 1 0 1
Neighs:        0.00000 ave           0 max           0 min
Histogram: 6 0 0 0 0 0 0 0 0 0
FullNghs:      18963.0 ave       19320 max       18497 min
Histogram: 1 0 0 0 0 2 2 0 0 1

Total # of neighbors = 113778
Ave neighs/atom = 27.252216
Neighbor list builds = 5434
Dangerous builds = 0

undump              1
unfix               2
unfix               3
unfix               4


################################################
#######         Run Simulation         #########
################################################

reset_timestep      0
log                 log.run_${NAME}
log                 log.run_liquid_density_MLmW
