LAMMPS data file via write_data, version 29 Oct 2020, timestep = 800000

4175 atoms
1 atom types

-0.8112461219092495 50.81124612190452 xlo xhi
-0.8112461219092495 50.81124612190452 ylo yhi
-0.8112461219092495 50.81124612190452 zlo zhi

Masses

1 18.015

Atoms # atomic

683 1 5.5589992719124774 0.5904916837459697 1.5275808105182933 0 0 0
216 1 8.301627975261448 0.15243204029201707 2.234318908746336 0 0 0
1961 1 10.09023949495084 1.834922884815164 0.9095494052887898 0 0 1
704 1 12.456011598287454 1.9358227495393892 2.2716903723222055 0 0 0
198 1 14.9712861115369 2.234632254559697 0.9761083241841941 0 0 0
1742 1 16.18561020558153 0.2472556919100537 2.700273515683959 0 0 1
396 1 18.804511703755065 0.29714715900171096 2.0912110066853278 0 0 0
184 1 19.924720142636744 0.33397027979452654 -0.4916175086872509 0 0 0
2768 1 23.400959562986024 2.2947281020510455 0.6739786110305523 0 1 0
2052 1 2.3702486131656255 20.438083460417275 -0.6657683776753809 0 0 1
389 1 28.014403521393813 2.440090888397672 0.5729024454397502 0 0 0
67 1 28.573245204303827 -0.33461910823073615 1.026411402107105 0 0 0
2440 1 23.225836417944866 24.665787863551348 12.212939960514058 0 0 0
1455 1 3.7452362320704493 12.009262963604733 0.0671918037730046 0 0 1
1465 1 37.45803289281787 1.7734992630534352 0.2937027621332242 0 0 1
2306 1 41.654178075195155 0.23535408408434044 1.0973643633741619 0 1 0
2164 1 49.02838856837613 23.87360105263816 14.933939391560923 0 0 0
597 1 46.902617243707084 2.129189614137518 0.46702001408391713 0 0 0
1826 1 31.839565610969032 2.2763976207139085 -0.6294522972685672 0 0 1
468 1 1.2185012065179213 5.693907504890678 0.44930770600171965 0 0 0
1716 1 2.861272343700861 4.013570252077619 2.3654580728392745 0 0 1
1505 1 5.112110680217316 3.3824316196014275 0.8777799214638404 0 0 1
541 1 6.700641017090556 5.435637030520781 1.5630777711691834 0 0 0
1764 1 9.131494319912965 4.632984820136537 0.14735674049793557 1 0 1
13 1 11.056367638538612 5.905658349257519 1.1703641850519764 0 0 0
1866 1 15.782222431510917 4.4118728487436005 1.9735723409139596 0 0 1
1670 1 18.762127985998557 4.522913632761879 1.5050138634043897 0 0 1
1827 1 25.339580833978754 3.9744695029506953 0.08722625841136677 0 0 1
430 1 30.429340135081915 3.5833300797068413 1.3865800364442538 0 0 0
1854 1 38.689103449716605 4.332075041245321 1.0473995302827137 0 0 1
1939 1 42.435800476475414 2.435418927633824 2.244753066657755 0 0 1
312 1 43.42312552530527 4.427915402778882 0.1279559089318978 0 0 0
552 1 46.632001028596044 4.9238142573041745 0.5100062614779901 0 0 0
2398 1 49.62530844297288 2.7207677405532964 1.4403494793675269 0 1 0
36 1 4.316239434182694 8.355495708487554 3.1439626388371824 0 0 0
2502 1 5.677722499015237 7.850314792708099 0.7548250814327575 0 1 0
1869 1 9.893414627596044 8.28292596467376 1.6947174894577812 0 0 1
136 1 14.347006272900904 8.55973480538616 1.9114895672225223 0 0 0
322 1 46.848471076740054 -0.32431975516812295 11.18065971348532 0 0 0
1761 1 20.518884991692268 8.642395356366928 1.2618487336487916 0 0 1
2035 1 21.965319753468766 6.91736535209878 -0.24191960032593107 0 0 1
676 1 24.062691496102328 6.12890105584073 1.4143337196899441 0 0 0
452 1 26.09290253615275 7.966532533852959 0.2774456975996462 0 0 0
183 1 28.475248282845634 7.964727025544285 1.8986750459977562 0 0 0
382 1 30.24864956320818 6.17017935044411 0.8418626240121234 0 0 0
29 1 32.52730406381981 6.956781031922356 2.356117627432253 0 0 0
1701 1 34.34601551511366 6.183991733687011 0.3149161507269076 0 0 1
511 1 36.60070413285914 5.543016941637653 2.286631086703967 0 0 0
581 1 40.96897713593139 7.973054598836544 -0.05088044487832166 0 0 0
553 1 43.69198972431745 7.404888946936071 -0.19880393651970085 0 0 0
610 1 49.39741095124667 8.685476228973902 1.3025393750784722 -1 0 0
71 1 1.2913049025688061 11.389313631490321 1.129540171128238 1 0 0
575 1 1.7671780454197572 9.354530611409112 2.965102958868906 1 0 0
352 1 13.938650397287955 21.870318905023602 -0.42803000423136917 0 0 0
113 1 7.965048071554246 9.30561505755526 0.31550671061320656 0 0 0
1911 1 7.04349424781266 11.54854999280526 1.8835913585929913 0 0 1
343 1 12.390279521944624 9.732859430783199 0.6683765190503737 0 0 0
607 1 16.429335360542577 10.593960071333315 1.616935327330507 0 0 0
423 1 22.590983068317247 10.450407006939168 1.9138355894088295 0 0 0
424 1 20.865978974490453 12.539762466366989 0.8364400908099561 0 0 0
534 1 24.92924833142308 10.54875957429798 0.2907051176639315 0 0 0
411 1 30.350410508823874 10.066131642151795 0.7127141127720233 0 0 0
1729 1 32.64093789361525 9.935745145986724 2.423933319352768 0 0 1
1538 1 34.133459470490656 10.706002456457181 0.03460515083548987 0 0 1
27 1 36.566835107684206 9.90914413094786 0.5041054165641934 0 0 0
229 1 23.50840099221057 24.38583490786772 14.922839709299526 0 0 0
341 1 45.238418336527545 9.126882401736914 1.3179567145460789 0 0 0
409 1 49.78488353879138 11.287788079104091 1.7083998556651463 -1 0 0
1649 1 0.8587428503715973 14.159500738114529 2.566318486206144 1 0 1
1429 1 5.150910899874352 13.485311012418771 1.7441742374668188 0 0 1
118 1 9.587935372148419 12.747431829216163 2.757832582468364 0 0 0
1956 1 11.638108565544607 12.446738937942866 1.0537868916135464 0 0 1
1631 1 13.736671317946072 13.77410031836541 1.7415445865252495 0 0 1
1984 1 15.792237834161298 13.024651553544494 0.26360071829135845 0 0 1
802 1 23.046296880520583 14.56369622189015 0.9701425630977163 0 0 0
153 1 24.89124201688192 14.492082958385728 3.0047328050612205 0 0 0
342 1 26.216355479641315 12.162727292502487 2.3403480049050787 0 0 0
646 1 28.79282268610402 12.379028419503904 0.9401479057205664 0 0 0
705 1 29.591131905829286 14.008559852025783 3.089265586629668 0 0 0
2197 1 16.653822989530145 24.674907235148428 4.444247557952217 0 0 0
1644 1 37.979034168099126 12.20473800529631 0.945461397167151 0 0 1
2242 1 24.025108404432032 -0.2493758099061687 0.1916753772767963 0 1 0
675 1 40.75930547187632 12.442528105480037 1.0510672781401516 0 0 0
1871 1 41.955587816258806 14.93559490112078 0.8249509493928655 0 0 1
463 1 44.4167107509445 14.703710535094865 -0.5605240097879809 0 0 0
443 1 46.328221911693696 13.726633475855968 1.416969886899492 0 0 0
1487 1 47.92231178236821 12.274121309773061 0.006515628547499541 0 0 1
1773 1 0.8542945312012808 16.057427918184146 0.5227928604134828 0 0 1
62 1 2.212860729302233 18.523319583588194 1.351570075081347 0 0 0
1867 1 4.835153297404745 17.980573713837412 2.3199989220187756 0 0 1
154 1 6.216836860025912 15.948887390391878 0.60802428885035 0 0 0
2097 1 8.981114191479067 16.02117935997569 0.19162508467139316 0 0 1
431 1 10.372278817650113 18.530640206366567 -0.2566890404644073 0 0 0
1619 1 13.560663986531212 16.308869183792567 1.3388948400776828 0 0 1
1928 1 17.594694616971555 17.4049543059264 0.784864993135876 0 0 1
1886 1 15.518854751635327 17.84379199532834 2.7255760802202986 0 0 1
1905 1 18.197180119582427 14.341904738731904 0.33237753873943054 0 0 1
1584 1 21.446567300746555 16.908742621656113 0.9441531812710904 0 0 1
316 1 7.425746632429737 -0.6574094397519006 12.240828148789168 0 0 0
2307 1 25.955153241969985 16.823268714310938 1.623914271205117 0 0 0
1835 1 31.370314103210426 15.732602510919765 1.2586743466339088 0 0 1
2461 1 30.471306573237047 18.490006943907478 1.3803999566908156 0 0 0
503 1 33.76061997881125 15.099188788089702 1.7941895571513236 0 0 0
529 1 35.58592283750023 17.38593486305851 2.04320974199709 0 0 0
243 1 36.98468720231875 18.193374135640365 -0.18632579709083363 0 0 0
570 1 18.358883637651523 9.54165448574109 -0.06501813472245965 0 0 0
1806 1 49.91458126180018 16.51929814416102 0.5366411262517792 -1 0 1
2559 1 11.96869225621929 24.90101067681666 10.034181914845497 0 0 0
127 1 10.93549614376884 19.666015616070332 2.1240596708543293 0 0 0
656 1 12.751956998164678 21.77888274966229 2.118637512528385 0 0 0
2766 1 27.170371249851577 -0.2861194700221207 3.5973204831035552 0 1 0
1672 1 19.549240807676824 19.83478420919123 0.6267853190008388 0 0 1
568 1 23.78599675294849 18.350015461122272 2.0150780230443717 0 0 0
990 1 23.809584285376474 20.959028804242873 0.6503723891403788 0 0 0
230 1 27.999550983070673 18.58351331314007 -0.02936524306768673 0 0 0
418 1 26.744015209238896 21.163473698471382 0.07914129346862908 0 0 0
587 1 32.30825174939963 20.227263328817177 0.5003783174998564 0 0 0
1586 1 38.664014085734145 20.267990356409292 -0.18196353101322027 0 0 1
165 1 43.12852439999739 19.693013419325535 0.7240079579513283 0 0 0
701 1 -0.5481997504801508 3.9269414388974093 -0.41979691709604733 0 0 0
214 1 45.90312591084313 19.415889238465045 -0.01005415007313859 -1 0 0
2140 1 47.30093358415906 19.205541666905635 2.2256842156041206 0 0 0
377 1 50.08233180143775 19.202445005318314 1.155779963606836 -1 0 0
457 1 0.03141218039264504 22.547841679723653 2.329808732484388 0 0 0
517 1 50.757117311957245 15.832498292914511 16.31860511773486 -1 0 0
2316 1 5.58879961897163 23.195064648844937 0.6852374203035267 0 0 0
3620 1 8.26188686642207 23.264515212480106 1.3806388806767593 0 0 1
2066 1 13.389992303158465 24.63859972597749 2.5297750364745193 0 0 1
3754 1 16.422655556072847 23.531295610306444 -0.191739293012277 0 0 1
1853 1 20.677524129457055 24.72788309831446 1.090542973487922 0 0 1
3923 1 18.86962942960236 22.772415507472243 0.3316845516870037 0 0 1
2633 1 22.479381340520803 22.896042974779725 2.2194790412607013 0 0 0
2432 1 25.919763635879704 24.6965390462413 -0.2054421461055752 0 0 0
1583 1 28.975454180580257 22.616357702551774 1.089610093716747 0 0 1
2231 1 34.31128596480824 23.03715501235267 0.5947476193719714 0 0 0
2118 1 36.77632170783131 23.714107786837744 1.981153757704659 0 0 0
383 1 39.04939612554656 22.241061433657496 1.7572862608653304 0 0 0
244 1 41.053643056005676 23.986052568920968 0.8073590197670026 0 0 0
1986 1 43.24968083435082 22.454938014623078 0.4335086108259285 0 0 1
520 1 47.41376711416141 23.494024947256698 0.9833818183812377 -1 0 0
671 1 -0.5044962220401922 0.8397246840464465 2.433786731025492 1 0 0
2047 1 2.0570462338046607 1.760192941675395 3.411873646802846 0 0 1
2597 1 3.949076221774167 -0.1000118672928223 3.788886390474879 0 1 0
2441 1 8.294254363136499 1.0520185277569767 4.794800310139032 0 1 0
502 1 5.808882331634444 0.9538479266897639 5.797293252485534 0 0 0
400 1 12.543616258050962 0.2727328195081562 4.573342455807081 0 0 0
627 1 15.115933061837696 0.48250859777185195 5.378198198174346 0 0 0
2016 1 19.81863821673578 2.487977901162109 3.1968764902113938 0 0 1
197 1 22.54246730911579 2.646410071765682 3.2823331563153006 0 0 0
707 1 46.72420321515331 22.584128880341552 13.682089538442517 0 0 0
143 1 27.117443599913265 2.589239896764467 3.4950193775631915 0 0 0
399 1 37.510251603715815 23.053534300357995 15.547946141042193 0 0 0
96 1 32.67601606478052 0.6560035667434607 3.668076977734988 0 0 0
1463 1 35.172696977938664 1.409688072238524 4.100464524674947 0 0 1
3898 1 37.151125021661926 0.1218851026237806 2.7764096987681195 0 1 1
2427 1 19.88653858359646 24.77587279116141 6.518298702469091 0 0 0
372 1 44.752520376242984 2.0984600507283053 4.022284308856282 0 0 0
164 1 46.69211180845332 0.500559373287621 2.9453129297072196 0 0 0
476 1 8.972276896303448 3.6131464856165074 4.967974871771846 0 0 0
1982 1 11.266515193016755 4.125171365746924 3.396714779960493 0 0 1
1969 1 12.831487091383066 5.172342794192566 5.654313058858886 0 0 1
532 1 15.661132177720255 4.733141354207699 4.859407859821545 0 0 0
247 1 21.554580214385716 5.313371763832732 4.45724303680848 0 0 0
2068 1 24.80697447601238 3.73533207427998 5.00975434426454 0 0 1
682 1 28.89582290699798 3.7544806395725745 5.432590558539636 0 0 0
9 1 31.29907503304893 3.0955179864021583 3.9426350686338125 0 0 0
144 1 35.365441014538064 4.289023282271203 4.2716441082780845 0 0 0
582 1 39.642535256117576 1.970387698055554 5.420136771340041 0 0 0
255 1 40.10135939101863 3.580068893557451 3.375605448242954 0 0 0
388 1 45.46786642991504 4.617320160988953 4.661636553172128 0 0 0
464 1 47.41083310065346 5.417996015402419 3.0881891332203253 0 0 0
282 1 49.825248967294094 4.641840414995231 3.3638894502193857 -1 0 0
222 1 -0.16009310704206448 6.9806726984981635 2.67206080054816 1 0 0
456 1 1.1394630710361884 6.4985441101837065 5.259673699341387 1 0 0
219 1 3.460924011430194 5.866225411216244 4.217074960095533 0 0 0
48 1 7.412110588689796 5.943396115734655 4.24745032317152 0 0 0
598 1 9.537434676828568 7.83673080974123 4.28499851319687 0 0 0
107 1 11.861468930720575 7.796529454382307 6.003139334351578 0 0 0
286 1 17.517253307835112 6.907137384867597 4.926018041167646 0 0 0
306 1 19.659744540907266 6.676658274777582 3.007302430009648 0 0 0
135 1 24.10097819129533 6.496377108380124 4.160140813406368 0 0 0
95 1 26.45145488574294 6.677318334855532 5.920882028065206 0 0 0
75 1 32.891188227802765 5.4280143928590805 4.556964370559437 0 0 0
536 1 37.37149451460383 8.196194630711432 2.6478306325294683 0 0 0
594 1 40.075858289328906 8.222836295720878 2.714957715805203 0 0 0
663 1 40.52408493661935 6.215902278191956 4.568096261019131 0 0 0
425 1 43.293257772603816 6.5525510107406975 5.159104176228639 0 0 0
297 1 47.296209069362426 7.938658774302018 3.3331239546184177 -1 0 0
174 1 1.3611820833203288 10.3059665733955 5.578166070112958 1 0 0
2064 1 5.807758475676882 10.55881749300489 4.20041172382942 0 0 1
323 1 7.956425373703791 9.718628175146758 5.530557675333866 0 0 0
466 1 10.014180868135314 11.87602579452256 5.4626429808360575 0 0 0
2002 1 13.89137148724203 9.066211789680917 4.656598611143869 0 0 1
155 1 12.696586533947979 11.374111414300323 5.219752500461269 0 0 0
1446 1 16.386911468720747 9.569612869611666 5.420944072538752 0 0 1
440 1 17.021943129544955 11.795762015603929 3.8977782879621143 0 0 0
479 1 23.956876128057043 9.652017789191163 4.225333295707092 0 0 0
271 1 26.411082012008094 10.473497305505305 4.527734403835053 0 0 0
649 1 28.13871070559146 8.383846020880863 4.617741690240619 0 0 0
625 1 30.375653819420926 9.556243992446543 6.167940861155771 0 0 0
1726 1 32.556569653278444 10.653263931210581 4.998717892595514 0 0 1
43 1 36.48780639433223 10.150399207444602 4.635540142845768 0 0 0
140 1 41.084231842663804 10.802752859047136 3.2165950659437845 0 0 0
121 1 43.7282818611986 10.616077512935187 3.1739677062446856 0 0 0
131 1 44.00964488670581 9.278739845130575 5.404732249281032 0 0 0
458 1 46.72874295402665 9.364139809235068 5.625285416728862 -1 0 0
38 1 3.614392070695378 12.163097681139368 5.517435615022559 0 0 0
2053 1 3.2634849212913313 14.219377336370082 3.7637667156545707 0 0 1
1485 1 14.638354788524646 13.267253137349115 4.245660870629968 0 0 1
554 1 19.270402379279247 16.358938746429487 2.7492011022028198 0 0 0
516 1 19.364949849415368 13.419559436878556 3.0026999105155445 0 0 0
495 1 21.24604264244515 13.023939442742483 5.211669305023064 0 0 0
678 1 23.52305411055635 14.618976233144709 5.629830337270289 0 0 0
192 1 25.937091650212423 14.345517629174923 7.039101926899885 0 0 0
555 1 31.80561475051769 13.204579313405068 4.8111092875759045 0 0 0
50 1 34.51184667546895 14.095724011510203 4.435615212624237 0 0 0
42 1 36.84216029680829 12.540544730805685 3.660887714505818 0 0 0
562 1 38.86972542534292 13.372664611469949 5.375862026775564 0 0 0
666 1 47.177518124934664 12.181351459939133 5.344311561134125 0 0 0
54 1 45.027484404776146 12.852355498917554 3.726027887425662 0 0 0
19 1 49.77791647718594 12.078858905908056 4.481821793991117 -1 0 0
191 1 50.37754830109308 14.605047909589251 4.134695481056222 -1 0 0
1770 1 4.543642307047126 16.561784317526786 4.601324661224631 0 0 1
205 1 7.364102889432878 15.92087130081033 4.553851389770845 0 0 0
311 1 9.530309145915103 15.50921253895395 2.771390018622606 0 0 0
376 1 11.807685632500801 17.290968682316063 3.4331294381094075 0 0 0
49 1 11.0039245638414 18.129473098029816 6.233979557735352 0 0 0
363 1 15.53234414951108 15.842051478021173 4.749294061935038 0 0 0
1892 1 17.996996133679367 15.945542306532335 6.029357288748018 0 0 1
422 1 19.748853174418645 18.08530609474083 5.056658208778233 0 0 0
731 1 22.332615633262716 17.26119747960606 6.079930272049365 0 0 0
128 1 27.598847115160133 15.31205416068125 4.949630363814926 0 0 0
2452 1 27.596882947570695 18.006583801467997 3.9646822849209187 0 0 0
177 1 31.480095171568742 18.15731346310083 5.897221739193478 0 0 0
273 1 33.99438102439336 16.81970540721894 5.330068293417826 0 0 0
346 1 39.97240364837336 15.921950163681736 5.319505268495307 0 0 0
637 1 44.281069239651536 15.357822835524722 4.718293811681855 0 0 0
339 1 42.01602198422424 16.50685851960005 3.4392238274045477 0 0 0
2246 1 46.551442787650046 17.08879012099995 4.009064537087796 0 0 0
23 1 48.29384910086083 15.500526710010273 2.5008851722946757 0 0 0
634 1 0.3574355369509672 19.827030129086204 3.1535779742025647 0 0 0
366 1 0.7527966109000599 19.58688249713765 6.188069401224372 1 0 0
1432 1 6.1450526513974335 20.322719996274856 3.5798817537967933 0 0 1
139 1 8.049688763465637 18.03010349213522 6.2981685248360115 0 0 0
1577 1 8.711538273869259 21.0951433313963 3.1483181557989046 0 0 1
2411 1 14.892105294186447 20.60528513986891 3.768359813429897 0 0 0
442 1 17.422243971368385 21.8960744103756 4.552302065143859 0 0 0
1775 1 19.529385473971338 20.477226087818092 3.6080153842709644 0 0 1
1533 1 22.05132479298271 21.614953377058278 4.552897442339092 0 0 1
2 1 23.357051151037936 19.150194702287187 4.679794599044638 0 0 0
1445 1 25.874982147734602 20.027124807030045 5.314690859636734 0 0 1
691 1 30.024143654630105 19.43810223897357 3.85050558938383 0 0 0
270 1 34.691857495263804 21.29956566632645 4.842838250145713 0 0 0
91 1 35.9542508512885 18.761123279109725 4.31625084760971 0 0 0
490 1 38.46319612603319 18.487800897958945 5.225014376735913 0 0 0
299 1 39.916717089815755 20.493689138458215 3.8471637472417823 0 0 0
237 1 42.142188814896166 19.064795872783712 3.3531918801939202 0 0 0
199 1 44.03975018891428 20.1177909927122 5.357215061398961 0 0 0
2672 1 46.15104352428102 21.198098168511017 3.8245748209990262 0 0 0
1925 1 2.409685580429974 22.61994748757199 3.659607155527154 0 0 1
170 1 3.8414557021740503 21.218979462689948 1.9076227734115716 0 0 0
428 1 37.95113786214364 23.085877533361636 12.910198281347174 0 0 0
2325 1 8.855681927362935 22.434993026261957 5.4432510493404855 0 0 0
99 1 8.710458245752289 24.509372266654715 13.599667726619401 0 0 0
2324 1 24.797577821690993 24.38319663887428 2.3681094088218617 0 0 0
125 1 25.418453567060794 22.856766998709453 4.551886915206335 0 0 0
104 1 28.177941805431644 23.565174482993086 5.308192240754763 0 0 0
279 1 29.82776897576737 22.124960239667335 3.503921451207498 0 0 0
3931 1 32.0601018649152 24.80723523505916 4.24578942672274 0 0 1
2457 1 32.76521494701005 22.179988642291587 2.9288426189272783 0 0 0
2761 1 44.446555969217144 24.95093150953255 6.231393892442409 0 0 0
2265 1 36.60869049986983 23.294319732201338 4.833759596379126 0 0 0
7 1 40.823785942593894 22.76244003976271 5.134816698668052 0 0 0
46 1 41.6369280181628 24.907743136424667 3.3072354750873103 0 0 0
2565 1 30.992651075901126 24.908710307956305 15.113569801003102 0 0 0
63 1 45.28759655196272 23.000361376400196 2.1665662283971803 0 0 0
661 1 49.296539663420106 23.945417551937158 3.0680352994244333 0 0 0
2573 1 48.30949994048981 22.357615713895157 5.000500758229829 0 0 0
227 1 2.0343734280411683 2.2072464638071843 6.332835675976874 0 0 0
2345 1 1.8570028377197514 0.4383023258463903 8.23352318870376 0 1 0
2486 1 10.758725252674475 0.18838085730959664 6.7102863827745205 0 1 0
324 1 20.986901529690765 -0.6767960977264612 8.240853083152711 0 0 0
612 1 23.210860135695885 -0.2618804472838838 6.712580401720943 0 0 0
605 1 26.893758526995448 1.5258871783546284 8.171008107052277 0 0 0
2069 1 29.465391367737052 1.911986226785587 7.352356207076882 0 0 1
438 1 30.850663635167862 -0.09188128388101169 6.062712991804281 0 0 0
2360 1 34.36942551897174 0.8093284206499003 8.947975706417118 0 1 0
434 1 35.731399793556285 0.23627893982192383 6.4154716621741485 0 0 0
293 1 40.70634136682317 0.6840824890802073 9.11118617468664 0 0 0
353 1 44.16200959808643 0.9552123739779239 6.546742422924897 0 0 0
2129 1 47.761270576485686 -0.4947066032622992 8.296641172660195 0 1 0
313 1 46.05664853439637 1.702481705424884 8.425240031673662 0 0 0
2819 1 50.743372270653914 0.14127323475600506 9.175989558656081 -1 1 0
1840 1 49.69494355150808 1.0295856835610762 6.586413055924452 0 0 1
447 1 0.521434048697025 4.386556798264825 7.064383313331653 0 0 0
619 1 4.567736329919047 2.9284996930515077 6.8379873368867194 0 0 0
375 1 4.807082432069772 2.8831690286232945 9.473011120887868 0 0 0
692 1 5.3437277510016115 5.441845150660947 6.1189637370825345 0 0 0
677 1 9.485041843669938 2.573927646854413 7.651807177830992 0 0 0
80 1 11.763610768878651 3.9884635170938703 7.87963134725125 0 0 0
109 1 14.512826333746174 2.910202073064736 8.470608105660256 0 0 0
179 1 16.176679439040598 2.7531835952654453 6.412061819136528 0 0 0
599 1 18.663310286392385 1.9077142336971145 5.948627985132373 0 0 0
354 1 19.845522639160073 4.642669009237789 6.538313975410216 0 0 0
576 1 22.25028678719177 4.048097433291319 8.103168066410788 0 0 0
34 1 24.374751286653755 2.292371202165471 7.174622728460268 0 0 0
685 1 28.99754162860115 5.677074555190981 7.666573170385833 0 0 0
106 1 30.624398457002048 3.6331922376034758 9.375808473717836 0 0 0
433 1 33.43996738116441 3.42934987257913 9.674634929609427 0 0 0
654 1 37.633972708763345 2.4045741478012426 7.215439129743876 0 0 0
699 1 36.54881945659414 4.931451077076165 6.700289873752671 0 0 0
472 1 41.80448441371794 2.4633821389261223 6.889387015337548 0 0 0
391 1 42.75036344657099 5.088286758235893 7.470066045371787 0 0 0
393 1 44.29982101483168 5.215740300626964 9.811712158753167 0 0 0
267 1 46.833562057290685 3.9298725500061122 7.142121947886089 0 0 0
394 1 49.432329332516304 3.7765790785102125 6.082614231184257 0 0 0
55 1 1.7304392124467953 8.151031152539364 7.259394650259573 0 0 0
142 1 4.210784056515916 7.043815724439752 8.527170024876764 0 0 0
373 1 10.66144527317213 8.340330115116338 8.395325197992832 0 0 0
459 1 18.785636257424727 7.1993925122093 7.33462205479303 0 0 0
410 1 25.146876800890208 7.778769725913127 8.355117714017524 0 0 0
470 1 31.45253270251066 6.888307864625016 6.77846311740199 0 0 0
2368 1 34.94105541933272 5.634779285285562 8.810867209522765 0 1 0
265 1 33.52245678888977 8.045698066290218 8.17362149722962 0 0 0
69 1 38.528869188584544 6.72336634221095 6.3379292242378025 0 0 0
291 1 40.63189876784246 6.713901310530328 8.212737055210656 0 0 0
290 1 46.78915180070001 5.872629975567855 9.051170935165977 0 0 0
281 1 47.138552436864536 8.299235814808815 8.182928969577002 0 0 0
150 1 50.71113409671297 11.204545899735649 7.14574113041332 -1 0 0
12 1 8.082565143557588 9.310675371158554 8.273571271056904 0 0 0
211 1 6.383190816404092 12.16990603164989 6.827978719791594 0 0 0
657 1 9.091994813017271 11.919196690915218 9.67879635980193 0 0 0
595 1 11.717638112575898 10.629373505234588 9.469951791482602 0 0 0
492 1 13.587000381471377 11.888669049508383 7.962825984376343 0 0 0
133 1 15.927602181446915 10.42345745736277 8.004444156473772 0 0 0
112 1 18.67151107578913 11.616557058201682 8.433382368111001 0 0 0
305 1 20.33420864624655 9.539470944059135 8.179006468864841 0 0 0
115 1 22.3669412065018 10.717594670655458 6.4308864208261705 0 0 0
474 1 24.63978624533835 10.523636430145674 8.293555321611178 0 0 0
488 1 29.397691324196114 11.409017415814313 7.66450631197225 0 0 0
436 1 34.68699586542634 10.292549931234262 6.810006050374888 0 0 0
489 1 36.05692726875015 11.525303688093958 8.68335839604417 0 0 0
608 1 38.01593880099081 9.49720523510427 7.003014343916724 0 0 0
101 1 40.17008709508271 10.955945849327742 5.850399919751489 0 0 0
574 1 40.59387811267813 9.340358629267548 9.043342845129873 0 0 0
294 1 42.45758912824109 10.911378003322133 7.566400961087652 0 0 0
544 1 44.8922253944799 9.860682923088419 9.322578611262605 -1 0 0
381 1 49.50512619982702 9.514028319903996 9.08806684994617 0 0 0
614 1 0.07114404038510769 13.197357920219444 8.426168770978208 1 0 0
635 1 3.0678645673594254 12.82083385232547 8.03576072941236 0 0 0
648 1 8.061565855066334 14.354266448562077 6.48080319001449 0 0 0
22 1 10.436270105752696 13.58498954919242 7.764347281243964 0 0 0
335 1 13.900406367539658 14.172094846809172 9.048018357122318 0 0 0
1712 1 19.6616574987188 14.030677028055115 7.3670022733280565 0 0 1
545 1 26.81308076642359 11.716332937428623 7.0000372061626 0 0 0
253 1 30.905775647796887 13.84149435002067 7.1708810679789226 0 0 0
904 1 33.00926014474367 14.371544250405643 8.839962712951206 0 0 0
337 1 37.18552977254087 13.93047452429803 7.585506913452797 0 0 0
500 1 40.791169646942365 15.547641763686855 8.190396841920885 0 0 0
579 1 42.686776951493755 13.505601904499816 8.613253049274467 0 0 0
525 1 44.50215823173401 15.23776961008257 7.356445517760269 0 0 0
224 1 46.78429539828891 13.724593949559807 7.859011155183698 0 0 0
187 1 50.81031946155546 15.269200088284144 6.870896036259518 0 0 0
672 1 1.224101345013377 17.375467993460248 7.794075279452999 0 0 0
340 1 4.775398190884866 14.543437296295343 9.166423834686794 0 0 0
1582 1 3.8543038016531543 16.895426713893226 7.366283242357644 0 0 1
331 1 7.33310145305728 16.08795188339586 8.478202747307828 0 0 0
356 1 10.923220073913836 17.254674379417075 9.939598141723476 0 0 0
31 1 12.134335051406852 16.06652980115937 7.785292734729982 0 0 0
592 1 14.78042934628069 17.122050097659926 6.960046655671375 0 0 0
527 1 17.011255719777726 17.544876378038385 8.77177656245296 0 0 0
225 1 23.179563593415956 18.493391562622655 8.381645257930629 0 0 0
557 1 28.714827423376548 16.260854994586207 9.220078988313743 0 0 0
114 1 29.500889719281783 16.48638126263786 6.7422138034371795 0 0 0
669 1 35.09999942415133 15.90661702900616 7.627631669107702 0 0 0
471 1 41.91505183093401 17.8568799706635 9.023561212793345 0 0 0
8 1 44.54617342546913 18.261524002085704 7.4253964297875505 0 0 0
514 1 47.598736540260816 18.15666383568825 6.350462074915754 0 0 0
496 1 48.366301674507476 15.91630063898921 7.832370815882312 -1 0 0
647 1 5.082842019440013 20.94695959121473 6.179358637587058 0 0 0
542 1 5.585135601315158 18.923347434834675 8.040584598506536 0 0 0
687 1 8.89256422283757 19.663146584611646 8.743167455396813 0 0 0
709 1 10.701818352344713 20.97346138538343 7.113566170805973 0 0 0
651 1 13.769013744134995 19.766090199883912 6.293737064411593 0 0 0
2338 1 14.823828546081876 21.135172095462533 8.358492071255759 0 0 0
689 1 18.6849037339797 19.41258041334426 7.754434907471829 0 0 0
85 1 21.171062427682756 20.259666752182675 8.617594632991953 0 0 0
296 1 25.594848094631196 19.652600729496122 8.116185368861162 0 0 0
26 1 31.194047759175803 20.8053844278433 7.648475719242022 0 0 0
351 1 30.152616123324304 19.772545449847478 9.936818685412092 0 0 0
10 1 33.71876880805321 21.54598009897682 7.275509840995257 0 0 0
361 1 35.71168146175892 20.356387693650678 8.83849132159962 0 0 0
559 1 38.06529785787949 20.199007600048812 7.633060001569188 0 0 0
151 1 40.298343988755036 20.1711508465265 9.202065115257954 0 0 0
357 1 49.599179494677216 20.210505245855966 6.346416729034507 0 0 0
498 1 49.27932698809495 21.21934352855684 8.993246778748926 0 0 0
602 1 1.9517021241900476 23.50114963442589 8.49576201323198 0 0 0
284 1 2.4570682356996443 21.786281637012728 6.390803074751167 0 0 0
186 1 6.645828259663966 23.193019433518206 6.763094801260307 0 0 0
235 1 8.095266316726473 23.894944295322645 9.273646555791085 0 0 0
512 1 12.29786010389619 22.104565020574448 9.172683965126337 0 0 0
1718 1 17.20847368575621 21.919284862604858 7.293869340286397 0 0 1
991 1 47.506162382554606 17.17725667342323 15.623708744855463 0 0 0
2190 1 18.065548539587716 24.027412459894308 8.523032804355914 0 0 0
2709 1 21.761307717889384 22.66868210237808 7.046316939210915 0 0 0
611 1 25.209803103253627 22.253650394931636 9.06364588904466 0 0 0
1469 1 24.42400870000231 23.765578131134784 6.973731400938554 0 0 1
60 1 29.633919577165805 23.022409245720997 7.677014682798193 0 0 0
992 1 18.950922605995892 -0.08325485659983523 15.518332192771677 0 0 0
122 1 38.47570131647344 22.718726907890314 6.595789987324246 0 0 0
2141 1 43.31355106808781 22.39381536439856 6.476044326549792 0 0 0
1540 1 42.172284359323164 22.207295228318777 8.924075635130082 0 0 1
2185 1 47.24158535139381 24.419314590869828 6.620970981466168 0 0 0
371 1 39.026860701121876 -0.571174182537084 4.797861257423802 0 0 0
997 1 1.4212959272156622 1.0990919464649076 12.59324119913306 1 0 0
70 1 50.600731610971934 1.8894639069030315 11.140952979989326 -1 0 0
330 1 3.3666801476837485 0.7269771287125302 10.396289388293885 0 0 0
540 1 11.339519413672223 -0.4417353744482755 11.04102985503215 0 0 0
2110 1 9.136953862472275 1.15562009460001 11.36321097336279 0 1 0
3668 1 39.758487913736104 0.838022310351578 -0.6381175708616691 0 1 1
321 1 12.702379019280091 0.7688776170914211 8.801140043448648 0 0 0
2436 1 15.000020812906326 0.7149243498658622 14.264300929242276 0 1 0
416 1 17.110850738214175 2.0625394917311786 12.05186123253385 0 0 0
1262 1 19.92644138411596 2.487632963269875 11.911700579364622 0 0 0
571 1 21.54288036562874 1.811457199110729 9.745256616491453 0 0 0
315 1 23.82459224070924 1.065710922466501 11.052387929206066 0 0 0
810 1 26.40418531974837 1.5610739263171713 10.89485285426391 0 0 0
82 1 27.800691672867636 0.0931758887324935 12.700320080458875 0 0 0
620 1 29.96859038757319 1.2109239812318249 11.094648417201274 0 0 0
258 1 32.56080453870174 0.8952907469100244 12.549988824224377 0 0 0
696 1 35.031755717346904 -0.10900112925929628 11.61580273649468 0 0 0
202 1 37.12393426665753 1.5567780046204014 11.864235870783796 0 0 0
256 1 42.57362341718335 0.8274442595751879 11.093913194680626 0 0 0
1275 1 8.834021609632025 2.1719556916989573 15.77178244054399 0 0 0
2161 1 48.36493404503747 1.2867837591749192 12.557907572310008 -1 1 0
3089 1 -0.7582015625819523 4.5967161316717355 11.693878580411525 0 1 0
380 1 0.8907460809244601 5.242784860250213 9.654225841506177 0 0 0
591 1 3.6216401623260825 5.144665720914973 10.3322224540101 0 0 0