
# Create simulation box of size 50 x 50 x 50 Angstrom
#
lattice	            sc 1
Lattice spacing in x,y,z = 1.0000000 1.0000000 1.0000000
region 	            all block 0 50 0 50 0 50 units box
create_box          1 all
Created orthogonal box = (0.0000000 0.0000000 0.0000000) to (50.000000 50.000000 50.000000)
  1 by 2 by 3 MPI processor grid

# fill box with 4175 randomly distributed atoms
#
create_atoms        1 random 4175 63782 all
Created 4175 atoms
  create_atoms CPU = 0.001 seconds
mass                1 18.015

# Define potential
#
pair_style          sw
pair_coeff          * * ML_mW.sw mW
Reading sw potential file ML_mW.sw with DATE: 2019-02-27

# Run minimization
#
minimize            1.0e-8 1.0e-8 10000 1000
WARNING: Using 'neigh_modify every 1 delay 0 check yes' setting during minimization (../min.cpp:187)
Neighbor list info ...
  update every 1 steps, delay 0 steps, check yes
  max neighbors/atom: 2000, page size: 100000
  master list distance cutoff = 6.0032907
  ghost atom cutoff = 6.0032907
  binsize = 3.0016454, bins = 17 17 17
  1 neighbor lists, perpetual/occasional/extra = 1 0 0
  (1) pair sw, perpetual
      attributes: full, newton on
      pair build: full/bin/atomonly
      stencil: full/bin/3d
      bin: standard
Per MPI rank memory allocation (min/avg/max) = 4.255 | 4.258 | 4.261 Mbytes
Step Temp E_pair E_mol TotEng Press 
       0            0    7792709.3            0    7792709.3    5898794.3 
     630            0   -45180.336            0   -45180.336   -154.07449 
Loop time of 1.1523 on 6 procs for 630 steps with 4175 atoms

98.5% CPU use with 6 MPI tasks x no OpenMP threads

Minimization stats:
  Stopping criterion = max force evaluations
  Energy initial, next-to-last, final = 
      7792709.32924461  -45180.0188663597   -45180.336116598
  Force two-norm initial, final = 2.0191930e+08 4.9721331
  Force max component initial, final = 1.0948746e+08 0.73126211
  Final line search alpha, max atom move = 0.053306038 0.038980685
  Iterations, force evaluations = 630 1000

MPI task timing breakdown:
Section |  min time  |  avg time  |  max time  |%varavg| %total
---------------------------------------------------------------
Pair    | 0.87738    | 0.98298    | 1.0685     |   6.5 | 85.31
Neigh   | 0.023968   | 0.02469    | 0.025828   |   0.5 |  2.14
Comm    | 0.038093   | 0.12442    | 0.23124    |  18.4 | 10.80
Output  | 0          | 0          | 0          |   0.0 |  0.00
Modify  | 0          | 0          | 0          |   0.0 |  0.00
Other   |            | 0.02021    |            |       |  1.75

Nlocal:        695.833 ave         704 max         685 min
Histogram: 1 1 0 0 1 0 0 1 0 2
Nghost:        1494.17 ave        1515 max        1468 min
Histogram: 1 1 0 0 0 0 1 1 1 1
Neighs:        0.00000 ave           0 max           0 min
Histogram: 6 0 0 0 0 0 0 0 0 0
FullNghs:      19997.0 ave       20462 max       19320 min
Histogram: 1 1 0 0 0 0 0 2 0 2

Total # of neighbors = 119982
Ave neighs/atom = 28.738204
Neighbor list builds = 26
Dangerous builds = 0

# Add velocity/set timestep
#
velocity            all create ${TEMP} 120598 rot yes dist gaussian
velocity            all create 210 120598 rot yes dist gaussian
timestep            5.0

# Define output
#
compute	            1 all msd
thermo	            100
thermo_style        custom step temp press vol etotal ke pe c_1[4] density

# Neighbor lists
#
neigh_modify        delay 0 every 1 check yes

# Set fixes
#
fix                 1 all momentum 10 linear 1 1 1 rescale
fix                 2 all nve
fix                 3 all temp/csvr ${TEMP} ${TEMP} 500.0 928347
fix                 3 all temp/csvr 210 ${TEMP} 500.0 928347
fix                 3 all temp/csvr 210 210 500.0 928347
fix                 4 all press/berendsen iso ${PRES} ${PRES} 1000.0 modulus 20000
fix                 4 all press/berendsen iso -1000 ${PRES} 1000.0 modulus 20000
fix                 4 all press/berendsen iso -1000 -1000 1000.0 modulus 20000

# Run 0.5 ns equilibration
#
dump                1 all custom 1000 eq.${NAME}.dump id type x y z vx vy vz
dump                1 all custom 1000 eq.liquid_density_MLmW.dump id type x y z vx vy vz
run                 100000
Per MPI rank memory allocation (min/avg/max) = 3.506 | 3.508 | 3.511 Mbytes
Step Temp Press Volume TotEng KinEng PotEng c_1[4] Density 
     630          210    801.42152       125000   -42567.537    2612.7992   -45180.336 2.7295415e-33   0.99914793 
     700    134.23919   -765.83789    126358.96   -41753.688    1670.1907   -43423.879   0.24772683   0.98840231 
     800    165.69042   -1042.4471     126928.2   -41014.349    2061.5039   -43075.853   0.56018104   0.98396963 
     900    184.24871   -942.60614    127179.99   -40586.727    2292.4043   -42879.132   0.92151722   0.98202152 
    1000    191.99869   -975.85219    127552.57   -40319.329    2388.8287   -42708.157    1.2672743   0.97915306 
    1100    202.12525   -929.84847    127974.72   -40142.933    2514.8224   -42657.755    1.5584415   0.97592318 
    1200    201.81644   -759.70716    128145.97   -40191.662    2510.9802   -42702.643    1.8941249   0.97461894 
    1300     203.5178   -835.41005    128476.47    -40175.02    2532.1484   -42707.169    2.2917598   0.97211176 
    1400    206.49837   -1002.0838    128684.87   -40196.731    2569.2323   -42765.963    2.6358922   0.97053747 
    1500    209.56591   -1001.0629     128864.7   -40167.952    2607.3983    -42775.35    2.9108988   0.96918315 
    1600    211.85519   -927.36385    129031.68   -40099.744    2635.8813   -42735.626    3.1249556    0.9679289 
    1700    212.48232   -734.89348    129343.33   -40141.472    2643.6841   -42785.157     3.399761   0.96559671 
    1800    206.53214   -994.64623     129330.1   -40257.433    2569.6524   -42827.085    3.5933035   0.96569545 
    1900    210.93259   -869.00658    129372.33   -40278.587    2624.4024   -42902.989     3.859634   0.96538025 
    2000    209.15019   -841.86246    129529.23   -40248.331     2602.226   -42850.556    4.2000842   0.96421086 
    2100    215.51069   -999.02634    129595.81   -40224.076    2681.3627   -42905.439    4.3592621   0.96371547 
    2200    212.24353   -1101.0682    129746.71   -40267.961     2640.713   -42908.674    4.6128876   0.96259466 
    2300    211.98749   -925.41981    129980.86   -40270.711    2637.5274   -42908.239    4.7738448    0.9608606 
    2400    213.81233   -983.72873    130218.29   -40302.129    2660.2319   -42962.361    4.9628607   0.95910867 
    2500    214.89571   -945.84691    130337.61   -40292.813    2673.7112   -42966.524    5.2241248   0.95823062 
    2600    216.50568   -1022.0062    130485.11   -40269.344    2693.7423   -42963.086    5.5336971   0.95714742 
    2700     216.1794   -1116.6551    130594.29   -40334.169    2689.6827   -43023.852    5.7892772   0.95634725 
    2800    217.84902   -1052.7032    130796.73   -40346.834     2710.456    -43057.29     6.074256   0.95486706 
    2900    212.24179   -872.82819    130834.79   -40436.651    2640.6914   -43077.343    6.3055445   0.95458927 
    3000    216.06527   -1115.9584    130925.48   -40490.996    2688.2627   -43179.259    6.4475371   0.95392805 
    3100    210.21317   -873.27038    131059.21   -40469.735    2615.4514   -43085.187    6.4333052   0.95295474 
    3200    211.10942   -1145.0095    131236.12   -40540.686    2626.6026   -43167.289    6.5267448   0.95167007 
    3300    212.27081   -925.70353    131490.48   -40559.088    2641.0524   -43200.141    6.8310246   0.94982916 
    3400    211.94358   -1151.8931    131604.54   -40607.311    2636.9811   -43244.292    6.9420104   0.94900591 
    3500    214.39407   -1039.3839     131575.7   -40663.975    2667.4699   -43331.444    7.1298147   0.94921399 
    3600    214.16007   -1093.6942    131551.38   -40720.057    2664.5584   -43384.615    7.2686985   0.94938946 
    3700    206.83854   -1019.0944    131588.32    -40784.84    2573.4647   -43358.305    7.3677199   0.94912296 
    3800     208.6255   -926.81184    131762.14   -40728.314    2595.6979   -43324.012    7.4686597   0.94787083 
    3900    208.00432   -912.01026    131947.24   -40765.728    2587.9692   -43353.697    7.5819631   0.94654111 
    4000    210.17856   -975.31635    132126.83   -40762.984    2615.0208   -43378.005    7.6781987   0.94525459 
    4100    212.15028   -1055.4748     132127.8   -40753.863    2639.5528   -43393.416    7.8533231   0.94524763 
    4200    212.89183    -997.7098    132071.86   -40779.172    2648.7791   -43427.951    7.9479422   0.94564803 
    4300    208.32895   -921.08245     131998.7   -40802.476    2592.0082   -43394.484    8.0874408   0.94617214 
    4400    208.77864   -1066.4772     132192.2   -40796.349    2597.6032   -43393.952    8.2656409   0.94478715 
    4500    207.15712   -846.84375    132313.82   -40812.343    2577.4284   -43389.771    8.3206497   0.94391869 
    4600    207.34712   -1038.7764    132286.88   -40878.461    2579.7924   -43458.253    8.3698894   0.94411093 
    4700    209.36914     -933.471    132273.31   -40803.607    2604.9502   -43408.557    8.4631136   0.94420782 
    4800    208.23735   -846.51676    132322.84    -40869.48    2590.8685   -43460.349    8.5831064   0.94385436 
    4900    210.38546   -1049.5133    132442.86   -40770.199    2617.5951   -43387.794    8.7016705   0.94299907 
    5000    217.70012   -1049.2912    132579.93   -40735.406    2708.6034   -43444.009    8.7863425   0.94202413 
    5100    213.69834   -910.35036    132802.23   -40812.737    2658.8136    -43471.55    8.9117935   0.94044724 
    5200    212.56187   -828.12555    133029.42   -40880.479    2644.6737   -43525.153    8.9375524   0.93884114 
    5300    213.18498   -1051.2245    132849.36   -40884.817    2652.4264   -43537.243    8.9819492    0.9401136 
    5400    208.56049   -953.20954    133004.94   -40929.359     2594.889   -43524.248    9.1145225   0.93901392 
    5500    212.12997   -1039.2165    133141.22   -40947.434    2639.3001   -43586.734    9.1312822   0.93805276 
    5600    211.46757   -714.57153    133311.01   -40951.821    2631.0586   -43582.879    9.2045059   0.93685805 
    5700    210.97468   -1048.2795    133493.64   -40951.324    2624.9261    -43576.25    9.5203725   0.93557635 
    5800    210.65092   -977.45441    133588.45   -40984.891    2620.8979   -43605.789    9.6197842   0.93491235 
    5900    210.54287   -1125.2731    133828.27   -41018.271    2619.5536   -43637.825    9.7180006   0.93323696 
    6000    208.52482   -913.81692    133795.61   -41024.542    2594.4452   -43618.987    9.8569749   0.93346479 
    6100    213.26579   -1187.0749     133642.4    -40964.42    2653.4319   -43617.852    9.7785477   0.93453491 
    6200    204.52096   -1082.8267     133550.5    -41017.79    2544.6296    -43562.42    9.8950262   0.93517802 
    6300    214.71322   -1043.0297    133609.63    -40988.15    2671.4407   -43659.591    9.9650853   0.93476414 
    6400     215.6892   -978.34917    133562.88    -40971.58    2683.5837   -43655.164    9.9436845   0.93509136 
    6500    209.28455   -889.41467     133643.6   -40922.623    2603.8977   -43526.521     10.16615   0.93452652 
    6600    205.90551   -885.35173    133658.68   -40992.237     2561.856   -43554.093    10.148038   0.93442111 
    6700    205.22502   -901.80879    133894.06   -41064.181    2553.3895    -43617.57    10.233571    0.9327784 
    6800    209.77165   -911.10222    133959.98   -40988.337    2609.9581   -43598.295    10.494372    0.9323194 
    6900    216.80598   -947.06756    134103.06   -40941.831    2697.4786    -43639.31    10.525598   0.93132472 
    7000    210.52309   -1108.5154     134092.4   -40961.322    2619.3074   -43580.629    10.409319   0.93139872 
    7100    210.05733   -1080.2182    134085.43   -40990.956    2613.5126   -43604.469    10.476499   0.93144718 
    7200    208.28143   -1023.2929    133958.91   -41054.535    2591.4169   -43645.952    10.521427   0.93232686 
    7300    206.81025   -919.14989    133981.82   -41118.252    2573.1127   -43691.365    10.516698   0.93216742 
    7400    206.47017   -1098.5737    134095.76   -41140.419    2568.8814     -43709.3    10.665859   0.93137541 
    7500    206.77959   -1025.2591    134062.96   -41111.662    2572.7312   -43684.394    10.775358   0.93160326 
    7600     202.6765   -865.24013    134030.08   -41192.022     2521.681   -43713.703    10.790765   0.93183182 
    7700    210.74254   -1086.3576    133963.64   -41099.639    2622.0378   -43721.677    10.835648   0.93229393 
    7800     213.4311   -1022.4252    133873.53   -41078.156    2655.4886   -43733.644    10.742339   0.93292148 
    7900    206.53981   -1165.8037    133943.58   -41150.088    2569.7479   -43719.835    10.801173   0.93243356 
    8000    210.36386   -962.77053    133957.01   -41115.043    2617.3264   -43732.369    10.843393   0.93234007 
    8100    204.41505   -1018.8947    133918.67   -41182.886    2543.3118   -43726.197    10.826235   0.93260699 
    8200    206.71245    -1102.965    133755.65   -41208.131    2571.8959   -43780.027    10.985923   0.93374366 
    8300    205.78134   -1081.9713    133819.67    -41189.65    2560.3111   -43749.961    10.955539   0.93329695 
    8400    209.67095   -892.09547    134002.02   -41145.906    2608.7052   -43754.611    11.128138   0.93202692 
    8500    209.27339   -1000.7969    133874.47    -41076.63    2603.7589   -43680.389    11.206701   0.93291492 
    8600    215.52069   -931.07192    133926.26   -41104.988    2681.4871   -43786.475    11.165207   0.93255419 
    8700    211.31016   -958.31949    133960.28   -41090.108    2629.1001   -43719.208    11.135947   0.93231732 
    8800    212.59229   -821.18467    134186.17   -41121.418    2645.0522    -43766.47    11.159367   0.93074785 
    8900    207.66817    -1015.596    134246.01   -41196.665    2583.7868   -43780.452    11.286664   0.93033295 
    9000    213.00035   -865.35144    134350.85   -41142.972    2650.1294   -43793.102    11.277445   0.92960699 
    9100    205.55973   -1120.1607    134236.07   -41214.012    2557.5539   -43771.566    11.452315   0.93040184 
    9200    208.94891   -945.18974    134260.65    -41128.94    2599.7217   -43728.662    11.597074   0.93023151 
    9300    210.56413   -887.10957    134340.07     -41170.5    2619.8181   -43790.319    11.630248   0.92968158 
    9400    208.93183   -1162.8066    134254.93   -41130.188    2599.5092   -43729.697    11.655445   0.93027121 
    9500    211.58439   -1032.8299    134066.95   -41155.625     2632.512   -43788.137    11.627324   0.93157557 
    9600    212.48807   -960.31356    134019.69   -41129.611    2643.7555   -43773.367    11.703925   0.93190404 
    9700    210.58935   -1126.1684    133945.66   -41072.339    2620.1319   -43692.471    11.784497   0.93241911 
    9800    210.66678   -1029.7322     133994.6   -41146.768    2621.0952   -43767.863    11.717623   0.93207856 
    9900    206.46749   -1039.9565    134037.12   -41216.543    2568.8481   -43785.391    11.785308   0.93178288 
   10000    206.77482   -1147.9821    133903.39   -41221.403    2572.6719   -43794.075    11.913802   0.93271346 
   10100    208.18623   -807.46606    134030.02   -41185.031    2590.2325   -43775.263    11.975692   0.93183223 
   10200    210.48447    -1095.085       134116   -41254.385     2618.827   -43873.212    12.167257   0.93123483 
   10300     207.1222   -1065.6647    134281.47   -41249.119     2576.994   -43826.113    12.236803   0.93008731 
   10400    212.41782   -960.79483     134593.9   -41192.662    2642.8815   -43835.544    12.151447   0.92792829 
   10500    208.80877   -1030.3228    134364.09    -41186.49    2597.9781   -43784.468    12.254622   0.92951543 
   10600    210.96707   -1026.5485    134489.16   -41129.611    2624.8315   -43754.442     12.32399   0.92865101 
   10700    212.71583   -1071.3912    134349.13   -41127.398    2646.5893   -43773.987     12.41397   0.92961891 
   10800    210.74941   -912.23298    134235.75   -41115.447    2622.1233   -43737.571    12.480371   0.93040411 
   10900    213.80908   -1034.8917    134472.86   -41132.824    2660.1915   -43793.016    12.506709   0.92876354 
   11000    212.97827   -1144.9928    134461.33   -41131.208    2649.8546   -43781.062    12.527182   0.92884318 
   11100    209.36477   -962.93948    134517.27   -41175.018    2604.8958   -43779.914    12.499849   0.92845695 
   11200    206.45771   -1042.3775     134424.5    -41181.08    2568.7265   -43749.806    12.513294   0.92909768 
   11300    215.01956   -1112.1808    134445.85   -41183.946    2675.2521   -43859.198    12.717038   0.92895011 
   11400    206.48743   -938.05272    134501.99   -41196.143    2569.0962   -43765.239    12.824469   0.92856239 
   11500    208.13331   -901.96656     134482.7   -41232.929    2589.5741   -43822.504    12.887324   0.92869558 
   11600    211.11703   -1100.6289    134340.85   -41240.826    2626.6973   -43867.524    12.893423   0.92967617 
   11700    211.14974   -915.41299    134430.35   -41141.639    2627.1042   -43768.743    13.137679   0.92905726 
   11800    209.93982   -1077.1218    134452.01   -41210.323    2612.0505   -43822.374    13.062787   0.92890756 
   11900    211.37288   -958.86838    134546.63   -41221.212    2629.8804   -43851.092    13.022165   0.92825435 
   12000    204.47243    -1021.984     134654.5   -41229.003    2544.0258   -43773.028    13.284628   0.92751074 
   12100    210.73883   -1026.2062     134634.9   -41198.935    2621.9917   -43820.927    13.259546   0.92764575 
   12200     210.6711   -1061.5204    134611.53   -41215.333     2621.149   -43836.482    13.324213   0.92780677 
   12300    212.06741   -1044.0111    134602.54   -41238.964    2638.5218   -43877.486    13.404772   0.92786873 
   12400    209.57809   -931.24374    134682.13   -41232.083    2607.5498   -43839.633    13.329075   0.92732043 
   12500    209.11021   -1011.8906    134791.05   -41329.412    2601.7285   -43931.141    13.384336   0.92657109 
   12600    213.41084   -1053.2128     134618.7   -41254.272    2655.2366   -43909.508     13.55663   0.92775735 
   12700    209.43272   -1049.4204    134741.63   -41229.144    2605.7412   -43834.885    13.604801   0.92691095 
   12800    211.38139   -1058.2219    134793.04   -41204.953    2629.9863    -43834.94    13.790046   0.92655742 
   12900    211.82971   -950.98074    134757.86   -41263.677    2635.5644   -43899.241    13.781437   0.92679931 
   13000    210.36638   -955.31508    134647.64   -41221.039    2617.3577   -43838.396    13.778086   0.92755798 
   13100    214.65695   -1013.2817    134791.88   -41222.605    2670.7405   -43893.345    13.791748   0.92656541 
   13200    213.96098   -992.96999    134921.64   -41148.029    2662.0814   -43810.111    13.773485   0.92567428 
   13300    209.37374   -1084.0263    134885.69   -41187.557    2605.0074   -43792.565    13.901442   0.92592096 
   13400    209.61595   -1002.3489    135009.94   -41263.761    2608.0209   -43871.782    13.841266   0.92506889 
   13500    210.07857   -1021.5926    134940.68   -41310.036    2613.7768   -43923.813     13.92375   0.92554366 
   13600    211.39081   -1039.3857    134885.93   -41335.338    2630.1036   -43965.442    13.875597   0.92591937 
   13700    206.52056   -988.04429    134849.15   -41337.117    2569.5084   -43906.626    13.933092   0.92617188 
   13800    207.75087   -1121.4096    134729.92   -41258.991    2584.8158   -43843.807    13.956194   0.92699149 
   13900    213.18998   -1118.3051    134803.04   -41291.521    2652.4886    -43944.01     13.95213    0.9264887 
   14000    211.84161   -923.02967    134852.44   -41289.832    2635.7124   -43925.545    14.048707   0.92614928 
   14100    210.50258    -1082.866    134904.56   -41297.686    2619.0523   -43916.738    13.976834   0.92579145 
   14200    206.11528   -891.95334    134818.11   -41345.147    2564.4659   -43909.613    14.118997   0.92638511 
   14300    206.95493   -988.38554    134984.82   -41391.437    2574.9128    -43966.35    14.260352   0.92524099 
   14400    210.53776   -985.54085    135063.63   -41366.998    2619.4899   -43986.488    14.304396   0.92470115 
   14500    208.15973   -917.50966     134932.5   -41323.267    2589.9028    -43913.17     14.23293   0.92559979 
   14600    214.23249   -933.40542    134788.05   -41338.477    2665.4595   -44003.937    14.164859   0.92659175 
   14700    209.07108   -1070.8794    134924.05   -41380.931    2601.2417   -43982.173    14.291348   0.92565774 
   14800    207.79414   -1034.0074    134966.72   -41422.731    2585.3541   -44008.085    14.288268   0.92536511 
   14900    205.30574   -1031.0343    134873.07    -41508.17    2554.3938   -44062.564    14.358037    0.9260076 
   15000    205.75049   -998.97416     134857.4   -41507.024    2559.9273   -44066.951    14.391572    0.9261152 
   15100    205.13442   -1027.4146    134922.87   -41525.538    2552.2621     -44077.8    14.494675   0.92566583 
   15200    212.40499   -912.73014    135039.03   -41458.248    2642.7219   -44100.969    14.404328   0.92486955 
   15300    207.25056   -1086.8151    135211.27    -41472.44    2578.5909   -44051.031     14.45568   0.92369144 
   15400    205.67443   -1060.4044    135114.32   -41464.931    2558.9809   -44023.912    14.459159   0.92435419 
   15500    212.23177   -819.62572    135036.45   -41448.086    2640.5667   -44088.652    14.523194   0.92488722 
   15600    209.83707   -974.76673     135178.7   -41385.434     2610.772   -43996.206    14.666518   0.92391399 
   15700    207.26794   -943.18873    135234.44   -41467.697    2578.8073   -44046.504    14.570321   0.92353316 
   15800    207.71592   -939.26006    135156.72   -41469.246    2584.3809   -44053.626    14.514154   0.92406424 
   15900    204.32625   -1021.7555     135205.4   -41503.805     2542.207   -44046.012    14.477136   0.92373156 
   16000    209.12423   -976.05815    135130.49   -41447.948     2601.903   -44049.851    14.481579   0.92424362 
   16100    207.86879   -1060.0249    135250.58   -41400.632    2586.2829   -43986.915    14.564472   0.92342295 
   16200    204.69734   -1000.4506    135114.19   -41455.201     2546.824   -44002.025    14.563385   0.92435513 
   16300    208.61448   -950.94961    135323.89   -41469.706    2595.5607   -44065.267    14.659441   0.92292273 
   16400    213.34581   -1131.1093    135255.18   -41386.802    2654.4275    -44041.23    14.652723   0.92339154 
   16500    208.98256   -952.39638    135212.94   -41382.249    2600.1403   -43982.389    14.672966      0.92368 
   16600    213.81216   -852.06681    135306.84   -41369.861    2660.2298   -44030.091    14.691098   0.92303901 
   16700    209.14108   -997.57862    135336.43   -41394.984    2602.1127   -43997.097    14.687205   0.92283722 
   16800    216.63809   -1004.9708    135255.56   -41389.315    2695.3897   -44084.705    14.670209   0.92338898 
   16900    209.54597   -1043.4269    135364.63    -41350.19    2607.1502    -43957.34    14.795859   0.92264495 
   17000    212.03344   -983.84187    135231.59   -41372.526    2638.0992   -44010.625     14.87921   0.92355262 
   17100     210.3077   -1229.8786    135352.24   -41298.409    2616.6276   -43915.037    14.892884   0.92272939 
   17200    215.86425   -940.22874    135242.13   -41305.862    2685.7617   -43991.624    14.920882   0.92348064 
   17300    213.08388   -908.87001    135332.56   -41367.673    2651.1686   -44018.841    14.916248    0.9228636 
   17400    209.30875   -918.45818    135454.46   -41394.925    2604.1988   -43999.124    14.909475   0.92203305 
   17500     210.5229   -1039.7826    135517.23   -41388.085    2619.3051    -44007.39    15.052086   0.92160602 
   17600    211.13006    -989.1282    135313.15   -41378.132    2626.8593   -44004.991    15.003699   0.92299598 
   17700    210.96527   -1141.8932    135389.28   -41401.501     2624.809    -44026.31    14.971093   0.92247694 
   17800    212.43465   -998.66479    135376.77   -41410.918    2643.0909   -44054.009    14.932647   0.92256222 
   17900    210.88159   -1085.5397    135371.32   -41380.438    2623.7679   -44004.206    14.951532   0.92259932 
   18000    210.86659   -1056.6874    135393.49   -41328.862    2623.5813   -43952.444    15.023811   0.92244825 
   18100    210.66544   -927.81645    135373.54   -41429.483    2621.0786   -44050.562    15.091561   0.92258418 
   18200    207.21814   -983.71012    135306.55   -41431.241    2578.1876   -44009.428    15.195703   0.92304102 
   18300    213.14888   -1075.2634    135113.82   -41366.039    2651.9773   -44018.017    15.210163   0.92435762 
   18400    214.94066   -944.11293    135114.56   -41432.037    2674.2704   -44106.307    15.140867    0.9243526 
   18500    213.52871    -937.3948    134996.61   -41411.674     2656.703   -44068.378    15.165828   0.92516019 
   18600      206.681   -1078.0723    135164.78   -41463.066    2571.5046    -44034.57    15.145232   0.92400916 
   18700    209.86424   -1071.2231       135248   -41440.592    2611.1101   -44051.702    15.228089   0.92344056 
   18800    213.99254   -1114.1138    135143.74   -41419.728    2662.4741   -44082.202    15.211097   0.92415296 
   18900    211.07523   -1021.0061    135093.06   -41464.413    2626.1771    -44090.59    15.233329   0.92449965 
   19000    211.32686   -933.48181    135150.73   -41443.142    2629.3079    -44072.45    15.379219   0.92410517 
   19100    213.07958   -860.08052    135147.46    -41497.22    2651.1151   -44148.335    15.441398   0.92412756 
   19200    214.61351   -962.35809    135060.48   -41467.336    2670.2001   -44137.536    15.316295   0.92472267 
   19300     214.3563   -949.00978    135119.12   -41408.052    2666.9999   -44075.052    15.342845   0.92432139 
   19400    211.12335     -880.411    135179.79   -41413.749    2626.7759   -44040.525    15.455126   0.92390655 
   19500    211.76841   -955.93414    135226.04    -41413.64    2634.8017   -44048.442    15.482287   0.92359057 
   19600    212.07287   -1066.8657    135183.21    -41464.14    2638.5897   -44102.729    15.390286   0.92388318 
   19700    212.92694   -1108.9797    135200.72   -41458.639     2649.216   -44107.854    15.322533   0.92376352 
   19800    210.20852   -968.00997    135168.71   -41498.356    2615.3936   -44113.749    15.403625   0.92398223 
   19900    211.25034   -922.72148    135187.96   -41494.954    2628.3559    -44123.31    15.564302   0.92385073 
   20000      214.319   -1067.1352    135216.92   -41534.313    2666.5358   -44200.849    15.636358   0.92365281 
   20100    209.90701   -1023.4076    135292.79   -41484.563    2611.6423   -44096.205    15.566121   0.92313486 
   20200    208.83076   -1003.7226     135254.1   -41516.646    2598.2516   -44114.898    15.486679   0.92339894 
   20300    207.45559   -1006.8277    135064.46   -41541.429    2581.1419   -44122.571    15.502438   0.92469544 
   20400    211.06398   -1009.3721    135118.24   -41529.304    2626.0372   -44155.342    15.545033   0.92432737 
   20500    211.79945    -963.9201    135120.05   -41505.909    2635.1879   -44141.096    15.541755   0.92431505 
   20600    207.61176   -1125.4029    135208.57   -41535.154     2583.085   -44118.239    15.634148    0.9237099 
   20700    211.03213   -993.86965    135256.95   -41481.372    2625.6409   -44107.013     15.71953   0.92337947 
   20800     207.6124   -1011.8321    135189.35   -41479.022     2583.093   -44062.115    15.753079   0.92384119 
   20900    209.69346   -973.94086    135401.04   -41514.877    2608.9853   -44123.862    15.669835   0.92239684 
   21000    206.32157   -1068.5428    135388.13   -41595.801    2567.0325   -44162.834    15.594945   0.92248476 
   21100    208.12051   -1053.6779    135560.66   -41612.788    2589.4148   -44202.202    15.705374    0.9213107 
   21200     204.6698    -1007.362    135648.25   -41591.933    2546.4814   -44138.414    15.876969   0.92071582 
   21300    209.72972   -939.52517    135460.19   -41603.049    2609.4364   -44212.486    15.923497   0.92199406 
   21400    212.52088    -1040.756    135612.68   -41566.254    2644.1638   -44210.418    15.867655    0.9209573 
   21500    211.31974   -972.05359    135615.19    -41559.58    2629.2193   -44188.799     15.93621    0.9209403 
   21600    207.26458    -966.0498    135565.59   -41506.699    2578.7654   -44085.464    16.008716   0.92127725 
   21700    212.63142   -1015.6832    135647.84   -41472.431    2645.5391    -44117.97    16.042224   0.92071859 
   21800    208.97277   -1157.3189    135714.14   -41452.156    2600.0185   -44052.175    15.990511   0.92026885 
   21900    207.71252   -953.56646    135731.42   -41466.769    2584.3386   -44051.107    15.963561   0.92015169 
   22000     209.0407   -1062.9188    135668.77   -41507.538    2600.8638   -44108.402    16.154172   0.92057657 
   22100    211.82989     -1094.05    135633.39    -41462.43    2635.5665   -44097.997    16.149482   0.92081674 
   22200    214.07044   -818.87827    135543.04   -41499.961    2663.4433   -44163.404    16.048315   0.92143051 
   22300    212.50229   -950.53943    135414.08   -41490.276    2643.9324   -44134.209    15.882804   0.92230802 
   22400    209.88999   -939.50826    135425.49   -41460.632    2611.4305   -44072.063    16.055151   0.92223031 
   22500    214.68776   -1056.0561    135538.26   -41481.723    2671.1239   -44152.847    16.094249   0.92146296 
   22600    215.00974   -947.94323    135625.74   -41456.855    2675.1299   -44131.985    16.189155   0.92086866 
   22700    208.61774   -1105.3781    135539.99   -41476.229    2595.6013    -44071.83     16.23887   0.92145124 
   22800    211.83522   -1050.6214    135586.51    -41452.06    2635.6329   -44087.693    16.177964    0.9211351 
   22900    211.91674   -1057.5319    135457.89   -41503.859    2636.6471   -44140.506     16.11763   0.92200969 
   23000    209.51156   -937.97654    135454.44   -41484.701    2606.7221   -44091.423    16.185126   0.92203318 
   23100    207.35041   -1015.4365    135581.83   -41589.891    2579.8333   -44169.724    16.334956    0.9211669 
   23200    211.20501   -1008.7185    135448.51   -41542.564    2627.7919   -44170.356    16.311943   0.92207359 
   23300    209.57909   -1008.7868    135543.23   -41585.821    2607.5623   -44193.383    16.384555   0.92142922 
   23400    214.44171   -893.89302    135555.18    -41517.44    2668.0625   -44185.503    16.422244   0.92134797 
   23500     207.8982   -993.87722    135696.19    -41558.62    2586.6488   -44145.269    16.481581   0.92039057 
   23600    209.07308   -1033.3173    135655.72   -41543.111    2601.2666   -44144.378     16.46303   0.92066514 
   23700    208.45737   -1091.3709    135669.88   -41577.135     2593.606   -44170.741    16.468981   0.92056907 
   23800    204.64633   -966.78917    135748.04    -41622.01    2546.1894   -44168.199    16.480399   0.92003903 
   23900    210.62872   -1060.6104    135647.94   -41631.366    2620.6217   -44251.988    16.540909   0.92071792 
   24000    209.73071    -1055.269       135624   -41555.804    2609.4488   -44165.253    16.640248   0.92088047 
   24100    209.12109   -1104.8381    135655.59   -41565.949    2601.8639   -44167.813    16.576119     0.920666 
   24200    207.69427   -1024.2235    135576.77   -41626.363    2584.1115   -44210.474    16.762377   0.92120127 
   24300    213.66011   -1044.0639    135578.38   -41601.579     2658.338   -44259.917    16.779509   0.92119029 
   24400    206.69219   -1021.1962     135600.6   -41644.268    2571.6438   -44215.912    16.711151   0.92103934 
   24500    213.12367   -1031.8424    135712.19   -41602.343    2651.6637   -44254.007    16.713189   0.92028203 
   24600    208.83124   -947.37091    135581.72   -41579.855    2598.2576   -44178.113    16.722833    0.9211676 
   24700      205.054   -1026.8795    135516.16    -41597.31    2551.2616   -44148.572    16.756543   0.92161326 
   24800    210.64835   -1018.1405    135574.01   -41588.484    2620.8659    -44209.35     16.74024      0.92122 
   24900     209.6165   -995.11425    135607.48   -41542.188    2608.0278   -44150.216    16.884745   0.92099266 
   25000    209.53864   -1059.6624    135592.09   -41520.437     2607.059   -44127.496    16.886409   0.92109715 
   25100    212.22281   -977.83099    135599.33    -41521.88    2640.4552   -44162.335    16.812279   0.92104798 
   25200    206.09928    -1131.073     135465.9   -41566.484    2564.2669   -44130.751    16.792185   0.92195522 
   25300    209.46687    -941.0068    135529.88    -41576.54    2606.1661   -44182.706    16.830406      0.92152 
   25400    208.25345   -1097.2054    135476.54   -41569.141    2591.0688    -44160.21    16.836927   0.92188277 
   25500    208.08687   -1009.5424    135612.95   -41530.726    2588.9963   -44119.722    16.900984    0.9209555 
   25600    207.23265   -1004.4041    135642.28   -41611.087    2578.3681   -44189.455     17.09025   0.92075637 
   25700    207.91877   -970.59333     135735.8    -41624.07    2586.9048   -44210.975    16.983172   0.92012198 
   25800    209.88806   -984.44869    135740.57   -41600.335    2611.4064   -44211.741    16.997039   0.92008962 
   25900    208.97355    -1087.898    135717.33   -41550.664    2600.0282   -44150.692    17.090571   0.92024721 
   26000    213.13709   -995.91071    135667.37   -41485.851    2651.8306   -44137.681    17.175119   0.92058605 
   26100    210.97382   -982.91882    135879.08    -41568.55    2624.9155   -44193.465    17.070922   0.91915173 
   26200    209.69707   -1028.2288    135833.56   -41570.281    2609.0302   -44179.312    16.936895   0.91945978 
   26300    213.90235   -889.47829    135803.42    -41550.01    2661.3519   -44211.362     17.10775   0.91966381 
   26400    210.09169   -885.63686    135826.73    -41543.19      2613.94    -44157.13    17.147252     0.919506 
   26500    210.71626   -1048.2165     135859.8   -41591.391    2621.7108   -44213.102    17.229576   0.91928216 
   26600    209.59696   -1040.6026    135737.66   -41641.443    2607.7846   -44249.228    17.206394   0.92010938 
   26700     206.8541   -948.44452    135804.98   -41657.633    2573.6582   -44231.292    17.299913   0.91965325 
   26800    208.46086   -924.12073    135785.11   -41588.942    2593.6494   -44182.591    17.263783   0.91978786 
   26900    211.47733   -733.87736    135908.38   -41589.414      2631.18   -44220.594    17.256616   0.91895356 
   27000    207.35471   -1055.7047    135921.04   -41635.023    2579.8868    -44214.91    17.372016   0.91886799 
   27100    209.93962   -1078.7438    135830.35   -41643.868     2612.048   -44255.916    17.286865   0.91948146 
   27200    204.62781   -981.41688    135802.87   -41656.332     2545.959   -44202.291    17.403888   0.91966753 
   27300    207.95397   -1037.6155    136013.26   -41667.728    2587.3427   -44255.071    17.415255   0.91824495 
   27400    209.05711   -984.88309     136030.5   -41614.483    2601.0679   -44215.551    17.421622   0.91812861 
   27500    211.69092   -1134.9031    136088.46   -41561.391    2633.8375   -44195.229    17.493735   0.91773758 
   27600    212.87978   -930.64349    136001.81   -41606.695    2648.6291   -44255.324    17.580415   0.91832227 
   27700    211.60093    -1016.183    136050.79   -41615.015    2632.7179   -44247.733    17.568581   0.91799168 
   27800    213.50376   -1002.6631    136028.95   -41555.835    2656.3927   -44212.228    17.533336   0.91813906 
   27900    211.97632   -1091.3598     136045.2   -41587.542    2637.3885   -44224.931    17.422742   0.91802936 
   28000     209.6624   -972.72911    135926.47   -41619.321    2608.5989    -44227.92    17.378314   0.91883125 
   28100    210.06427   -988.56827    135852.47   -41604.674    2613.5988   -44218.272    17.241384   0.91933179 
   28200    210.46696   -916.36967    135889.38   -41646.751    2618.6091    -44265.36    17.402916   0.91908209 
   28300    209.94964   -915.91781    135888.93   -41641.747    2612.1727    -44253.92    17.550274    0.9190851 
   28400    208.74493     -994.252    135923.23   -41673.211    2597.1838   -44270.395     17.54608   0.91885316 
   28500    208.09435   -1044.1587    135841.37   -41693.789    2589.0894   -44282.878    17.502469   0.91940686 
   28600    211.52037   -971.12169    135983.99    -41631.81    2631.7155   -44263.526    17.518516   0.91844258 
   28700    206.71817   -923.17029    136128.78   -41618.771     2571.967   -44190.737    17.508654   0.91746572 
   28800    208.45062   -911.36696    136228.43   -41581.249     2593.522   -44174.771    17.611279    0.9167946 
   28900    212.39128   -1120.2457    136114.39   -41558.857    2642.5513   -44201.408    17.703654   0.91756276 
   29000    209.48781   -1075.6979    136175.02   -41625.125    2606.4267   -44231.552    17.611044   0.91715419 
   29100    209.45205   -1113.2054    136165.24   -41573.222    2605.9817   -44179.204    17.542198   0.91722006 
   29200    209.79591   -1075.1001     136060.9   -41547.791    2610.2599   -44158.051    17.563348   0.91792344 
   29300    210.12451   -885.25692     135986.3   -41613.131    2614.3484   -44227.479    17.669918   0.91842701 
   29400    207.14521   -928.21286     136096.7   -41665.423    2577.2802   -44242.703    17.748471   0.91768199 
   29500    205.73394   -982.03864    136180.23   -41689.593    2559.7213   -44249.315    17.829098   0.91711909 
   29600     209.3647   -946.16247    136063.05   -41618.809    2604.8949   -44223.704    17.725271   0.91790896 
   29700    206.32849   -922.06666    136073.26   -41666.121    2567.1186    -44233.24    17.709129   0.91784004 
   29800    209.11428   -1028.9737    135971.74   -41649.028    2601.7792   -44250.807    17.659844   0.91852535 
   29900    212.29955   -948.71492    136122.35   -41695.723      2641.41   -44337.133    17.604524   0.91750905 
   30000    209.66185   -1054.9051    136188.86   -41670.873     2608.592   -44279.465    17.757934   0.91706097 
   30100    210.79834   -970.88581    136177.54   -41680.805    2622.7321   -44303.537    17.832273   0.91713725 
   30200    207.29822   -1102.7195    136186.83   -41699.004     2579.184   -44278.188    17.703175   0.91707465 
   30300    207.84605    -940.6322    136115.67   -41664.826         2586   -44250.826    17.830101   0.91755411 
   30400    210.83884    -985.9296    136105.43   -41643.274    2623.2361    -44266.51    17.878796   0.91762312 
   30500    210.93541   -940.92797    136169.76   -41640.596    2624.4375   -44265.033    17.914948   0.91718962 
   30600    211.39894   -1079.1774     136116.8   -41640.288    2630.2047   -44270.492    17.924997   0.91754651 
   30700    210.53181   -960.83649    136220.56   -41652.275    2619.4159   -44271.691    17.844937   0.91684756 
   30800    214.36359   -933.42938    136064.69    -41600.12    2667.0906   -44267.211    17.955377   0.91789785 
   30900     208.5497   -916.83357    136148.55   -41713.781    2594.7548   -44308.536    17.908798    0.9173325 
   31000    208.89225   -1051.0882    136112.16   -41751.776    2599.0167   -44350.793    17.955054   0.91757779 
   31100    208.39608   -1049.7011    136107.68   -41756.406    2592.8435   -44349.249    17.848911   0.91760794 
   31200    210.54933   -869.47408    136067.93   -41757.919     2619.634   -44377.553    17.992886   0.91787601 
   31300    213.49086   -1060.9871    136203.04    -41712.06    2656.2322   -44368.292     18.09728   0.91696549 
   31400    209.77231   -906.20018    136208.82   -41668.834    2609.9663     -44278.8    18.126194   0.91692663 
   31500    207.53787   -1017.7225    136217.76   -41714.298    2582.1656   -44296.464    18.189846   0.91686641 
   31600    209.59037   -992.29898    136028.71    -41637.68    2607.7027   -44245.383    18.081503   0.91814068 
   31700     209.8426   -1029.8759    136077.14   -41677.756    2610.8409   -44288.597    18.079502    0.9178139 
   31800    216.43644   -928.42046    136028.44   -41617.937    2692.8808   -44310.818    18.164957   0.91814251 
   31900    212.24603   -1051.6649    136014.51   -41609.278    2640.7441   -44250.023    18.141202   0.91823653 
   32000    210.78204   -980.71117    136052.96   -41605.944    2622.5293   -44228.473    18.100321   0.91797701 
   32100    208.40262    -994.7159    136209.11   -41617.692    2592.9248   -44210.617    18.059187   0.91692464 
   32200    214.81025   -909.85929    136298.72   -41628.556    2672.6479   -44301.204    18.140785   0.91632179 
   32300    212.52909   -1121.4636    136178.72   -41617.376     2644.266   -44261.642    18.118681   0.91712927 
   32400    208.15981   -957.26751    136085.72    -41688.36    2589.9038   -44278.264    18.116079   0.91775607 
   32500     210.2829   -1071.4498    136078.04   -41696.206    2616.3191   -44312.525    18.079958    0.9178078 
   32600    209.97044   -962.69314    136161.98   -41638.517    2612.4315   -44250.949    18.109859   0.91724205 
   32700    212.17243   -1004.5178    136095.94   -41695.979    2639.8284   -44335.807    18.122672    0.9176871 
   32800    206.89737    -985.9346    136168.77     -41729.5    2574.1966   -44303.697    18.188604    0.9171963 
   32900    207.46008   -977.72305    136223.31   -41727.597    2581.1978   -44308.795    18.075298   0.91682907 
   33000    208.18426   -972.56182    136296.34   -41784.345     2590.208   -44374.553    18.183553   0.91633783 
   33100    213.01932   -932.52756    136287.14    -41718.07    2650.3653   -44368.436    18.246023    0.9163997 
   33200    207.35217   -1139.7601    136117.35   -41753.365    2579.8552    -44333.22    18.216897    0.9175428 
   33300    212.12269   -925.85476    136101.25   -41691.633    2639.2095   -44330.843    18.230684   0.91765129 
   33400    208.31467   -951.17868    136263.23   -41767.673    2591.8305   -44359.503    18.231265   0.91656049 
   33500    211.55252   -1137.4784    136482.41   -41727.851    2632.1156   -44359.966    18.366996   0.91508853 
   33600    211.39667   -1029.7965    136349.37   -41704.414    2630.1765   -44334.591    18.339772    0.9159814 
   33700    208.03858   -983.51227    136342.56   -41690.481    2588.3955   -44278.876    18.359086   0.91602722 
   33800    210.53762   -948.24878    136304.22   -41675.012    2619.4882     -44294.5    18.369672   0.91628482 
   33900    209.77219     -909.448    136371.14   -41694.458    2609.9649   -44304.423    18.519355    0.9158352 
   34000    212.23662   -1085.8664    136375.37   -41662.033    2640.6271    -44302.66    18.463804   0.91580677 
   34100    207.78437   -969.59292    136264.49   -41702.505    2585.2326   -44287.738     18.31611   0.91655198 
   34200    206.34533   -1027.6041    136240.06   -41702.741    2567.3282   -44270.069    18.366867   0.91671635 
   34300    209.79725   -931.02327    136306.17    -41750.71    2610.2766   -44360.987    18.418827   0.91627176 
   34400      213.338   -1036.1156    136294.19   -41682.631    2654.3303   -44336.961    18.507499   0.91635225 
   34500     206.9998    -1076.568    136312.53   -41712.345    2575.4711   -44287.816    18.428483   0.91622897 
   34600    208.66537   -1005.8489    136230.73   -41703.445    2596.1939   -44299.639     18.36665   0.91677915 
   34700    206.26492    -1026.975    136242.74   -41777.254    2566.3278   -44343.582    18.454543   0.91669834 
   34800    209.08512   -949.07981    136093.59   -41767.701    2601.4164   -44369.117    18.508398   0.91770295 
   34900    208.82611   -1005.1179    136058.59   -41773.342    2598.1939   -44371.536    18.503635   0.91793901 
   35000    206.08756    -1038.885    136107.43   -41846.569     2564.121    -44410.69    18.604775   0.91760966 
   35100    209.49136   -1035.4032    136100.47    -41781.97    2606.4708   -44388.441    18.627019   0.91765654 
   35200    210.70269   -1030.9933    136030.46   -41792.304    2621.5421   -44413.846    18.407322   0.91812889 
   35300    211.72382    -924.6811    136082.26   -41766.995    2634.2469   -44401.242    18.428048   0.91777939 
   35400    210.24874   -985.81725    136101.52   -41787.255    2615.8941   -44403.149    18.455219    0.9176495 
   35500    211.48845   -1007.9888     136103.9   -41703.696    2631.3184   -44335.015    18.563458   0.91763342 
   35600    209.59927   -957.62774    136091.43   -41750.684    2607.8134   -44358.497    18.547748   0.91771752 
   35700    209.97383   -922.05032    136259.61   -41720.772    2612.4737   -44333.246    18.593652   0.91658481 
   35800    207.46793   -853.05788    136080.92    -41752.79    2581.2955   -44334.085    18.623746    0.9177884 
   35900    212.05646   -1085.0331    136213.56   -41699.482    2638.3855   -44337.868    18.686096   0.91689471 
   36000    209.88683   -1065.4407    136300.13    -41672.96    2611.3912   -44284.351    18.662173   0.91631236 
   36100    211.37347   -929.77558       136406   -41697.892    2629.8879    -44327.78    18.523923   0.91560112 
   36200    211.96162    -1040.874    136302.54   -41727.706    2637.2056   -44364.912    18.728424   0.91629614 
   36300    207.81904   -1131.5536    136310.65   -41776.107    2585.6639   -44361.771     18.72358   0.91624159 
   36400    213.31429    -976.7834    136141.79   -41717.194    2654.0353   -44371.229    18.776478   0.91737804 
   36500    209.71082   -875.50354    136225.07   -41701.543    2609.2013   -44310.744    18.725616   0.91681725 
   36600    204.48929    -909.9903       136168   -41823.638    2544.2355   -44367.873    18.627212   0.91720146 
   36700    208.71794   -1028.3743    136162.17   -41764.824    2596.8479   -44361.672    18.728801   0.91724074 
   36800    208.86033   -1045.0129    136031.77   -41748.934    2598.6195   -44347.554    18.735888   0.91811999 
   36900    210.61829   -977.64563     136154.2   -41769.679    2620.4919    -44390.17    18.714644   0.91729446 
   37000    210.55416   -1053.9368    136144.22   -41704.536    2619.6941    -44324.23    18.728377   0.91736169 
   37100    212.77475   -980.72377    136087.29   -41694.174    2647.3224   -44341.497    18.726003   0.91774544 
   37200    207.16072    -957.2545    136186.84   -41753.737    2577.4732    -44331.21    18.843013   0.91707459 
   37300    206.37412   -1133.5903    136229.83   -41766.079    2567.6865   -44333.765    18.834414   0.91678517 
   37400    207.32421   -994.95898    136207.65   -41807.141    2579.5074   -44386.649    18.968007   0.91693445 
   37500    206.91382   -985.16249    136161.78   -41814.411    2574.4013   -44388.812     18.84978   0.91724336 
   37600    214.19387   -1136.2265    136107.41   -41769.313    2664.9789   -44434.291    18.856251   0.91760978 
   37700     208.0156   -964.12967    136180.36   -41764.941    2588.1095    -44353.05    19.019375   0.91711826 
   37800    204.49322   -1074.1297    136230.96   -41860.103    2544.2844   -44404.387    18.930659   0.91677758 
   37900    211.29449   -1051.8473    136329.45    -41815.31    2628.9052   -44444.216     18.94206   0.91611524 
   38000    209.76447   -1007.9544    136430.04   -41778.597    2609.8688   -44388.466    18.881215   0.91543982 
   38100    210.83104    -914.6453     136430.1   -41739.478     2623.139   -44362.617    18.833229   0.91543938 
   38200    206.08082   -1084.5088    136462.24   -41750.532    2564.0372   -44314.569    18.985942   0.91522379 
   38300    213.01603   -1007.3046     136372.6   -41689.226    2650.3244    -44339.55     19.07172   0.91582541 
   38400    207.96931   -915.11418    136451.84   -41749.864    2587.5337   -44337.397    19.030606   0.91529356 
   38500    208.63719   -877.25934    136500.04   -41760.893    2595.8432   -44356.736    18.974266   0.91497034 
   38600    206.28897    -978.4836    136456.78   -41715.891     2566.627   -44282.518    19.039008   0.91526044 
   38700    210.65833   -864.37738    136471.86   -41728.194    2620.9901   -44349.184    18.933234   0.91515927 
   38800    210.38812   -938.35752    136419.35   -41744.507    2617.6282   -44362.135    18.902788   0.91551156 
   38900     212.0015   -1019.2457    136500.47   -41701.223    2637.7017   -44338.925    19.059302   0.91496747 
   39000    209.72583   -1068.2144    136489.48   -41750.248     2609.388   -44359.636     19.07892   0.91504118 
   39100    209.71129   -971.43275    136490.22   -41713.115    2609.2072   -44322.322    19.069758   0.91503619 
   39200    208.88772   -1052.6161    136360.81   -41736.978    2598.9603   -44335.938    19.190347   0.91590461 
   39300    209.64868   -951.47349    136440.69    -41720.03    2608.4282   -44328.458    19.114598   0.91536838 
   39400     213.6402    -1180.146    136314.48   -41692.648    2658.0902   -44350.738    19.134298   0.91621588 
   39500    211.46581   -994.47205    136315.69   -41670.832    2631.0367   -44301.868    19.106805   0.91620774 
   39600    212.04212   -910.03378    136336.68   -41718.337    2638.2071   -44356.544     18.96165   0.91606671 
   39700    211.69833    -1050.111    136355.16   -41669.042    2633.9297   -44302.972    19.023569   0.91594256 
   39800    213.97534   -1020.5867    136405.02   -41730.637      2662.26   -44392.897    19.250115   0.91560773 
   39900    206.60797   -933.29751    136337.64    -41779.84     2570.596   -44350.436    19.228181   0.91606023 
   40000    207.93063   -922.59738    136304.46   -41805.609    2587.0524   -44392.661    19.248421   0.91628326 
   40100    209.14481   -940.31934    136420.13   -41707.284    2602.1591   -44309.443    19.075987   0.91550635 
   40200    207.66235   -986.30096    136404.16   -41728.204    2583.7145   -44311.919    19.119248   0.91561354 
   40300    209.85103   -993.14622     136371.1   -41711.138    2610.9457   -44322.084     19.05078    0.9158355 
   40400    213.23672   -1039.4023     136401.3    -41632.94    2653.0702    -44286.01    19.071695   0.91563271 
   40500    214.81701    -1052.358    136323.75   -41663.337     2672.732   -44336.069    19.121749   0.91615356 
   40600    211.94886   -957.39994    136351.34   -41705.892    2637.0468   -44342.939     19.20828    0.9159682 
   40700    209.07677   -871.17544    136295.85   -41750.217    2601.3125   -44351.529     19.19543    0.9163411 
   40800    207.11678   -1007.7912    136460.01   -41808.715    2576.9265   -44385.642     19.18745   0.91523878 
   40900    205.19179   -944.49356     136499.1   -41832.862    2552.9759   -44385.838    19.353272   0.91497668 
   41000    211.15795   -941.99007    136529.47    -41751.77    2627.2063   -44378.976    19.363839   0.91477315 
   41100    212.14293   -903.69341     136514.1   -41740.697    2639.4613   -44380.158    19.342812   0.91487612 
   41200    209.25109   -934.46651    136427.72   -41761.769    2603.4814    -44365.25    19.247424   0.91545541 
   41300    207.39471   -918.68244    136418.81   -41913.618    2580.3845   -44494.002    19.160014   0.91551518 
   41400    209.37523   -1025.2627    136418.22   -41859.198     2605.026   -44464.224    19.114329   0.91551911 
   41500    203.68519   -984.01062    136374.14    -41859.37     2534.231   -44393.601    19.365993   0.91581508 
   41600    210.73396   -1060.7233    136459.81   -41831.053    2621.9311   -44452.984    19.327776   0.91524012 
   41700    207.22845   -1160.5105    136518.78   -41802.674    2578.3159    -44380.99    19.286582   0.91484479 
   41800    207.94693   -960.09849    136523.79   -41814.106    2587.2551   -44401.361    19.395496   0.91481118 
   41900     212.2263   -926.72412    136618.42   -41791.181    2640.4986    -44431.68     19.43631   0.91417752 
   42000     209.1702    -1048.356    136539.63   -41784.685     2602.475    -44387.16    19.188954   0.91470505 
   42100    207.21551   -1105.5055    136649.26   -41789.706    2578.1549   -44367.861    19.187358   0.91397125 
   42200    211.69419   -975.60288     136661.7   -41748.582    2633.8782    -44382.46    19.220937     0.913888 
   42300    210.29236   -1007.0986    136743.37   -41733.572    2616.4367   -44350.009    19.396554   0.91334222 
   42400    209.67758   -949.88112    136701.92   -41765.634    2608.7877   -44374.422    19.434865   0.91361913 
   42500    213.01022   -990.00351    136718.31   -41760.112    2650.2521   -44410.364    19.363444   0.91350961 
   42600    211.59154   -1060.6322    136715.11   -41771.084     2632.601   -44403.685    19.307135   0.91353097 
   42700    213.81428   -992.09728    136667.01   -41775.895    2660.2561   -44436.151    19.349183   0.91385254 
   42800    214.32942   -1095.1975    136745.49   -41721.645    2666.6654    -44388.31    19.437131   0.91332803 
   42900    211.15116    -1051.233    136690.48   -41806.162    2627.1219   -44433.284     19.41148   0.91369561 
   43000    209.13283   -980.57608    136600.93   -41831.245      2602.01   -44433.255    19.469057   0.91429458 
   43100    210.02231   -942.75215    136685.63   -41804.459    2613.0769   -44417.536    19.434888   0.91372804 
   43200    211.58558    -954.1933    136793.35   -41757.949    2632.5268   -44390.476    19.355023   0.91300853 
   43300    210.20783   -962.92274    136789.43   -41768.354     2615.385   -44383.739    19.341066   0.91303466 
   43400     216.1939   -1023.1717     136643.4   -41727.278    2689.8631   -44417.141    19.339175   0.91401044 
   43500    215.14833   -932.13328    136724.54   -41726.631    2676.8543   -44403.486    19.333263   0.91346796 
   43600    212.76832   -1005.1215    136624.04   -41633.492    2647.2424   -44280.734      19.4417   0.91413993 
   43700    213.62813   -914.44084    136596.24   -41658.196      2657.94   -44316.136    19.394975   0.91432596 
   43800     212.0415   -946.21236    136637.68    -41675.41    2638.1993   -44313.609     19.40989   0.91404866 
   43900    209.05197   -928.94072     136671.9   -41710.277    2601.0039    -44311.28    19.435452   0.91381981 
   44000    213.60593   -1029.8991    136656.54   -41751.602    2657.6639   -44409.266    19.226292   0.91392255 
   44100    212.09825   -871.37973    136641.44   -41765.434    2638.9055    -44404.34    19.349844   0.91402353 
   44200    204.81113   -945.32084    136758.83   -41790.318    2548.2399   -44338.558    19.448006   0.91323899 
   44300    207.56106   -1174.2279    136579.19   -41798.882    2582.4541   -44381.336    19.420118   0.91444012 
   44400    213.82666   -902.67307    136582.44   -41763.808    2660.4102   -44424.218    19.485662   0.91441835 
   44500    207.44793   -981.07814    136447.33   -41797.146    2581.0467   -44378.192    19.445574   0.91532379 
   44600    207.22432   -1016.6579    136635.05   -41852.968    2578.2645   -44431.233    19.584958   0.91406627 
   44700    211.13685   -989.64322    136617.72   -41832.653    2626.9438   -44459.597     19.57075   0.91418223 
   44800    209.80946   -976.35029     136613.7   -41806.406    2610.4286   -44416.834    19.592017   0.91420915 
   44900    208.54018   -959.70303    136650.67   -41769.062    2594.6363   -44363.698    19.564342    0.9139618 
   45000    209.81664   -1014.3293    136588.47   -41778.546    2610.5179   -44389.064    19.744516   0.91437799 
   45100    212.72907   -1043.1822    136585.87    -41723.39     2646.754   -44370.144    19.666565   0.91439538 
   45200    208.07678   -1017.6172    136472.16    -41777.06    2588.8707   -44365.931    19.644641   0.91515726 
   45300    209.52394   -1035.6363    136536.42   -41791.017    2606.8762   -44397.893    19.634962   0.91472655 
   45400    207.22496    -1032.567    136413.66   -41771.334    2578.2724   -44349.606    19.492646   0.91554971 
   45500     209.2743   -932.83566    136428.93   -41770.945    2603.7702   -44374.715    19.596417   0.91544724 
   45600     214.6878   -992.74231    136424.06   -41758.815    2671.1244    -44429.94    19.609052   0.91547994 
   45700    205.72501   -910.17559    136626.16   -41767.624    2559.6102   -44327.234    19.781278   0.91412573 
   45800     214.4698   -1146.7964    136425.53   -41726.825    2668.4121   -44395.237    19.718481   0.91547009 
   45900    210.23034   -1046.2492    136409.93   -41667.144    2615.6651   -44282.809    19.702562   0.91557478 
   46000    211.22854   -933.49898     136406.9   -41653.549    2628.0846   -44281.634    19.739779   0.91559512 
   46100    213.48585   -1084.5366    136470.71   -41615.936    2656.1699   -44272.106    19.731254   0.91516702 
   46200    216.07194   -1012.6203    136401.57   -41607.955    2688.3457   -44296.301    19.634555   0.91563087 
   46300    212.22883   -944.07729    136503.43   -41626.335    2640.5301   -44266.865     19.64651   0.91494762 
   46400    215.50791   -1048.8059    136459.18   -41669.098    2681.3281   -44350.427    19.809454   0.91524432 
   46500    211.50958    -1060.142    136409.66   -41688.942    2631.5813   -44320.523    19.920083   0.91557661 
   46600    216.01948   -933.81289    136374.37   -41680.962     2687.693   -44368.655     19.89066   0.91581349 
   46700    208.52698   -960.34643    136297.48   -41766.374    2594.4721   -44360.846    19.896718   0.91633016 
   46800    209.18156   -1120.4917    136391.77   -41811.004    2602.6163    -44413.62    19.874901   0.91569666 
   46900    210.79924   -988.87175    136439.08   -41733.183    2622.7433   -44355.927    19.837747   0.91537915 
   47000     211.4073   -941.56125    136497.72   -41729.098    2630.3087   -44359.406    19.895204   0.91498589 
   47100    212.08488   -954.02357    136436.92   -41707.229    2638.7392   -44345.968    19.869251   0.91539363 
   47200    212.31771   -1065.4173    136345.21   -41764.013     2641.636   -44405.649    19.824752   0.91600936 
   47300    208.32738   -1063.5537    136221.64   -41786.617    2591.9887   -44378.606    19.920255   0.91684032 
   47400    208.34528   -940.18303    136371.74   -41746.574    2592.2113   -44338.785    19.996277   0.91583117 
   47500    211.56615   -1083.6447    136346.01   -41689.294    2632.2851   -44321.579    19.977399   0.91600403 
   47600    211.66171    -1090.541    136237.51   -41650.443    2633.4741   -44283.918    19.882074   0.91673351 
   47700    214.74506   -945.30554    136349.54   -41700.532    2671.8368   -44372.369    19.904348   0.91598028 
   47800    211.48994   -1005.0571    136357.88   -41715.755    2631.3369   -44347.091    19.871277   0.91592425 
   47900    206.97453   -892.34916    136398.83   -41800.807    2575.1567   -44375.963    19.820172   0.91564925 
   48000    213.02216   -1022.7126    136414.56   -41820.531    2650.4006   -44470.931     19.91942   0.91554368 
   48100    210.04189   -1016.1818    136396.59   -41799.876    2613.3204   -44413.197    19.894688   0.91566429 
   48200     205.9209    -1020.596    136417.73   -41831.908    2562.0475   -44393.956    19.898089   0.91552245 
   48300    209.48839     -971.029    136483.01   -41808.452    2606.4338   -44414.886     20.01293   0.91508452 
   48400    216.14308   -885.94615       136617    -41735.15    2689.2308   -44424.381    20.042146   0.91418705 
   48500    210.58008   -1087.5727    136594.71   -41799.988    2620.0165   -44420.005    20.036829   0.91433623 
   48600    210.24959   -1036.6391    136505.08    -41802.03    2615.9047   -44417.935    20.011267   0.91493655 
   48700    212.79762   -1050.4297     136428.7    -41765.92     2647.607   -44413.527    20.012541   0.91544879 
   48800    209.13927   -1002.5739    136453.75   -41793.981    2602.0902   -44396.071     20.07186   0.91528077 
   48900    209.99082   -963.06445    136463.75     -41781.9     2612.685   -44394.585      20.0916   0.91521367 
   49000     212.4543   -988.43268     136549.7   -41811.314    2643.3354   -44454.649    20.035319   0.91463758 
   49100    207.64827   -1015.9919    136660.16    -41807.92    2583.5392   -44391.459    20.014481   0.91389831 
   49200    205.17074   -1138.6512    136584.03   -41819.768     2552.714   -44372.482    20.050235    0.9144077 
   49300    208.25409   -920.23498    136594.32   -41763.579    2591.0768   -44354.656     20.10767   0.91433881 
   49400     210.8021    -953.5488    136610.93   -41743.626    2622.7789   -44366.405    20.140678   0.91422769 
   49500    214.04984   -958.33617    136670.23   -41758.572    2663.1869   -44421.759    20.163897   0.91383099 
   49600    210.18272   -986.00445    136765.71   -41772.143    2615.0726   -44387.216    20.032871   0.91319304 
   49700    211.34072   -966.12376    136609.06   -41792.968    2629.4804   -44422.448    19.993418    0.9142402 
   49800    206.38564   -1028.6196    136604.95   -41850.183    2567.8297   -44418.013    20.049167    0.9142677 
   49900    210.09227   -1024.5026    136718.29   -41737.559    2613.9473   -44351.506    20.142926   0.91350975 
   50000    211.85074   -975.58154    136714.13   -41769.524    2635.8259    -44405.35    20.301229   0.91353753 
   50100    211.61402   -1022.0821     136775.5   -41790.184    2632.8808   -44423.065    20.203465   0.91312767 
   50200    211.05511   -966.19069    136656.99   -41836.216    2625.9268   -44462.143    20.144786   0.91391949 
   50300    212.35884   -1082.3529    136689.91   -41806.829    2642.1477   -44448.977    20.064877   0.91369939 
   50400    209.51562   -971.86273    136589.24   -41835.523    2606.7726   -44442.295    20.002613   0.91437284 
   50500    209.57564   -921.24729    136612.87   -41873.444    2607.5193   -44480.964    20.068393   0.91421467 
   50600    209.06009   -1004.1551    136660.24   -41888.263     2601.105   -44489.368    20.088084   0.91389781 
   50700    206.28532   -1025.4751    136607.19   -41893.639    2566.5815    -44460.22    20.151952    0.9142527 
   50800    207.69317   -946.25949    136582.85   -41876.768    2584.0979   -44460.865    20.269508   0.91441561 
   50900    211.40923   -995.24361    136644.51   -41795.493    2630.3327   -44425.826    20.284132   0.91400301 
   51000    212.59542    -961.0132    136616.84   -41834.389    2645.0912    -44479.48    20.121353   0.91418814 
   51100    211.03404   -1015.9888    136718.94   -41863.317    2625.6646   -44488.982    20.194008   0.91350542 
   51200    208.57735   -1035.2115    136718.17    -41840.52    2595.0987   -44435.618    20.246409   0.91351054 
   51300    208.44354   -1050.4388    136716.49   -41901.475    2593.4339   -44494.909    20.226658   0.91352179 
   51400    204.14501   -1100.3929    136719.34   -41887.089    2539.9521   -44427.041    20.110373   0.91350271 
   51500    205.84997   -1003.6981    136641.77   -41884.023     2561.165   -44445.188    20.154874   0.91402135 
   51600    206.71556   -1022.4919    136670.03   -41832.939    2571.9346   -44404.874    20.266394   0.91383235 
   51700    211.31838   -894.79786    136639.71   -41823.639    2629.2023   -44452.841     20.27877   0.91403509 
   51800     208.1891   -930.13123    136502.75   -41863.682    2590.2682    -44453.95    20.347888   0.91495223 
   51900    208.86752   -1095.4699    136577.07   -41903.439     2598.709   -44502.148    20.246523   0.91445433 
   52000    205.15095    -976.3547    136634.17   -41924.761    2552.4679   -44477.229    20.184115   0.91407214 
   52100    206.16572   -961.36566    136517.93   -41873.668    2565.0936   -44438.762    20.232708   0.91485046 
   52200    206.91144   -952.71585    136629.69   -41897.008    2574.3716    -44471.38    20.272123   0.91410215 
   52300    208.07867   -921.91287    136777.49   -41871.993    2588.8943   -44460.887    20.521155   0.91311439 
   52400    210.00736   -1011.5148    136702.23    -41812.65    2612.8908   -44425.541    20.413264   0.91361705 
   52500     208.8258   -1043.9969    136701.69    -41794.86    2598.1899    -44393.05     20.39744    0.9136207 
   52600    207.17231   -979.56461    136663.85   -41822.489    2577.6173   -44400.106    20.432447   0.91387361 
   52700    210.14933   -958.48184    136713.54   -41841.741    2614.6572   -44456.398    20.219693    0.9135415 
   52800      206.933   -856.22069    136755.67   -41802.324    2574.6399   -44376.964     20.28651   0.91326004 
   52900    210.26404   -986.38777    136832.28   -41805.439    2616.0845   -44421.524    20.527167   0.91274872 
   53000    210.32432   -1009.6015    136781.15   -41790.448    2616.8344   -44407.283    20.556668    0.9130899 
   53100    209.01651    -1013.287    136621.41   -41844.056    2600.5627   -44444.619    20.628586   0.91415753 
   53200    210.54928   -1038.3559    136682.42   -41827.581    2619.6333   -44447.215    20.561196   0.91374947 
   53300    210.00202   -1011.2514    136616.22   -41829.945    2612.8244    -44442.77    20.468029   0.91419227 
   53400    205.55608   -1012.3651    136555.17   -41906.359    2557.5084   -44463.867    20.337619   0.91460095 
   53500    205.69917   -851.80566    136619.45   -41912.265    2559.2888   -44471.554    20.337198   0.91417064 
   53600    207.70719   -993.73738    136675.89   -41914.496    2584.2723   -44498.768     20.50546   0.91379312 
   53700    208.37339   -1008.5857    136834.09   -41941.587    2592.5611   -44534.148    20.501988   0.91273669 
   53800    209.87432   -955.33194    136886.55   -41827.804    2611.2356    -44439.04    20.588266   0.91238687 
   53900    206.60159   -1091.9915    136759.07   -41876.128    2570.5166   -44446.645    20.574937   0.91323738 
   54000    209.20678   -943.38531    136781.18   -41846.832      2602.93   -44449.762    20.512827   0.91308972 
   54100     208.5836   -981.12245    136764.96   -41859.586    2595.1765   -44454.763    20.498714   0.91319801 
   54200    209.87469   -987.15704    136755.07   -41836.307    2611.2401   -44447.547    20.476793   0.91326405 
   54300    208.77671   -1002.3173    136690.38   -41814.507    2597.5791   -44412.086    20.472772   0.91369627 
   54400    209.63775   -1065.1238    136708.29   -41850.405    2608.2921   -44458.697    20.633433   0.91357655 
   54500    210.65494   -997.48185    136579.18   -41836.944    2620.9479   -44457.892    20.739574   0.91444017 
   54600    214.88417   -1033.1387    136812.28   -41743.564    2673.5675   -44417.131    20.723365   0.91288217 
   54700    215.76191   -932.00532    136689.35   -41773.054    2684.4883   -44457.542    20.645734   0.91370317 
   54800    209.07469   -1096.8246    136587.28   -41846.898    2601.2866   -44448.185    20.606517   0.91438594 
   54900     211.1337   -853.29049    136548.99   -41887.613    2626.9046   -44514.518    20.570639   0.91464236 
   55000    206.95568   -1094.9461    136380.32   -41945.832    2574.9221   -44520.754    20.649015   0.91577356 
   55100     209.9087   -1065.2748    136389.92   -41911.465    2611.6633   -44523.129    20.717025   0.91570911 
   55200    208.31681   -904.00708    136483.77   -41923.643    2591.8572     -44515.5    20.690714   0.91507941 
   55300    206.39706   -970.64218    136484.59   -41872.334    2567.9718   -44440.305    20.753194   0.91507393 
   55400    212.87021   -904.62544     136617.9   -41840.963    2648.5101   -44489.473    20.697722   0.91418104 
   55500    213.55059   -983.83166    136803.21   -41785.811    2656.9754   -44442.787    20.613926   0.91294268 
   55600    210.27283   -1032.3755    136751.59   -41828.674    2616.1938   -44444.867    20.767391   0.91328733 
   55700    209.71177   -986.30006    136713.67   -41828.832    2609.2131   -44438.045    20.887129   0.91354061 
   55800     213.7935   -1048.0748    136731.65   -41842.922    2659.9976    -44502.92    20.839985   0.91342051 
   55900    214.74058    -896.8006    136768.58   -41818.613     2671.781   -44490.394    20.816487   0.91317388 
   56000    213.28621   -966.51732    136795.52   -41812.268     2653.686   -44465.954    20.695215   0.91299403 
   56100    210.64553     -1044.96    136803.08   -41792.201    2620.8308   -44413.032    20.826887   0.91294358 
   56200    210.95823   -1001.4589    136833.04    -41796.63    2624.7215   -44421.352    20.932947    0.9127437 
   56300    211.97517   -1030.9251    136801.45   -41835.678    2637.3742   -44473.052    20.872433   0.91295442 
   56400    210.55917    -1047.821     136895.9   -41833.067    2619.7564   -44452.823    20.961316   0.91232455 
   56500    207.20757   -967.81874    136878.02   -41909.275    2578.0561   -44487.331    20.964577   0.91244371 
   56600    209.44012   -945.02494    136947.81   -41917.908    2605.8333   -44523.741     20.97936   0.91197873 
   56700    206.10541   -935.01528    137003.16   -41955.027    2564.3431    -44519.37    21.088853   0.91161028 
   56800    209.88039   -1085.7598    137034.25   -41894.648    2611.3111    -44505.96    21.087483   0.91140346 
   56900    210.72988    -867.1682    136889.72    -41876.08    2621.8804    -44497.96    20.897662   0.91236572 
   57000    215.95799   -936.85178    136960.88   -41825.033     2686.928   -44511.961    20.871768   0.91189171 
   57100    212.94778   -1011.1392    136952.95   -41894.014    2649.4752   -44543.489    21.082231   0.91194451 
   57200    211.63608   -1037.0611    136882.99   -41939.723    2633.1552   -44572.878    21.075422   0.91241057 
   57300    210.30289   -909.16505    136932.17   -41993.146    2616.5678   -44609.714    21.009698   0.91208288 
   57400    204.97734   -1097.2489    137028.16   -41997.354    2550.3078   -44547.662    20.995012   0.91144401 
   57500    205.07342   -928.19866     136980.8   -42040.926    2551.5032   -44592.429    20.959905   0.91175913 
   57600    204.15189   -890.59877    137012.66   -41985.225    2540.0376   -44525.263     21.03708   0.91154706 
   57700    206.74282    -1087.676    137030.01   -42017.812    2572.2737   -44590.085    21.094134   0.91143165 
   57800    203.80524   -985.91791    136927.89   -42033.407    2535.7247   -44569.132    20.989492   0.91211144 
   57900    205.52775   -862.22271    136869.13   -42001.641     2557.156   -44558.797    21.057682   0.91250301 
   58000    206.33411   -960.09084    136891.41   -41996.149    2567.1887   -44563.337    21.149167   0.91235451 
   58100    208.37391   -977.72646    136865.48   -41934.368    2592.5676   -44526.936    21.023502   0.91252734 
   58200     214.1077   -870.74752    136904.03   -41880.568    2663.9069   -44544.475    20.990082   0.91227037 
   58300    214.88417   -970.28094    136932.92   -41827.648    2673.5675   -44501.216    21.050313    0.9120779 
   58400    211.13359   -1007.6668    136894.69   -41834.347    2626.9033    -44461.25    21.201971   0.91233265 
   58500    211.06243    -1092.017    136942.87   -41835.869    2626.0178   -44461.886    21.246941   0.91201163 
   58600    211.49662   -911.57549    136942.67   -41805.944      2631.42   -44437.364    21.181317   0.91201299 
   58700    215.11048    -945.0658    136960.51   -41811.772    2676.3833   -44488.156    20.973696    0.9118942 
   58800    207.16034   -1043.7452    136967.44   -41864.843    2577.4684   -44442.311     20.96091   0.91184801 
   58900    212.01619   -946.90255    136912.85   -41907.574    2637.8845   -44545.458    21.069892   0.91221162 
   59000    209.50642   -1058.4303    136941.52   -41891.595    2606.6581   -44498.253    21.182795   0.91202062 
   59100    207.27318   -1043.5899     136849.8   -41881.674    2578.8725   -44460.547      21.1516   0.91263189 
   59200    207.06956    -969.2683    136813.76   -41896.863     2576.339   -44473.202    21.136996   0.91287226 
   59300     207.9891   -847.12807    136814.09   -41889.603    2587.7798   -44477.383    21.260233   0.91287009 
   59400    205.96538   -1273.0728    136766.78   -41935.421    2562.6009   -44498.021    21.125744   0.91318585 
   59500    207.39509   -957.60776    136870.88    -41892.89    2580.3892   -44473.279    21.180027   0.91249132 
   59600    208.92388   -960.27763    136861.81   -41873.947    2599.4103   -44473.358     21.14834   0.91255182 
   59700     207.7615   -1023.8554     136864.5   -41900.176     2584.948   -44485.124    21.210249    0.9125339 
   59800    212.92838    -966.3858    136979.52   -41896.104    2649.2339   -44545.338    21.330869    0.9117676 
   59900    211.57431   -1090.4705    136987.49   -41874.649    2632.3867   -44507.035    21.144038   0.91171461 
   60000    210.28342   -946.69127    136951.92   -41923.296    2616.3255   -44539.621    21.098454   0.91195136 
   60100    211.97972   -1086.6183    136913.79   -41883.472    2637.4308   -44520.903    21.074968   0.91220533 
   60200    211.50613   -1042.0203    136896.12   -41865.458    2631.5384   -44496.997    21.367734   0.91232311 
   60300    209.15707   -970.71613    136826.24   -41830.317    2602.3116   -44432.628    21.375854   0.91278906 
   60400    210.36055   -998.60586     136915.8    -41777.62    2617.2852   -44394.905    21.214017   0.91219195 
   60500    211.14657    -1136.351    136919.73   -41810.711    2627.0647   -44437.776    21.174037   0.91216576 
   60600    210.84108   -986.83148    137053.23    -41866.12    2623.2639   -44489.384    21.119943   0.91127726 
   60700    208.34365   -958.91085    137041.07   -41880.334     2592.191   -44472.525    21.167361   0.91135809 
   60800    210.79876   -1025.7325       137090   -41841.524    2622.7374   -44464.261    21.267478   0.91103286 
   60900    211.06239    -957.0563    137128.56   -41839.464    2626.0174   -44465.481    21.264758   0.91077665 
   61000    210.49604   -975.92093    136978.69   -41877.328     2618.971   -44496.299    21.333389   0.91177314 
   61100    208.53449   -955.41336    136924.13    -41918.83    2594.5656   -44513.395    21.171641   0.91213645 
   61200    209.82107   -1036.6192    136890.22   -41919.856     2610.573   -44530.429    21.238402   0.91236238 
   61300    211.04843   -944.09373    136785.32   -41906.532    2625.8438   -44532.375    21.328081   0.91306212 
   61400    208.37545   -991.81802    136762.52   -41940.594    2592.5867   -44533.181    21.269506   0.91321428 
   61500    208.25064   -1075.0945    136744.12   -41943.561    2591.0338   -44534.595    21.282334   0.91333718 
   61600    212.39626   -1027.0691    136639.11   -41908.156    2642.6132    -44550.77    21.222332   0.91403914 
   61700    204.48872   -1005.7374       136538   -41975.773    2544.2285   -44520.002    21.261398     0.914716 
   61800    208.58015   -980.39518    136656.92   -42033.631    2595.1336   -44628.764    21.180785   0.91391997 
   61900    205.96788   -963.98175    136574.93   -41969.216     2562.632   -44531.848    21.241606   0.91446862 
   62000    207.19089   -973.79144    136748.43   -41909.118    2577.8486   -44486.966    21.161833   0.91330842 
   62100    206.20439   -1113.7504    136746.15   -41921.684    2565.5746   -44487.259    21.247593   0.91332364 
   62200     213.5069   -867.37949    136789.98   -41873.571    2656.4318   -44530.003    21.293184   0.91303096 
   62300    208.63987   -954.04486     136865.2   -41906.115    2595.8766   -44501.992    21.323281    0.9125292 
   62400    213.58288   -979.95028    136850.96   -41853.127    2657.3771   -44510.504    21.280486   0.91262415 
   62500    207.04411   -1024.4671    136903.37   -41870.739    2576.0224   -44446.761    21.296098   0.91227476 
   62600    210.97137   -971.06903    136877.99   -41876.811    2624.8849   -44501.696    21.180674   0.91244393 
   62700    208.94265   -1136.9928    136874.33   -41904.604    2599.6438   -44504.248    21.221929   0.91246833 
   62800    208.81444   -942.59742    136896.68   -41895.683    2598.0486   -44493.732    21.265213   0.91231937 
   62900    209.40053   -981.09443    136826.87   -41849.002    2605.3407   -44454.342    21.222684   0.91278485 
   63000    209.92678   -1063.1846    136689.13   -41807.643    2611.8883   -44419.531    21.317622   0.91370463 
   63100    212.75251   -992.27992    136795.09   -41786.282    2647.0457   -44433.328     21.31784   0.91299691 
   63200    212.96707   -942.84969    136697.87   -41817.979    2649.7153   -44467.694    21.301167   0.91364621 
   63300    212.40801   -954.10345    136709.53   -41849.507    2642.7594   -44492.266    21.263378   0.91356827 
   63400    212.22161   -1106.7847    136772.64   -41776.313    2640.4404   -44416.753    21.302369   0.91314675 
   63500    211.59707   -928.42358    136843.97   -41866.535    2632.6699   -44499.205    21.363373   0.91267075 
   63600    208.88384   -923.57258    136836.69   -41871.184    2598.9121   -44470.096    21.475117   0.91271934 
   63700    208.35226   -939.28572    136982.85   -41878.759    2592.2982   -44471.058    21.399555   0.91174544 
   63800    207.29833   -1021.0091    136940.72   -41983.092    2579.1853   -44562.277    21.322705   0.91202594 
   63900    208.80201   -882.00756    136891.25   -41966.211     2597.894   -44564.105    21.499932   0.91235556 
   64000    208.87997   -1080.5442    136954.07   -41944.194     2598.864   -44543.057    21.409362   0.91193707 
   64100    210.57828   -1026.9695    136876.66   -41859.883    2619.9942   -44479.877    21.393853   0.91245278 
   64200    208.08109   -1194.6934    136898.72   -41851.851    2588.9243   -44440.775    21.530859   0.91230578 
   64300    213.62099   -953.00651    136925.56   -41757.886    2657.8513   -44415.737    21.608177    0.9121269 
   64400    209.62567   -958.15188    136946.19   -41796.821    2608.1418   -44404.963    21.517921    0.9119895 
   64500    213.34243    -1090.652    136965.05   -41796.668    2654.3854   -44451.053    21.554329   0.91186398 
   64600    211.10992   -1054.4149    137103.77   -41851.843    2626.6087   -44478.451    21.526554   0.91094133 
   64700    212.51345   -1015.1455    136974.93   -41873.451    2644.0713   -44517.523    21.468318   0.91179818 
   64800    211.98705   -981.57064    136990.98   -41894.835    2637.5219   -44532.357    21.580852   0.91169133 
   64900    208.08579   -1029.8345    136912.88   -41884.238    2588.9828   -44473.221    21.495685   0.91221142 
   65000    211.00938   -1046.1167     136945.9   -41856.645    2625.3579   -44482.002    21.653464   0.91199148 
   65100    210.01287   -979.29229    136877.61   -41883.028    2612.9594   -44495.987    21.561026   0.91244649 
   65200    211.09108   -940.06333     136921.3   -41873.342    2626.3743   -44499.716    21.501701   0.91215529 
   65300    213.62587   -1032.3954    136982.32   -41871.282    2657.9119   -44529.194    21.603743   0.91174895 
   65400    213.10378   -1046.1076    137106.49   -41814.428    2651.4161   -44465.844    21.677445   0.91092325 
   65500    213.03775   -872.20927    137106.61   -41887.709    2650.5946   -44538.304    21.655846   0.91092246 
   65600    210.32892    -1046.223    137171.23   -41920.591    2616.8916   -44537.483    21.608387   0.91049337 
   65700    209.89159   -1034.3138    137113.66   -41960.724    2611.4504   -44572.174    21.727854   0.91087566 
   65800    203.72317   -1027.5154    137100.09   -41971.102    2534.7036   -44505.806    21.787668   0.91096576 
   65900    209.94981    -1048.851    137032.45   -41936.682    2612.1748   -44548.856    21.781802   0.91141547 
   66000     212.5952   -1081.5665    137087.55   -41842.856    2645.0884   -44487.945    21.823924   0.91104914 
   66100    213.88423   -1145.9797    137077.86   -41800.647    2661.1264   -44461.773    21.849399   0.91111351 
   66200    214.59652   -956.24185    136964.17   -41777.982    2669.9887   -44447.971    21.893807   0.91186978 
   66300    212.67691   -904.46224    136851.31    -41815.66     2646.105   -44461.765    21.851072   0.91262179 
   66400    210.96282   -1025.9347    136916.15   -41859.564    2624.7786   -44484.342    21.772277   0.91218959 
   66500    208.83931   -1101.0996    136957.22   -41875.619    2598.3581   -44473.977    21.809321   0.91191609 
   66600    212.29743   -924.42248    136872.88   -41901.079    2641.3837   -44542.463    21.645159     0.912478 
   66700    210.72873   -893.24255    136974.53   -41923.697     2621.866   -44545.563    21.716036   0.91180085 
   66800     209.6349   -992.43934    136933.21   -41865.936    2608.2567   -44474.192    21.798338   0.91207599 
[...]
   84600    206.87859   -985.99778    137089.87   -42007.464     2573.963   -44581.427    23.044792    0.9110337 
   84700    209.33358    -1012.635    137032.49   -42023.266    2604.5076   -44627.773    23.180637   0.91141518 
   84800    207.27609   -964.44834    136999.43   -41991.314    2578.9086   -44570.222    23.116206   0.91163515 
   84900     210.1415   -1121.2472    136960.54   -41967.071    2614.5597   -44581.631    23.068014   0.91189395 
   85000    207.60032   -957.94415    137073.99   -41920.496    2582.9427   -44503.439    23.017816   0.91113924 
   85100     209.7009    -946.0684    137234.44   -41918.612    2609.0779    -44527.69    23.060999   0.91007397 
   85200    215.00176   -1015.8885    137199.39   -41933.461    2675.0307   -44608.492    23.101503   0.91030644 
   85300    206.27327   -1000.9724    137186.37   -41983.152    2566.4317   -44549.584    23.235598   0.91039288 
   85400    207.68935   -1040.1679    137090.88   -41983.131    2584.0504   -44567.182     23.16108   0.91102701 
   85500    209.25384   -937.72821    137099.22   -41949.428    2603.5156   -44552.944    23.221474    0.9109716 
   85600    211.16622    -972.0632    136938.75    -41931.94    2627.3093    -44559.25    23.132372   0.91203911 
   85700    210.53274   -971.88532    137010.21   -41962.015    2619.4275   -44581.443    23.185207    0.9115634 
   85800    209.12863   -1056.5816    136989.56   -41965.605    2601.9577   -44567.563      23.2156   0.91170077 
   85900    213.36967   -847.64636    136904.14   -41872.583    2654.7244   -44527.307    23.253228   0.91226962 
   86000    212.73401   -1024.0544    137007.75   -41914.874    2646.8155   -44561.689     23.31237   0.91157973 
   86100    212.53533   -922.15908    136937.74   -41909.579    2644.3436   -44553.922    23.257783   0.91204578 
   86200    211.06955   -1043.1216    137112.19   -41881.064    2626.1065   -44507.171    23.182178   0.91088537 
   86300    211.15148   -1102.6543    137069.87   -41917.351    2627.1258   -44544.477    23.060361   0.91116661 
   86400    205.47259   -1030.1226    137076.77   -41933.601    2556.4696   -44490.071    23.152944   0.91112073 
   86500    211.61279    -967.8969    137101.88    -41920.55    2632.8654   -44553.416     23.24508    0.9109539 
   86600    210.96701   -1007.8423    137062.98   -41870.292    2624.8307   -44495.123    23.335393   0.91121244 
   86700    212.85239    -908.1255    137013.19   -41861.738    2648.2884   -44510.027    23.403452   0.91154358 
   86800    210.70719    -989.9879    137156.77   -41923.737     2621.598   -44545.335    23.319898   0.91058931 
   86900    214.74677   -1019.6281    137086.66   -41893.412    2671.8581    -44565.27    23.196677   0.91105505 
   87000    208.92604   -998.92058    137012.22   -41887.322    2599.4372   -44486.759    23.240746   0.91155004 
   87100    210.07922   -1031.2239    137093.02   -41923.743    2613.7849   -44537.528    23.167833   0.91101276 
   87200    212.50945   -1003.4703    137084.43   -41911.277    2644.0215   -44555.299    23.170203   0.91106983 
   87300    212.78786   -971.79684    137090.35   -41916.312    2647.4855   -44563.798    23.294539   0.91103054 
   87400    210.12272   -1060.1221    137036.89   -41928.376    2614.3261   -44542.702    23.259416   0.91138589 
   87500    208.10043   -1011.0155    137053.51   -41946.025     2589.165    -44535.19    23.333309   0.91127536 
   87600    207.26152   -947.56459    136985.47   -41957.223    2578.7273    -44535.95    23.329803     0.911728 
   87700    207.44086   -1126.9654    137008.27   -41965.155    2580.9586   -44546.114    23.224921   0.91157628 
   87800    209.67739   -896.50398    137143.93   -41944.604    2608.7853   -44553.389    23.210509   0.91067458 
   87900    205.61369   -918.98377    137168.12   -41961.695    2558.2253   -44519.921    23.341907     0.910514 
   88000    205.07815    -1017.776    137052.58   -41978.243    2551.5621   -44529.805    23.203749   0.91128157 
   88100     208.0057   -988.46569     137059.3   -41916.834    2587.9863    -44504.82    23.262797    0.9112369 
   88200    212.92638   -919.53868    137137.55   -41890.515     2649.209   -44539.724    23.473682   0.91071698 
   88300    210.74845   -1000.8619    137018.37   -41924.614    2622.1114   -44546.725    23.485952   0.91150907 
   88400    206.00815   -1001.5529    136969.67   -42023.911     2563.133   -44587.044    23.234148   0.91183321 
   88500    211.62018   -1042.9761    137064.22   -41938.249    2632.9574   -44571.206     23.21145    0.9112042 
   88600    210.06543   -914.47143     137107.2   -41893.036    2613.6133    -44506.65    23.271938   0.91091853 
   88700    214.49817   -927.51478    137009.06   -41878.744     2668.765   -44547.509    23.204811   0.91157102 
   88800    216.00125    -957.4606    137117.22   -41823.313    2687.4662   -44510.779    23.463826   0.91085201 
   88900    214.27396   -1055.2043    137031.82   -41878.084    2665.9755    -44544.06    23.398053   0.91141966 
   89000    209.74836   -890.54247    136940.22   -41858.572    2609.6684    -44468.24    23.330443   0.91202929 
   89100    208.73425   -1014.8344    137033.24   -41950.211    2597.0509   -44547.262    23.324448   0.91141021 
   89200    206.42568   -989.78825    137076.23   -41980.159    2568.3279   -44548.487    23.358699   0.91112435 
   89300     209.4126   -923.81851    137114.62   -41994.888    2605.4909   -44600.379    23.228316   0.91086924 
   89400    210.07654   -848.32325    137160.81   -42017.525    2613.7516   -44631.277    23.359364   0.91056252 
   89500    207.04283    -1057.808    137092.48   -42046.869    2576.0064   -44622.875    23.343931   0.91101634 
   89600    204.36894   -999.57641    137186.66   -42086.113    2542.7382   -44628.852    23.480379    0.9103909 
   89700    203.39634   -1036.7893    137305.63   -42049.497    2530.6372   -44580.135    23.425951   0.90960214 
   89800    206.99493   -1005.1403    137251.09   -42014.191    2575.4105   -44589.601    23.316952   0.90996354 
   89900    205.65338   -1057.1963    137142.58   -42068.252     2558.719   -44626.971    23.345116   0.91068354 
   90000    207.18538     -924.694    137220.72   -41984.629      2577.78   -44562.409    23.348043   0.91016499 
   90100    208.65239   -972.55868    137205.31   -41996.407    2596.0324    -44592.44    23.430643   0.91026716 
   90200    207.93722   -943.60833    137167.08   -42033.965    2587.1343     -44621.1    23.551337   0.91052088 
   90300    206.35346   -986.86918     137031.4   -42042.978    2567.4294   -44610.407    23.509594   0.91142241 
   90400    204.72449   -980.82243    137090.75   -42028.912    2547.1619   -44576.074    23.469082   0.91102785 
   90500     210.7946   -1008.2832    137154.77   -41991.715    2622.6856     -44614.4    23.436584   0.91060258 
   90600    210.60547   -974.59738    137072.89   -41900.012    2620.3324   -44520.344    23.415864   0.91114656 
   90700    211.33064   -1087.5848    136977.05   -41908.957    2629.3549   -44538.312    23.293583   0.91178408 
   90800    208.57345   -1012.7622    137017.05   -41942.497    2595.0503   -44537.547    23.488463   0.91151791 
   90900    206.64826     -909.966    136966.58   -42034.385    2571.0972   -44605.482    23.370893   0.91185378 
   91000    204.59959   -886.05584    137032.64   -42040.105    2545.6078   -44585.713     23.60792   0.91141415 
   91100    205.93578   -1066.4925    136994.92    -42033.51    2562.2326   -44595.743    23.599508   0.91166514 
   91200    206.95494   -992.81127    136974.88   -41994.045     2574.913   -44568.958    23.506868    0.9117985 
   91300     208.1719   -1033.0664    136962.11   -41895.916    2590.0542    -44485.97    23.529161   0.91188355 
   91400    214.53228   -971.82073     137157.6   -41869.564    2669.1894   -44538.753    23.478847   0.91058382 
   91500    209.38396   -1064.0774    137146.91   -41879.361    2605.1345   -44484.495    23.504567   0.91065479 
   91600    209.41145   -1038.0522    137070.67   -41921.023    2605.4766   -44526.499    23.516348   0.91116133 
   91700    209.20297   -978.40946    136949.84   -41988.159    2602.8826   -44591.042    23.630505   0.91196523 
   91800    208.88093   -1008.9268    136943.56   -41960.325    2598.8759   -44559.201     23.58255   0.91200702 
   91900    207.98531   -935.19655       136984   -41954.635    2587.7326   -44542.368    23.643709    0.9117378 
   92000    205.57976   -908.98468    136996.87   -41962.808     2557.803   -44520.611    23.578332   0.91165217 
   92100    204.35973   -855.16087    137036.89   -42001.958    2542.6236   -44544.581    23.490335   0.91138588 
   92200    207.89636   -914.72245    137077.65   -41940.522     2586.626   -44527.148    23.530236   0.91111492 
   92300    212.41328    -893.4512    137111.66   -41857.172    2642.8251   -44499.997    23.464283    0.9108889 
   92400    213.44888   -966.78246    137069.14   -41862.836    2655.7098   -44518.546    23.482215   0.91117149 
   92500    209.28507   -1054.0807    136948.82   -41915.082    2603.9041   -44518.986    23.575319     0.911972 
   92600    212.91461   -967.20435    136934.78   -41897.889    2649.0625   -44546.952    23.529493   0.91206554 
   92700    212.55741   -1067.4852    136891.81   -41896.675    2644.6183   -44541.294    23.539581   0.91235184 
   92800    209.30655   -1102.2913    136910.66   -41946.684    2604.1714   -44550.856     23.68686   0.91222618 
   92900    210.37343   -1065.1223    136881.71   -41920.418    2617.4454   -44537.864    23.576899   0.91241915 
   93000    207.61355   -909.86249    137052.38   -41937.672    2583.1072   -44520.779    23.533844   0.91128289 
   93100     209.3853   -1031.0106    137025.04   -41876.406    2605.1512   -44481.557    23.544653    0.9114647 
   93200    210.94174   -1115.6182    136999.34   -41890.791    2624.5163   -44515.307     23.53813    0.9116357 
   93300     206.6139   -1142.7483     136877.5   -41915.061    2570.6697   -44485.731    23.610072   0.91244721 
   93400    209.28091   -1001.1929    136917.25   -41944.891    2603.8523   -44548.744    23.683998    0.9121823 
   93500    205.13289   -998.14379    137032.76   -41984.124    2552.2432   -44536.367    23.645853   0.91141335 
   93600    207.10344   -983.14858    136843.59   -42052.791    2576.7606   -44629.552    23.735405   0.91267331 
   93700    205.89991   -1040.6736    136866.13   -42012.795    2561.7863   -44574.581    23.739761   0.91252302 
   93800    207.83649    -913.0342       136875    -41976.54    2585.8811   -44562.421    23.774603   0.91246386 
   93900    212.65437   -982.96343       136962   -41965.838    2645.8246   -44611.662    23.690827   0.91188428 
   94000    208.93536   -951.38716    136894.91   -41976.466    2599.5531   -44576.019    23.664597   0.91233116 
   94100    206.86352   -1007.9786    136973.03   -41976.208    2573.7754   -44549.983    23.604972    0.9118108 
   94200    209.72149   -1043.9574    136919.46   -41968.491     2609.334   -44577.825    23.732859   0.91216759 
   94300    208.68824    -887.6977     136938.5   -41918.641    2596.4784   -44515.119    23.811939   0.91204075 
   94400    211.39425   -1044.1387    136899.86   -41907.615    2630.1464   -44537.762    23.727003   0.91229816 
   94500    214.53383   -924.64742    136737.85    -41848.36    2669.2087   -44517.568    23.714718   0.91337908 
   94600    212.72946   -976.65986    136969.87   -41882.777    2646.7589   -44529.536    23.860436   0.91183188 
   94700    210.40801   -1049.4404     136961.6   -41929.851    2617.8757   -44547.727    23.804237    0.9118869 
   94800    209.53467   -1044.4859    136933.78   -41923.436    2607.0096   -44530.445    23.591395   0.91207218 
   94900    208.99139   -947.25831       136936   -41891.953    2600.2502   -44492.203    23.598933   0.91205736 
   95000    211.26025   -1075.2171    136964.94   -41880.991    2628.4792    -44509.47    23.717135   0.91186468 
   95100    210.29866   -993.42559    136976.15   -41878.366    2616.5151   -44494.882     23.69421   0.91179006 
   95200    209.03888   -1007.9797    136929.71   -41901.338    2600.8411   -44502.179    23.767652   0.91209927 
   95300    213.70086   -1005.1697    136985.89   -41804.053     2658.845   -44462.898    23.835219   0.91172523 
   95400     207.7225   -1138.1409    136933.98   -41857.896    2584.4628   -44442.359    23.727008   0.91207085 
   95500    213.27594   -967.22267    136950.42   -41858.011    2653.5582   -44511.569    23.724082   0.91196136 
   95600    215.10484   -941.79118    137030.32   -41859.148    2676.3132   -44535.461    23.669979   0.91142964 
   95700    213.23014   -1010.2655    136947.26   -41917.346    2652.9883   -44570.335    23.560961   0.91198241 
   95800    207.53946   -1025.9535    136937.71   -41966.848    2582.1855   -44549.034    23.616584   0.91204602 
   95900    211.98982   -1048.9644    136878.12   -41912.589    2637.5564   -44550.145    23.762612   0.91244304 
   96000    209.06354   -997.50162    136970.79   -41987.978    2601.1479   -44589.126    23.762816   0.91182575 
   96100    210.27719    -1011.663    136876.51   -41938.279     2616.248   -44554.527    23.839993   0.91245382 
   96200    204.80693     -1114.94    136901.99   -41967.694    2548.1875   -44515.881    23.950504   0.91228396 
   96300    209.59558   -939.78499    136893.62   -41919.591    2607.7675   -44527.359    23.812642   0.91233974 
   96400    212.11957   -1015.4804    136866.71   -41892.159    2639.1707    -44531.33    23.699479   0.91251913 
   96500     209.4825   -943.33117    136959.45   -41935.662    2606.3605   -44542.023    23.633641   0.91190125 
   96600    208.18657   -973.78182    137001.43   -41935.287    2590.2368   -44525.524    23.743494   0.91162178 
   96700    207.04863   -1032.9552    137076.02   -42014.403    2576.0786   -44590.481    23.767023   0.91112577 
   96800    207.09951   -1043.7265    137140.63   -42060.394    2576.7116   -44637.106    23.869533   0.91069649 
   96900    205.12325   -930.60249    137057.95   -41993.913    2552.1232   -44546.037    23.797875   0.91124584 
   97000    205.30932   -942.66516    137026.27   -42000.312    2554.4382   -44554.751    23.729295   0.91145658 
   97100    207.43424   -1056.1798    136873.28   -41994.998    2580.8763   -44575.874    23.662785    0.9124753 
   97200    207.38736   -896.40001     136824.3   -41998.381    2580.2931   -44578.675    23.688713   0.91280195 
   97300    208.83053   -922.38967    136826.81   -42000.293    2598.2488   -44598.541    23.674199   0.91278522 
   97400    205.41196   -973.36499    136836.18   -42006.073    2555.7153   -44561.788    23.817618   0.91272273 
   97500     211.2683   -1072.8754    136795.02   -41913.198    2628.5793   -44541.777    23.851657   0.91299734 
   97600    208.30628   -948.20399    136911.18   -41965.432    2591.7262   -44557.159    23.811458   0.91222271 
   97700    208.75488   -1051.2372    136977.32   -41897.066    2597.3075   -44494.374    23.987568   0.91178224 
   97800    215.11954   -1068.0624    137018.76   -41878.576    2676.4961   -44555.072    23.867043   0.91150653 
   97900    211.64831   -1056.2522    136922.29   -41840.237    2633.3074   -44473.545    23.797598   0.91214872 
   98000    210.70301   -953.90059    136848.11    -41863.84     2621.546   -44485.386    23.836539   0.91264317 
   98100    208.78411   -991.65777    137039.59   -41932.282    2597.6713   -44529.954    23.987426   0.91136798 
   98200    201.20622   -1086.6328    136923.57   -41896.386    2503.3879   -44399.774    23.893397    0.9121402 
   98300    211.03068    -1034.244    136969.83   -41909.954    2625.6229   -44535.577    23.998356   0.91183212 
   98400    207.01528   -946.91716    137050.03   -41915.337    2575.6637   -44491.001      23.9988    0.9112985 
   98500    207.78514   -904.81374    137005.49   -41918.146    2585.2422   -44503.389    23.911638    0.9115948 
   98600     208.8976   -1002.2478    137036.13    -41938.56    2599.0833   -44537.643    23.906547   0.91139096 
   98700    207.20539   -954.43357    136984.47   -41982.273     2578.029   -44560.302    23.909114   0.91173468 
   98800    205.22587   -1043.1704    136967.99   -41954.037       2553.4   -44507.437    24.063929    0.9118444 
   98900    205.39353   -809.79722    136980.24   -41952.008     2555.486   -44507.494    24.037526   0.91176281 
   99000    206.75454   -1055.7757    136961.41   -41985.183    2572.4195   -44557.603    23.973708   0.91188815 
   99100    207.21224   -875.90267    137034.65   -41909.643    2578.1142   -44487.758    23.863039   0.91140079 
   99200    207.58731   -976.85087    136948.78   -41899.739    2582.7807    -44482.52    23.805165   0.91197231 
   99300    211.87768   -1093.6035     136935.8   -41851.356    2636.1611   -44487.517     24.05825   0.91205874 
   99400    214.16103   -996.53473    137100.43   -41822.007    2664.5704   -44486.577    24.078392   0.91096351 
   99500    213.43978   -972.10212    136998.77   -41719.905    2655.5966   -44375.502    23.985103   0.91163949 
   99600     213.2654   -990.07537       137100   -41749.316    2653.4271   -44402.743    23.901306    0.9109664 
   99700    213.59279   -971.51154    137130.04     -41761.1    2657.5004     -44418.6    23.898645    0.9107668 
   99800    213.60687   -981.54158    137074.18   -41787.133    2657.6755   -44444.809    24.017155   0.91113796 
   99900     214.0083   -963.62741    137054.33   -41834.754    2662.6701   -44497.424    23.899214   0.91126996 
  100000    212.32622   -981.99033    136981.58   -41849.214    2641.7418   -44490.956    23.882263   0.91175389 
  100100    212.89482   -984.48389    136922.78   -41786.507    2648.8163   -44435.324    24.023339   0.91214548 
  100200    214.53466   -940.35029    137004.09   -41790.499     2669.219   -44459.718    24.059716   0.91160414 
  100300     213.6334   -1053.8979    136829.59   -41783.191    2658.0056   -44441.196    24.090359   0.91276668 
  100400    211.82542   -1014.8492    136869.62   -41820.144    2635.5109   -44455.655    24.085079   0.91249972 
  100500    219.26164   -975.41788    136851.22   -41757.537    2728.0316   -44485.568    23.897268   0.91262242 
  100600    213.47046     -1087.96     136908.1   -41847.347    2655.9784   -44503.325    23.807273   0.91224324 
  100630    216.49999   -925.58691    136952.98   -41833.917    2693.6715   -44527.588    23.865107   0.91194429 
Loop time of 67.2927 on 6 procs for 100000 steps with 4175 atoms

Performance: 641.972 ns/day, 0.037 hours/ns, 1486.046 timesteps/s
98.2% CPU use with 6 MPI tasks x no OpenMP threads

MPI task timing breakdown:
Section |  min time  |  avg time  |  max time  |%varavg| %total
---------------------------------------------------------------
Pair    | 52.727     | 54.104     | 55.387     |  13.0 | 80.40
Neigh   | 4.6726     | 4.718      | 4.8099     |   2.0 |  7.01
Comm    | 4.5708     | 5.929      | 7.3548     |  40.8 |  8.81
Output  | 0.16001    | 0.16077    | 0.16409    |   0.4 |  0.24
Modify  | 1.7339     | 1.7565     | 1.7747     |   1.0 |  2.61
Other   |            | 0.6241     |            |       |  0.93

Nlocal:        695.833 ave         709 max         687 min
Histogram: 1 2 0 0 1 0 1 0 0 1
Nghost:        1428.50 ave        1440 max        1416 min
Histogram: 1 1 0 0 0 2 0 0 0 2
Neighs:        0.00000 ave           0 max           0 min
Histogram: 6 0 0 0 0 0 0 0 0 0
FullNghs:      18540.0 ave       18979 max       18066 min
Histogram: 1 0 0 2 0 0 1 1 0 1

Total # of neighbors = 111240
Ave neighs/atom = 26.644311
Neighbor list builds = 5164
Dangerous builds = 0

undump              1
unfix               2
unfix               3
unfix               4


################################################
#######         Run Simulation         #########
################################################

reset_timestep      0
log                 log.run_${NAME}
log                 log.run_liquid_density_MLmW
