LAMMPS data file via write_data, version 29 Oct 2020, timestep = 800000

4175 atoms
1 atom types

-0.16979594582722157 50.169795945827914 xlo xhi
-0.16979594582722157 50.169795945827914 ylo yhi
-0.16979594582722157 50.169795945827914 zlo zhi

Masses

1 18.015

Atoms # atomic

2683 1 1.8605377942212424 3.2186567406828894 0.038282429356009146 0 1 1
3319 1 2.4518135432588966 2.229280667220393 2.7680229357501394 0 0 0
1138 1 4.561394378115454 3.647233356546665 1.7254956950247795 1 1 0
3330 1 9.42582037459237 2.250743785292604 2.3116159261968168 0 0 1
620 1 41.39688185702988 21.08269064974044 -0.006379292240378198 0 0 0
3270 1 17.664095334534775 2.015685011441887 13.346961332346108 0 1 0
3486 1 4.1729570735914745 0.17610160061088953 6.558680426098356 1 0 1
1083 1 22.711402316135548 0.8344724772247583 1.5423253200208669 0 -1 0
86 1 44.807249731762255 14.222861662757413 -0.04023745424949568 0 1 1
4020 1 28.148728177022253 3.1593154260693157 3.182869567505799 0 0 1
3136 1 28.897486279235455 24.540622977352452 7.1121779467080675 0 1 0
2275 1 38.81291376944037 24.437587822640133 6.002763565476047 0 0 0
564 1 29.43914134267514 0.17314334860598296 1.9271314094326963 0 0 0
263 1 42.529165348035505 0.6965177134545676 0.9405027117738387 -1 1 0
1836 1 39.23164287236155 10.786203589844588 0.5601293576988959 0 1 1
1148 1 7.155104892551701 0.08896371331516467 4.3309576961955045 0 0 0
3369 1 41.66757160789835 24.224307187855757 8.814474319105717 -1 0 1
482 1 38.455520653960605 2.330564900078187 0.21890365023970082 0 0 0
4112 1 43.42848205023404 3.1620503159278996 1.5852864468967605 0 1 0
458 1 47.713505711272916 0.16452432893027158 4.692202358179925 0 0 0
2065 1 22.380165568532146 11.203094869990885 15.742347373893516 1 -1 0
80 1 7.873262527994486 4.571872150961434 1.7472920879058698 -1 0 0
1729 1 9.993608635012185 5.8405181147019745 3.2947934929159857 0 0 1
756 1 11.681891115615652 3.8800245452676707 2.17260998520988 0 0 1
1144 1 15.60839583677494 3.6644679778267317 0.4528637017599131 -1 0 1
1520 1 18.926656353486095 3.1749619490129537 2.854412421445646 0 0 1
3294 1 34.24585453392707 22.82481311589579 13.319477001309945 0 1 0
2313 1 23.22362594017296 5.073921902172957 2.2024264176100137 0 1 0
1906 1 26.6691903741135 6.771295719102902 3.4559524879773065 1 0 1
1304 1 28.95847037195511 5.7494006309150425 2.158471010640472 0 1 0
3019 1 34.1126662644283 2.6590887567414914 1.9990433279462971 1 1 0
898 1 36.67555697276876 1.8038058221045947 11.927275819050275 0 0 0
1887 1 39.722725088909755 4.653991532471734 1.42684643213499 0 0 1
9 1 28.619533703471735 10.556208175744848 0.6341841827430572 0 -1 0
1739 1 46.065830226727854 2.8048578888183724 1.2237583377410095 -1 0 1
3614 1 49.35848566879436 3.9892848953986446 3.7112801394623203 0 1 1
1792 1 49.97664571931976 4.483953397991685 0.7806754535730452 -1 0 2
3717 1 9.662763195344388 24.201177960490995 7.062516535368674 0 1 1
2607 1 3.261319419450891 6.191155854726486 2.192717631361041 1 1 1
2535 1 5.67734963862365 8.420184593501611 0.7162069359944161 0 1 0
2 1 12.341004469732656 6.286250488545325 0.6415231216768909 1 0 0
2634 1 18.382955623972816 7.410976440862495 2.2605838506941023 0 0 0
268 1 37.20292228293508 8.828284672742866 0.22436627611350812 0 0 0
1229 1 1.8268421727556055 0.2496878602888763 11.150433506554652 0 0 1
2072 1 30.206987760457146 8.35020088520581 1.6269561317142716 1 0 1
1605 1 19.804809724500977 0.3540156033811892 2.247236566335938 1 1 0
3035 1 34.77957662391971 8.129002552532219 1.6300716494098288 0 0 0
841 1 41.52211324335367 18.431866131661856 1.348842924561144 -1 0 1
3979 1 38.06807166255591 7.032375188380624 2.087751961690378 -1 0 0
2464 1 40.85422510480936 7.854532391001024 2.3452182292190162 1 1 -1
671 1 44.494532111764656 9.149129422526439 1.7074357661601633 1 -1 0
487 1 45.98343146245776 6.808087256456963 1.9928494788991316 0 0 0
2703 1 47.99912060752051 9.088407844070327 1.9715245558978252 -1 1 0
1404 1 1.318229260474539 9.838867412409112 1.7146287294930718 1 0 1
316 1 3.594441657060612 11.565761665982338 2.2237589633588284 -1 0 0
334 1 8.734883155389165 10.446785291598317 3.223334409984029 0 0 0
3422 1 27.437663049761284 1.0058707886771687 -0.09488448204516606 0 2 1
3313 1 11.114650288500702 10.790313371549868 1.8971016350005887 0 0 1
578 1 13.122323576090977 8.897936332961836 1.4321644324766687 0 0 0
3858 1 17.054427102318076 10.010657169892196 2.0147390714156472 1 1 0
1210 1 42.210805817943836 9.371353670227007 14.636308212453319 -1 -1 0
1365 1 18.733139066689613 11.340191898505081 0.12864855749940962 0 0 0
2972 1 20.752244112667288 9.790900977715506 1.6623562001362773 0 1 1
2146 1 23.005981132039647 10.13303736254652 0.11135935912750689 -1 0 0
40 1 24.544474143745827 9.625686963836984 2.315539321589042 0 1 0
190 1 31.10320543657578 12.005981549395473 1.7710636924079404 0 0 0
1827 1 34.216496687925755 10.089819336927448 3.7159715910699664 0 -1 1
3782 1 26.651470987063092 8.510692579587488 0.8191143114402953 0 1 1
3445 1 26.128506200801983 23.891031948274797 6.774358056732388 0 0 1
1346 1 28.995453980909012 23.08793292898767 3.448682698952562 0 -1 1
3451 1 42.25358626247606 12.300868307508592 0.8699164183443675 0 0 0
1018 1 45.099584223277205 11.392642525368087 3.7061761364747023 -1 1 0
2403 1 7.553427247741507 2.8119986847523295 13.808536037651685 1 0 0
2461 1 19.536502325495128 0.06942844763388653 11.619240684227629 0 1 0
2649 1 6.430217450817453 10.963640609662447 1.4616127270625545 1 1 0
3119 1 8.877683439807829 16.019591118342664 1.6349722164472567 0 0 1
3677 1 14.116630167264988 14.25687531615108 0.7396400565250241 0 1 1
3281 1 15.39129434668945 9.793358195855921 0.11635481460754071 0 1 1
264 1 19.783988285019216 13.706673488179097 1.0233016279333143 0 0 0
3490 1 22.51226096654535 13.003125127981312 0.02534819432950966 0 0 1
1526 1 26.168635929993005 14.461708302726091 2.1944183496453067 0 -1 1
1624 1 27.309642122430215 11.711960984585609 2.610699697769344 0 1 1
3182 1 33.94965576274066 12.11191595312548 2.097247986527165 0 0 0
942 1 32.25066859355155 14.68759571494544 2.764906111581127 0 0 1
2880 1 32.531050016315135 8.15264223484585 0.15772447057721523 0 1 1
729 1 37.72456082817071 12.990705647566694 1.3042828541366196 0 0 1
240 1 40.407302694432715 14.29546562797498 1.785989760114559 -1 1 1
3784 1 46.89299929574277 -0.059276186457149604 15.807092198594388 0 1 1
2271 1 28.42537312952584 21.888345358822562 16.314297560983892 0 0 -1
332 1 1.8951395863987321 14.257143635677947 1.2753356799683504 1 0 -1
1044 1 4.784844855052004 15.301959965788301 0.5972253372137739 0 0 1
3329 1 0.6924329029093124 16.778173234310398 0.6776999053729806 1 0 0
4099 1 6.8765049294895455 14.1950846857253 1.9752431340950616 1 1 1
2031 1 7.651939759143903 18.81698789944873 0.8940331286110281 0 0 1
3983 1 18.070572257349077 17.676480320676536 2.4018696380133946 1 1 1
1961 1 33.84705147066471 0.3535908652033939 12.554172099515469 1 0 0
2839 1 23.62453591825823 15.24848769388684 1.2538049597519916 0 1 1
1253 1 19.693511264499897 3.9174388842322374 0.19801033183083083 1 0 0
2269 1 28.24188367214127 16.569111576618628 2.3247388399686377 -1 0 0
925 1 33.63141781066403 16.13944247311644 0.5403148443962865 -1 0 1
2051 1 40.0899543869773 16.568785169738284 0.36690093700452486 -2 0 1
2893 1 0.5160573566928317 23.59031917529636 10.916254164764574 1 0 0
3172 1 43.14641431129738 15.929926288010599 2.0686095369523043 0 0 0
30 1 38.53823914551113 22.697286809494 14.595763238053262 0 0 -1
3038 1 46.361091709406935 16.285859137849823 0.7503424968519001 0 1 1
4001 1 44.40288824297433 18.31401163567093 0.9392300575534234 0 1 1
1619 1 16.60622130712963 22.758303402659603 0.280194524694406 0 0 1
2458 1 2.5326759022376684 21.169670638813407 1.7940069509259473 0 1 0
352 1 3.1450299033750215 18.323921068021747 0.7187525231285571 -1 0 0
2801 1 5.353345185629775 18.08678028799272 2.3634479859525865 1 0 0
3208 1 9.679467099240503 21.43568148673615 2.693555894208411 0 1 1
320 1 11.915279494968958 19.921134639324194 3.6568320598824244 1 0 0
2262 1 14.012090969932538 20.808692833298725 2.287894740378066 1 0 1
1606 1 18.80640973661137 21.180150923819678 0.07591902031564088 1 0 1
3473 1 19.560211695637197 21.69383145780736 2.839859602622181 -1 0 1
4111 1 22.372579276022737 19.437000237899195 0.9984834419762663 0 1 1
3133 1 25.588644409734595 1.432819794201322 2.1612493145245857 0 0 1
1864 1 28.034398787050556 19.20617431363831 2.7133590615990597 0 -1 1
1398 1 33.63113334250495 21.072890168077596 1.7987614413014117 1 1 1
3700 1 34.93418070409312 18.37116509453075 1.7782358158146097 0 0 1
3773 1 36.78707368322263 19.612292378090643 0.00041442227373861273 -1 1 0
675 1 41.67070535680263 19.50281609745096 3.9303972799900055 1 1 -1
146 1 11.69256922636717 0.05497453139466105 13.50349719587795 0 0 -1
3048 1 -0.0822630419317719 21.240758461068204 0.6466643867264263 0 0 0
1146 1 41.3641582172167 23.445467436733946 15.719161642918037 1 0 0
2775 1 14.424389578724554 23.499495561725055 2.8007281793765713 1 0 0
691 1 30.141010329338886 22.10510265398937 14.210345339074816 -1 0 0
2374 1 24.82315695151189 21.474314226504973 1.1254926517255213 0 1 -1
3087 1 26.646345325733453 1.256476363425235 15.040106042316262 -1 1 0
92 1 30.853200864889562 20.94609538235271 1.5477936870168363 0 0 1
2456 1 11.55232470191644 23.944545494166523 0.14762851559441953 1 1 1
2100 1 38.85451440653685 20.923979028230388 1.13190845756064 1 -1 1
2647 1 38.12587224297896 23.60199286028093 1.6631878070805557 0 0 0
2437 1 43.02078701603537 23.01765701394681 1.1982811335975303 0 0 1
3465 1 49.55436398395359 23.771118539861543 1.2269799994394184 -1 0 0
309 1 16.64270742583882 23.603017156534253 13.124073837891084 0 0 0
186 1 5.052233984945483 1.6638339875432981 4.463419008422221 -1 0 0
523 1 9.851496120932355 0.9536935744997566 4.704368895872915 1 0 0
1919 1 26.903882295446873 19.852964991159787 0.5336641126771099 0 0 1
124 1 14.770437700722258 1.6631841391485587 4.259089233199052 0 1 0
2414 1 40.41376592827547 24.91564891294049 2.023287417973136 0 0 -1
612 1 22.270790484483317 1.8302252514735184 5.390675178750663 1 -1 0
3411 1 25.52924793180819 4.153106872543006 3.6905005386339504 0 1 0
2642 1 8.199004143115511 0.49846366210501003 0.036606698405610316 0 1 0
787 1 32.49724438618088 1.3981937968884897 5.850214451533826 0 0 0
513 1 1.9628678351978572 24.286777482353667 8.888565784075704 1 0 0
1528 1 36.5713179433408 1.6461714998822683 2.4787230700110077 0 0 1
2720 1 19.82965052431577 6.88358735657487 -0.13417756264047598 1 1 0
2244 1 39.05018275281343 6.030618394895922 16.048467372937196 0 0 0
3727 1 35.31218377482169 1.5657855587060772 5.677913824149766 -1 1 1
3 1 47.00633918328093 2.5995633589209466 3.6568814672229193 0 0 0
192 1 1.424743224016082 3.2206858310081286 4.889761847388474 1 0 0
432 1 1.8610717411267537 6.069714283080747 6.50320237959473 1 0 0
1028 1 6.492828097321403 4.208200948316175 4.542007834512791 1 1 1
2059 1 12.923867017179298 3.85904320717838 4.744467177813034 1 -1 1
1655 1 16.61898357909791 5.326058177507266 2.7198901640506516 0 0 1
1105 1 17.49300067051939 1.4589519978629313 4.327971271771467 -1 0 0
3076 1 20.354146421296388 5.4296936017314055 6.457442314508562 1 1 1
3913 1 21.35083175791773 3.783126004230418 3.9279357111169553 0 1 1
3915 1 29.650088950692833 1.096976221832524 4.6816801069527285 1 0 1
3444 1 31.389819415554637 6.034920539773249 3.86803156619387 0 2 0
2075 1 34.24401154345556 5.8530652988579925 3.3889416672971695 -1 0 0
3274 1 35.07548021508637 3.818143028770424 7.667488691062718 0 0 0
2109 1 37.52780065467101 3.006645804369213 4.82424584699839 0 1 0
1473 1 40.07425168946969 4.036793003581539 3.8887079269572995 0 0 1
3355 1 42.56611968461728 2.7051035116705626 4.161343648111774 0 1 0
1084 1 45.23785621094484 6.505823278237225 4.6986075817619355 -1 1 1
1553 1 45.022651717417986 3.3862761182555206 5.332520741534531 0 1 1
3464 1 2.110654400649309 7.652482285621045 4.210326643047049 1 1 1
1571 1 5.900455939674007 6.709294181513649 3.1083888117867287 0 0 1
1705 1 8.273366016814595 7.965029302955072 4.285118035258172 1 1 1
4068 1 11.01427536458444 6.0257247143578425 6.2506395604744664 0 1 0
2040 1 14.662328669206222 6.203536553426553 4.553858689032324 0 0 0
3573 1 20.01417016310195 7.293318327263199 4.433449914841135 0 0 1
2678 1 22.9287200252099 7.687320103692378 3.340502823644641 0 0 0
3575 1 28.236539033122995 5.334887062347667 7.3265607336604175 0 0 1
762 1 27.117377800172218 7.564018080221784 6.130851023767415 0 0 0
1508 1 31.424593013743095 8.007668991840019 6.048780603196678 0 0 1
1664 1 36.82310884712501 5.9815081880480925 4.386451733481933 0 0 1
2225 1 37.3851410834924 7.001509359892202 6.955584466758211 1 1 -1
2024 1 40.33196973795087 6.216457725846837 5.8769568485468735 0 0 0
1259 1 42.482985889497826 7.704013132170267 4.746193265826272 0 0 0
3130 1 48.21758374981279 6.375322923046221 4.580918012868635 -1 1 0
1296 1 5.808109359540663 8.329974643634081 6.00666974631428 1 0 0
3160 1 3.787751174229613 9.848228090180253 4.648297828166599 1 1 1
1523 1 9.004500982815737 13.108541900805095 4.697593084757015 1 0 1
3394 1 11.359540947876683 12.484400153422012 6.377263553526865 -1 0 1
2093 1 13.61074875787907 8.845141154279194 4.004563644285852 0 0 1
2769 1 15.712317584027401 11.002725145370523 4.129338385580216 1 1 0
3084 1 20.400300282073598 10.109956228884315 4.931073721124714 0 1 1
3331 1 23.029968023546576 9.061735552270829 5.981770081311272 0 1 0
2462 1 29.12757650820253 11.20772336577388 4.628767894415506 0 1 0
3326 1 31.40753623466068 9.797256179617598 3.84668787075205 0 0 0
3090 1 35.19188207794491 11.92192479190937 5.531141761082569 1 0 0
2545 1 41.077490967691034 10.61208030032932 2.757195597139292 0 0 0
2565 1 39.45611450669897 11.315854751965785 4.954592653083172 0 0 0
920 1 43.20073959013324 10.442702760784416 5.593074925391098 -1 0 1
3675 1 47.63147520846367 11.787987169410425 2.3400285745976053 -1 1 0
984 1 49.02037457163972 10.19322345568806 6.285669609118399 0 1 0
149 1 49.74944383187692 8.739724955645144 4.03842642851008 -1 0 0
383 1 0.020131836095205663 12.742547950193927 5.703310210107316 1 0 1
2619 1 2.665049562210969 13.27773057615281 4.146913508649762 0 1 0
1982 1 2.5587768909747206 11.517158798328266 6.603811125016345 0 0 1
51 1 5.7699514698044005 13.903972126377457 4.395615488268307 1 0 0
3227 1 7.118017594043287 16.20105318346981 5.542344575991409 -1 1 0
1538 1 12.573166070454134 13.178745650601405 3.0512095113930346 0 0 2
3582 1 15.462183263324487 13.58861719939887 3.186494530064695 1 1 1
4048 1 18.999894934611333 13.319905458869165 4.888447537610113 -1 1 0
616 1 21.270276035870815 12.239918090677397 3.159035357709896 0 0 0
3732 1 22.269973737187645 14.054412436894173 5.040243804846678 0 1 0
3778 1 24.97180650859076 13.142260264865678 4.525960584203092 1 1 0
778 1 29.27440479947787 13.810940610362044 5.939140843703385 -1 1 0
3719 1 30.06120977346249 15.739081098306976 3.9619648124171523 0 0 1
2473 1 34.04207972955719 14.608560365518152 5.214882458289198 -1 0 0
2811 1 37.54499662369838 13.086342400720536 3.932508582765599 0 0 0
764 1 40.29976754047347 14.626578683289859 4.481483972117469 -1 0 0
1150 1 47.380003366401354 15.552292385602815 3.245172122553664 -1 0 0
98 1 44.139389477867525 13.990958696296099 6.383594543561198 0 -1 0
3225 1 49.85193562269549 13.740653721427071 3.082667631462276 0 -1 0
2603 1 1.2953728098407211 16.73576130695049 5.153405224481034 1 0 0
4074 1 49.90303061701448 17.152175135245052 2.9848621443494574 0 0 1
1046 1 3.523472671012132 16.01790916223784 3.6618391846037777 0 0 0
3851 1 10.684074250005837 14.995636445156569 3.5896315355944233 0 0 0
243 1 10.271813498032822 16.99285510090656 7.5265806805623585 0 0 0
508 1 11.094943559220333 17.332399617803883 4.83691215726757 0 0 0
2732 1 13.977243786269836 17.28872779714696 4.709669635621961 0 0 0
971 1 18.113587115286077 14.725448457007271 2.627792819982313 0 0 1
480 1 20.31788854195333 17.927419870709343 4.181453089345226 1 0 0
1486 1 22.535565390924006 16.23937812223178 3.468021195240403 0 0 1
150 1 24.651303609862772 16.884247335104437 5.202619033881653 0 0 0
1379 1 26.55029538251765 13.801608418598619 6.907955779603925 1 1 0
4133 1 30.952444589399917 17.71515919304747 6.067448325266658 0 1 0
2338 1 30.747124373664242 18.33571930262918 8.720185291390692 0 0 0
1685 1 35.73428932090553 18.170282306191897 4.463121285126545 -1 0 0
2145 1 37.127621658139404 15.668650595293164 5.405209782447137 -1 1 0
3414 1 39.56313464546177 16.746094804039977 6.33042595948084 0 0 0
3771 1 44.89571653926525 14.023722994047224 3.7540191337015565 0 0 0
387 1 38.0914167019215 19.889170691235396 3.7505280703415513 -1 0 0
2808 1 48.16121664076529 17.722879513864985 7.572592317053342 1 0 0
3625 1 3.9497164247584573 20.296575709180438 6.195834916599545 1 0 0
2851 1 8.385139217231849 18.068101725926585 3.88026671595291 2 0 0
396 1 8.597357049708453 20.486198000362716 4.9508644796454435 0 -2 0
647 1 15.733831698819484 19.0252539118996 3.2599896143366713 -1 0 0
978 1 17.43433399018986 21.0175804552325 4.470247229404841 0 0 1
2327 1 21.681388469034363 20.174487335046518 3.5465576564782273 -1 1 0
1640 1 27.65562274242262 16.636312053795947 6.121958913270012 0 0 0
3044 1 25.747898174396582 19.43772823607281 4.42457025450808 0 0 0
1282 1 30.901293718761046 20.23813011497266 4.395858847501834 0 -1 0
3022 1 39.66849296061113 21.811342605423487 7.245812043370687 0 0 1
173 1 46.1553867181575 19.836889834774144 2.8611289045263453 1 0 -1
2737 1 46.46751788535926 17.99177163135558 5.080491278720708 0 0 0
3400 1 48.864355353436935 19.954565149584845 2.7253905434342904 0 0 0
1768 1 2.0906297142066985 22.560860626623818 4.335444840025371 2 1 1
702 1 -0.15211896421937862 20.935706810205904 4.960631846840598 1 0 0
1054 1 4.8359840004066 20.918848790774643 3.626192461384424 0 0 0
1157 1 7.1064623817002435 22.423180558524194 2.5661399107306955 1 0 -1
772 1 7.5533923690057065 22.92677227986474 6.0218339789181945 0 -1 0
2410 1 11.114436806744186 23.644688822064108 3.114503314563122 0 0 0
3993 1 12.29340326543726 23.966810703826376 5.772495748468502 0 0 0
3318 1 43.08965174383816 12.140402190425066 16.37287226100321 0 1 0
1762 1 15.746773302204923 23.452507261119106 5.424428202656203 0 0 1
2767 1 20.97228883709098 23.3973677010303 6.586244603080084 -1 1 0
197 1 20.364314418702623 24.01848977827125 3.9838443621188393 1 -1 1
1540 1 22.454123590598737 20.96658551149717 6.0874506169284786 0 0 1
1014 1 24.442001074719244 21.730183762986456 3.8827131969602844 0 0 1
1416 1 28.904671715569066 21.693040720934082 6.129147158453157 0 0 1
2223 1 9.475945682752313 23.295452420285372 16.430369719254866 0 1 0
2768 1 34.10288236554072 22.55507876173135 4.049542686291946 0 1 0
345 1 36.951307738040086 22.279186488773338 4.451977991170992 0 -1 1
4051 1 48.184176397212156 15.927353102395035 15.341266421968442 0 0 0
6 1 42.55692550367273 22.165047487720756 3.6283248225798106 -1 -1 0
3110 1 45.28659776176819 22.238394969757667 3.7337032159067056 0 1 1
1969 1 46.24683518861623 22.51390561204972 6.237428096552625 -1 0 1
3179 1 3.4571486528715445 23.342129086637932 6.6363964222419645 1 0 0
737 1 1.4545185291020248 2.170033361443517 9.034661578135351 1 0 1
3815 1 41.22754262236768 24.33904933760627 4.559159247924335 -1 0 1
1712 1 5.609103727732068 0.3178776743350622 9.006918697611878 0 0 1
973 1 8.298568079506703 1.1963897960713303 9.141075243957957 1 0 1
640 1 14.40515279264183 1.1184540627218613 7.565463566188288 0 1 0
3657 1 13.624766167366083 0.49145686585866144 10.146569612534943 0 1 0
2514 1 20.28463112243075 1.2778193519333123 7.2612656524877 -1 1 1
1347 1 44.093618374913035 0.4225481001828524 16.361159912430967 0 0 0
977 1 26.25306098342683 1.4179300734308604 7.512536148116563 0 0 0
3925 1 49.257720398938616 23.399495649735734 14.116580014029369 -2 0 0
2034 1 35.40792724892344 0.38388273184637434 8.569168529804145 -1 1 0
3770 1 35.808776267827085 24.292783699759077 15.157807158619349 0 1 1
1477 1 43.35005024444628 1.7912407351465411 9.34895830120936 -1 0 1
4092 1 22.377521093868445 19.280495363049198 15.51876120544219 1 0 1
4156 1 45.77302703559461 1.9442016301067127 7.697602523791335 -1 1 1
3545 1 0.11000403589035301 1.5146455274457125 6.777397841219771 0 1 0
3053 1 47.88808775579207 0.10078699012431541 7.475716466854588 0 0 0
1976 1 49.87256061144981 3.9769511173923267 10.494327692079011 -1 1 1
1620 1 3.3389428483694124 3.113267338853174 7.017226832533531 1 1 0
1136 1 9.313302691586918 3.679246735386649 5.58252941691779 1 1 0
914 1 8.91743360296591 3.7948060509661476 8.451567871052319 1 0 0
4134 1 11.86839952511688 2.404010234470271 7.007051260263968 1 1 1
1928 1 11.62092544063965 4.062445914641908 9.249897135687863 -1 1 1
1476 1 16.497837505709438 3.0457721028422617 7.752607675819469 0 0 1
2930 1 18.73603609925877 3.0680509047192888 6.366705522033376 1 1 -1
2161 1 19.828408518141515 6.712323418257479 8.905998573153113 0 1 0
2095 1 23.08096177465746 5.0631108103391265 7.573155900198339 0 0 1
794 1 24.54129489445056 3.149795165349996 6.079361287033227 1 0 1
2570 1 30.00597649917792 4.078395343627538 5.575555835983305 0 0 0
1859 1 26.735524803326268 3.576046187924282 9.109893545702045 -1 -1 1
3852 1 31.947996329745084 3.5530622455333645 7.6922865848985 1 0 0
3967 1 34.557964049203505 6.596297731609326 6.461302939956663 -1 1 0
922 1 38.826708220844836 2.7521341475514336 7.228022437276993 0 0 0
3760 1 41.53488310200885 2.5200960148828226 7.0764610768398795 0 1 1
3147 1 40.550966109186305 5.415028983654044 9.897487123614278 0 0 0
3920 1 44.455790928854256 6.080237856456216 9.168363105036605 -1 0 1
483 1 48.39979207423282 3.5345588333532767 8.091035741983351 -2 0 0
1671 1 2.259434642610141 7.685122874421423 8.825863297481476 1 0 1
2423 1 4.905414491929949 5.684866188946563 6.571065622802395 0 1 0
2503 1 9.43411708505989 8.660509606834545 6.710545356583521 0 1 1
3146 1 6.527045792264136 5.46492144303997 9.084969530139738 1 1 0
3350 1 13.176358328726652 6.146961395958366 8.487035281780038 1 1 0
3781 1 9.43695333509096 6.887058205005298 9.006796327781132 0 1 1
1381 1 15.554622217738137 5.385922930481758 7.149137935799157 1 0 1
1810 1 17.10530973007259 7.429839207697646 8.733456606075054 0 0 1
1213 1 24.63009631076455 7.3156049021166805 7.41213083285215 0 -1 1
2694 1 33.68234314215043 9.81314203726215 7.044905777497747 0 1 0
247 1 32.38748748520614 6.087427025311069 8.58569220028434 0 -1 0
3765 1 34.38863450334914 7.102192193597554 10.255525793839961 1 1 1
3532 1 35.88191552443685 8.95341436338672 8.557185120132356 0 1 1
646 1 37.602958188427536 4.740762820466428 8.690809318725943 0 0 -1
881 1 39.372267495336644 9.099597207281624 6.809963198835598 1 0 1
1701 1 42.13579280773226 5.218854287303604 8.010035638062067 0 0 1
1251 1 45.995790763939226 7.882701903208758 7.3244752171103675 0 0 0
2889 1 49.403790834914005 5.7190326278714405 6.87911885226115 -1 0 1
2280 1 48.4763206376757 8.125287739164907 8.028702522347897 0 1 0
3091 1 0.7836441494924496 10.008853468548645 8.494108369704545 0 1 0
3878 1 5.234766303722804 11.807006372305388 9.980500834331679 0 1 1
3595 1 7.215053292210679 8.125831378873908 10.615062504194219 1 1 0
2728 1 7.102047533318917 10.197443339957028 7.875389056187453 0 1 0
176 1 11.819530686873987 9.899012860950002 5.795902920070759 0 0 0
2777 1 15.328396468831809 15.063718332222406 5.422854194737026 -1 0 0
1880 1 18.225023689862596 9.158345951844659 6.614310428553658 0 0 1
3455 1 17.099007762394223 11.799694097250521 6.383824733871946 1 1 1
1586 1 18.78140372898182 12.80120871672091 8.730373684536975 1 1 1
2329 1 20.155156501847724 10.100258903824841 8.263533005704618 -1 0 0
254 1 25.243087646428183 10.371327967051458 5.175315456758936 -1 0 0
670 1 26.156675105740593 10.98645287920761 7.758859413350622 -1 0 -1
3745 1 29.078873239241837 9.382471137492082 7.004054877878591 0 1 1
2499 1 29.183716814270664 11.314704409399338 9.029095047778782 -1 1 0
3912 1 32.06519621840043 11.35418766965939 8.949537663489778 0 1 0
1531 1 37.36881203330785 11.174243165290658 7.522101805766977 0 -1 1
53 1 36.357329664645036 10.48097909451002 10.780803479053905 -1 -1 0
1196 1 41.58024313567408 12.775364901425283 6.468164314410834 0 1 0
2817 1 44.0228991309131 9.590580475992432 8.148549344820745 0 1 -1
2826 1 46.48340588218247 10.74546341537447 6.201287120686242 -1 1 0
2929 1 4.389306610189859 13.275786341385405 7.894253093210677 1 1 0
4045 1 6.908478412091053 12.870251944147299 7.023443164702058 1 0 1
3098 1 8.163812258131008 15.122139347962204 8.128125377830344 1 1 0
3917 1 7.219429881895833 15.751866615230055 10.52624923094925 0 1 1
2123 1 10.085896922317097 12.952849876361821 8.667372491488507 0 0 0
703 1 14.070236741061112 13.299620018074643 7.134494402030745 1 0 1
1738 1 17.739109069911496 15.055393577833332 7.191888342346349 0 0 2
943 1 23.225233961645458 10.594351232271707 8.49294951340458 -1 0 0
121 1 20.41235874909358 16.048734025599913 6.424781828184386 0 0 0
4025 1 24.96962747430341 15.103440769969245 8.94864560014092 0 1 1
214 1 28.76218266884985 14.73687568576803 10.409408167044207 -1 0 0
1915 1 30.4114345663603 14.043175964541627 8.319065414089541 0 0 0
1913 1 36.762824192439226 14.003670578164634 7.716464234986385 0 0 0
2454 1 33.718079329516456 13.73046460378946 8.055521004642225 0 0 0
1303 1 40.60370350807233 13.63874274238436 8.80833846601498 -1 0 0
3226 1 42.47648211289385 16.215810667107178 6.801102240579059 -1 0 0
2416 1 46.37538559605831 13.080633894892008 7.671669783137377 0 1 0
1277 1 3.5545387217905655 16.13035118916365 7.851154398353923 1 0 0
1569 1 4.907941483337827 17.416436319832354 10.084429716396993 0 0 1
349 1 7.676054623306681 18.47469631045526 8.585472976239943 0 0 0
3117 1 12.409134975908382 15.405587393087181 8.423203101982363 0 1 0
3629 1 15.40179286404096 19.040830605201926 6.396775242139864 0 0 1
1834 1 17.7808377912153 18.111106340656708 7.385510748042638 0 -1 1
3592 1 21.07191419059203 19.5165327962306 9.365813479708738 -1 0 0
3876 1 24.916551653881484 18.066646714651544 8.893860749983002 0 0 0
2366 1 28.16581750971085 17.210917814699144 8.859709757345685 0 0 0
3995 1 31.7033326851485 21.263769169043996 7.528577326497729 0 1 1
2476 1 33.53582426220001 17.02567487078601 6.177600523149451 -1 0 0
1340 1 32.49784483342222 15.86645378070267 9.401060695999533 -1 0 0
1375 1 39.70501733277099 16.172439413098285 8.958485390858543 1 0 0
1714 1 43.498073452738026 17.58085536850528 4.557551031128118 0 0 1
3428 1 46.15665351227655 17.49944445679377 9.735961319939594 -1 0 1
2670 1 48.644055097462 14.831995233249954 7.274642626095001 0 -1 -1
33 1 1.4278523430843222 19.348826470248778 6.1943221486660764 0 0 0
3906 1 0.283757600586469 19.152092384380232 8.67799436618171 1 1 0
2771 1 4.618342382859794 17.271707227285628 5.701042032874383 1 1 0
3674 1 7.044748081854591 21.328289923320337 8.344866985137966 0 0 0
2472 1 10.764087898882586 21.68473067893737 8.93943808565376 0 0 1
2896 1 11.148623793084672 21.302240467392007 6.342399872146884 -1 0 0
715 1 13.985828151695117 21.494335389755367 6.814751738864472 0 0 0
1187 1 19.431454597061215 19.974525727917463 6.096883662598083 1 -1 -1
3104 1 18.667848906602337 22.35804591933895 7.583439314180001 1 0 1
388 1 22.637893702362582 18.144133283942452 7.160232248607313 0 1 0
3376 1 29.786662802681168 20.57304452316597 9.943970477030916 0 0 1
2239 1 26.864299369258745 19.756580932304747 6.9835540350603145 -1 1 0
206 1 33.83404342920811 20.426941180066724 5.5170881067248105 1 -1 1
399 1 34.6320340658408 17.71152076756769 8.554224566925242 0 0 0
2427 1 33.61290814517616 20.1864224592393 9.485348895770027 -1 1 -1
1489 1 39.53825555379919 20.83779669725665 10.196740634680872 1 0 1
2381 1 39.55775296065468 19.25157032091079 5.793296004368004 0 1 -1
3509 1 42.948720112241546 19.595096585501437 7.18607844728065 -2 0 2
3289 1 45.644200863163334 19.609839323320998 7.314231838405613 0 1 1
1366 1 32.52143294410003 0.6006120698589742 2.8579993469023646 0 0 0
3728 1 4.607415400813065 21.692355519672255 8.987959266483088 0 0 0
507 1 5.6793459454314155 23.860645008895244 10.986002977446407 0 0 1
422 1 3.8891128583605212 22.602669742049194 -0.03812357431469873 0 0 -1
3256 1 23.59318538178144 21.87074285037298 15.242629732543385 1 1 0
2945 1 38.7386476384757 10.558002068250657 15.118573573797251 1 0 0
187 1 13.222734244038275 2.1002925727046744 0.5698182107880783 2 1 0
2640 1 16.913644886628106 24.056711963066522 8.548694660182818 0 0 0
2917 1 24.87573708662345 21.653900693548167 7.931547931287135 1 0 0
439 1 46.61901105355658 24.44885197403679 2.556443825968401 -1 0 0
1956 1 31.59312798745671 23.9811466852722 8.229384314078628 -1 0 0
3177 1 33.96280856677829 24.21256626633866 6.752472256736271 0 0 1
401 1 36.04020458931328 22.102114162259525 7.077964060042798 0 0 0
1205 1 37.664368406412265 22.94574085011495 9.493377738366195 0 0 0
3825 1 42.40904558343874 22.385600263836537 7.043802118988203 0 0 0
2873 1 30.824086566523572 17.788443039441834 15.990024781862392 0 0 0
2395 1 18.4432859908209 22.99697518374928 14.996378196787965 0 0 0
3895 1 48.80724533642949 22.999035176739397 5.98434700824844 -1 0 1
1636 1 22.320035542546165 24.98623659840318 8.32726126980232 0 -1 1
4171 1 24.18501865310294 16.986294188713217 15.813161328405638 0 0 1
1317 1 4.18039946683722 1.4449442910866548 11.17318179746155 0 0 1
2539 1 8.977279573454728 1.1888086197886143 11.989715514714268 0 1 0
4013 1 11.802153203084366 1.9682836632392795 11.58748529793336 1 1 1
79 1 18.27766791359629 18.634865491868087 -0.04428637929322715 -1 0 0
281 1 16.05197474549853 0.6560564209636722 11.593460397823986 0 0 0
828 1 20.63906152915623 1.7049862928338608 9.784486625402403 1 0 1
1325 1 22.2834252305436 3.1554077969267427 0.26170879453478035 0 1 0
3135 1 23.059905712604237 1.6763072475226064 10.786583551101314 0 1 0
3164 1 12.639555236270704 22.47036811144503 13.09481710001566 -1 0 0
602 1 14.10540331602801 24.50983199303092 14.096645064552117 -1 0 0
2516 1 38.0249518498524 2.218766972739323 14.355432162667455 1 1 1
2308 1 34.20433713840042 2.1783317712825467 10.250331316268227 -1 1 0