LAMMPS data file via write_data, version 29 Oct 2020, timestep = 800000

4175 atoms
1 atom types

-0.5334596605403519 50.53345966054151 xlo xhi
-0.5334596605403519 50.53345966054151 ylo yhi
-0.5334596605403519 50.53345966054151 zlo zhi

Masses

1 18.015

Atoms # atomic

2758 1 18.905598854358473 9.398771759098159 -0.27892269215214205 0 1 0
2642 1 5.705055452134712 1.2274941902623038 2.3785255596564925 0 1 0
2002 1 17.283463177621886 18.509857393173494 0.3054842626155402 0 0 1
277 1 26.889095163714796 24.259749456967487 14.591894623992534 0 0 0
1584 1 20.779656178836138 1.1186653463652076 3.109669043540386 0 0 1
2221 1 0.510795195866691 23.280563922853307 -0.23828572786022395 0 0 0
1474 1 26.94405749805262 1.1081155914428755 2.3878091621203206 0 0 1
417 1 27.512670127689738 0.25408320052559774 0.025225675409346726 0 0 0
4052 1 29.30670166369495 2.5952831039031916 2.7510115631089245 0 1 1
662 1 31.09578750431512 0.41658515870757895 2.0273208085960635 0 0 0
1463 1 32.72258104039699 2.384472921962598 1.0678356660514352 0 0 1
1963 1 37.78376914870618 -0.41732019429014144 2.1587021708771545 0 0 1
2780 1 15.332563755981791 24.67761476231673 11.670032110716814 0 0 0
506 1 40.52492582517274 0.42125252287681336 2.140659013785643 0 0 0
327 1 41.455461978716734 2.6246778712469028 0.578416213190234 0 0 0
2343 1 44.95154300827019 0.5180184770541973 2.563137390796632 -1 1 0
2392 1 50.09548554387708 0.8104273431149045 1.8689285560648026 -1 1 0
3860 1 0.573300714892401 3.163794396871639 2.4975194563134018 1 1 1
2063 1 5.588835731434747 0.8148322635422773 -0.42807779849369504 1 0 1
3936 1 3.9629868877112306 4.424404509453062 0.589562755169811 1 1 1
57 1 10.275898014426543 4.474295185351656 0.5888118759117189 0 0 0
83 1 12.622834072169406 3.223984268776729 1.0031245761979706 1 0 0
2525 1 1.4317347492951804 3.8820554824395535 -0.019474761937511742 1 1 0
303 1 41.31017406192281 24.98110792410955 8.545447506765303 0 0 0
2183 1 19.94276948625495 2.6380143628677653 0.5992540621386537 0 1 0
2723 1 18.022564316851707 3.9858020510728576 1.7783103817687054 0 1 0
258 1 24.853798162011095 3.1540941088247645 2.268221347191929 0 0 0
2041 1 28.647018147975114 4.588509272686355 0.9210830941723522 0 0 1
1614 1 31.47732017909908 4.738104526222945 1.8710237415126407 0 0 1
589 1 37.275362166784305 4.46560420419356 1.3061985606550748 0 0 0
21 1 40.02602675639907 4.561638114187989 1.772933006061645 0 0 0
1509 1 44.15034143804565 2.8104059902872023 1.0525497710018334 0 0 1
2046 1 45.33932272044724 4.56552562603565 2.83883248799785 0 0 1
3612 1 49.33833747630653 5.196314427452122 2.6470649557045776 0 1 1
4069 1 16.52732896645237 24.705236179990127 7.425321088728473 0 0 1
379 1 4.750149666794882 6.888520163996377 0.1358186912455891 0 0 0
87 1 3.36960045323978 9.160389355320849 1.1330471714069243 0 0 0
237 1 6.264009943500302 7.585486660684204 2.385783858256113 1 0 0
408 1 10.887505231856156 7.063965080575599 1.6418272191390222 0 0 0
616 1 13.397512420559812 7.771683584364119 0.6495629425093585 0 0 0
2633 1 15.239124459916042 8.43649282606013 2.6177655427271382 0 0 0
1631 1 20.143928241089586 8.051181717988085 1.8466223243233104 0 0 1
1298 1 22.148965593363485 6.54126963803245 0.602316010797785 0 0 0
1563 1 24.14867233654157 6.2712377233407395 2.4754412919249527 0 0 1
690 1 26.898506361444504 5.527978975029385 2.5081307255400933 0 0 0
3 1 8.26614716148655 20.92763140354563 -0.2863237438253067 0 0 0
2596 1 36.73363455710541 7.112039845490828 1.206366917250091 0 0 0
372 1 38.95785614590123 8.556090781361412 0.030735248348341626 0 0 0
652 1 43.92324794802192 19.729748520052425 -0.3199254460205463 0 0 0
1833 1 44.98748388761089 6.965429695118902 0.9886894283892267 0 0 1
700 1 33.800925663547446 24.86002232356108 12.845836930850464 0 0 0
2286 1 47.43802116922442 7.85353118554095 -0.1890115621337155 -1 1 0
3205 1 8.716739035356735 9.062202349175044 1.8639344749450104 0 1 0
530 1 9.167972717140083 11.42472518395514 2.760883303110125 0 0 0
2466 1 12.393963505967648 0.863401200829832 -0.4375816936248753 0 1 0
247 1 17.29392856048868 10.459870507521389 1.89015879197532 0 0 0
468 1 47.4331987963841 0.08827699160215186 14.010954489167155 -1 0 0
427 1 24.279762735432275 9.903712490215657 1.4774731768362095 0 0 0
1531 1 27.613093664636594 7.938901481242036 0.903873881122691 0 0 1
410 1 31.33758852791204 9.350889730603148 1.4480342787341 0 0 0
364 1 30.202531058319025 11.463725338861613 2.24900236308033 0 0 0
511 1 33.896461768245345 9.826118130772452 0.7081997794101287 0 0 0
2527 1 40.214132766595746 10.018681229467537 1.8633206681192922 0 1 0
1863 1 42.306834767244894 11.480539877794437 0.39158291049554095 0 0 1
165 1 44.74638793246803 11.637283103913626 1.9055495249296381 0 0 0
627 1 14.018360454733777 5.251875871335242 -0.07646208428627449 0 0 0
2567 1 49.15742005581036 10.087700663327618 0.36263305411625224 0 0 0
1898 1 2.072686998471439 13.718195509984975 0.8428610418513127 1 0 1
447 1 7.1922992952455775 13.194586657300398 2.2773962230946725 0 0 0
549 1 11.296706531194003 12.780389951786105 1.6219552130494264 0 0 0
426 1 11.294839841526587 15.531302997664387 1.3242117625050742 0 0 0
1480 1 15.544332340987324 12.60378399316891 1.8328594987814393 0 0 1
66 1 17.3871565762291 13.981115583919747 0.12196673456579199 0 0 0
423 1 19.75059804689983 14.528923345696189 1.3158190991840333 0 0 0
15 1 22.766734787103076 12.222270062682426 0.4939120704834463 0 0 0
2793 1 28.012109024509975 21.798585148606175 14.275104469387394 0 1 0
78 1 28.606101045858303 12.901793467854771 0.7044927671769425 0 0 0
61 1 25.617597063991646 14.462076211116207 15.727442140515084 0 0 0
2729 1 33.38338645511478 14.298015278025611 0.3662535577260073 0 0 0
108 1 38.4851413950434 13.741832982038426 -0.27632555197606884 0 0 0
2319 1 38.80286784581305 12.357631470689553 2.1965339863211546 0 0 0
432 1 43.21890015544057 13.971480267920217 2.6443251751946337 0 0 0
2246 1 42.97322911740403 15.36116470753643 0.2463304862640352 0 0 0
665 1 47.24480713338474 12.8725942308735 2.4677000141214034 0 0 0
488 1 48.67471920089967 14.781309862261935 1.4879868634859994 0 0 0
409 1 4.820116546509066 17.641710206194087 0.6150933971904677 0 0 0
117 1 3.2481928631801167 18.72159415733594 2.852344277225222 0 0 0
41 1 6.870768744386043 16.25516874383611 1.8179760861391778 0 0 0
2375 1 9.2583270693884 16.508763298345485 -0.02722532851526216 0 0 0
1607 1 50.43582922230495 14.04960165310655 -0.5164802331764048 -1 0 1
2140 1 15.725511087191066 16.056100788012547 0.9263524196483766 1 0 0
2504 1 21.254570966855766 16.745286616451043 0.5778779010294293 0 0 0
1704 1 23.55924122485056 16.563367091343427 2.101985661257491 0 0 1
1633 1 25.67374190637552 15.940157263158401 0.5580724749699422 0 0 1
3635 1 29.508798212247786 17.351713296051646 0.16258949337792927 0 0 1
581 1 37.665874114743154 16.231045667459703 0.7691847538971432 0 0 0
402 1 48.278357527914636 20.03870777976763 -0.5118840620840867 0 0 0
1648 1 42.166468737674556 17.842692205649293 1.0492324014272452 0 0 1
294 1 46.44603198737065 16.587847882399416 1.4071554996192412 0 0 0
175 1 -0.22632448396799154 19.192697142301476 0.11091042280983443 1 0 0
204 1 1.926462556840491 21.14160172799106 0.343310885658043 1 0 0
215 1 3.697111669098873 21.6906187023646 2.275405981071528 0 0 0
1504 1 8.098710486176738 21.73690458076101 2.5202702224650086 0 0 1
1445 1 30.54975850257426 14.871909608525062 0.38922379480596236 0 0 1
317 1 12.521673584678043 21.52457234968022 2.2712092578492706 0 0 0
2482 1 13.63169257102548 21.35556809188337 -0.13496998837355784 0 0 0
55 1 6.528318558104794 12.00279011953394 -0.2416879874646306 0 0 0
2478 1 16.283426458400967 21.283250301110268 0.8880248197443852 0 0 0
3930 1 19.524544684579876 18.641823245400808 1.9556264350456494 0 0 1
524 1 22.030765061055646 20.104360625992744 2.8457673311694216 0 0 0
3572 1 24.47616701526242 20.198955023775174 -0.09724381268696225 0 0 1
2257 1 24.599662826486526 19.072213523363274 2.3580912942506678 0 0 0
262 1 33.98216366301286 18.897329066502255 0.15786008586299438 0 0 0
202 1 33.96834846089241 18.877641111109554 2.9400898294424507 0 0 0
2265 1 38.308335325831735 21.152411503714255 3.1983629761857126 0 0 0
2558 1 38.74857499834933 20.79336271852281 0.295774119820462 0 0 0
2628 1 45.46102036611739 -0.41658324910276917 9.995235407931686 0 1 0
1851 1 46.3239379934332 19.29025759065619 1.4307982646590245 0 0 1
4107 1 3.8394185947519066 11.733432152160447 -0.07901852167329332 0 1 1
4139 1 46.901707995883214 24.371023457463057 0.4976169883290724 0 0 1
189 1 10.35015594608402 23.202026007806346 1.7671899407689398 0 0 0
2361 1 15.894538625772725 23.945048466920912 2.4321740158493497 0 0 0
3619 1 21.86953376428147 22.274746946550344 1.163719251336681 0 0 1
3687 1 24.312491537193065 22.975255692602538 0.6440222648092913 0 0 1
378 1 25.397648135958747 24.4712275442306 2.791957674622995 0 0 0
2290 1 28.35293892174881 21.373241711802553 0.9216886597926797 0 0 0
2799 1 27.648210663016286 24.216350459179584 1.3261280830143576 0 0 0
723 1 38.26760073824487 12.598761968327594 16.395793644098294 0 0 0
90 1 32.61816274023106 23.0567623915947 0.7930321653196477 0 0 0
778 1 4.5896939471694695 22.489670715660132 15.708695150832643 0 0 0
2710 1 49.35773181849677 23.57787129003868 13.326532943062514 0 0 0
3109 1 45.03639099856945 23.590522764203847 14.58043131622768 0 0 0
3820 1 42.88204518058777 22.284458615661887 -0.2973834025891999 0 0 1
187 1 42.30465821316703 22.413953777219355 2.4450151601809633 0 0 0
2122 1 20.528324605754495 24.60725980613334 2.1973506138085033 0 0 0
2234 1 24.329385882378144 24.401776755686118 15.429083710802328 0 0 0
3805 1 17.162566076089526 24.973181802577816 16.316048108802498 0 0 0
2742 1 1.9972039814943168 1.6635740932553 6.436569373711407 0 1 0
2730 1 8.201373922181865 1.0818389232173036 3.126052772238354 0 1 0
3011 1 8.213783689574443 0.6414954242202315 6.021202381042319 0 1 0
125 1 12.514457191882874 0.1893917712959312 4.573280358821262 0 0 0
2313 1 12.782681148395916 2.769083849360808 3.69245109327386 0 1 0
2539 1 16.60710516270047 2.6850360032278364 3.6318150299292142 0 1 0
51 1 18.479771831619225 1.0225245110974073 4.669759573476706 0 0 0
84 1 22.885501007811147 2.3226885983756356 4.175413116722777 0 0 0
716 1 40.331363326258696 6.349689045739619 -0.5126650969023031 0 0 1
497 1 24.019815939379242 0.6740873018202735 5.896822731638902 0 0 0
4091 1 35.143793728783315 0.9795635082082665 2.3506805326463733 0 1 1
2130 1 40.95446923006239 1.1880494918568445 4.548040616330402 0 1 0
2441 1 43.62514735487476 2.049425256932998 4.395446809235764 -1 1 0
111 1 0.3774331761445522 8.884385939067075 0.24990707486217978 0 0 0
43 1 47.817650739728734 0.9799895231917566 3.1798973259457255 0 0 0
421 1 2.4747276932108777 3.5835662221743307 4.628011184732038 0 0 0
697 1 4.794853137783418 3.5663430590993723 3.0400061275466004 0 0 0
2364 1 6.718411942036991 5.248453131588474 3.743477022582657 0 1 0
80 1 8.89584242386626 3.749164198383057 3.124664156848496 0 0 0
198 1 10.940894099757925 4.587524379065861 4.727076322455548 0 0 0
328 1 14.793074731231613 4.215764768930584 5.0986540700238745 0 0 0
639 1 22.883597135319143 5.090101608161556 4.748542461260344 0 0 0
3992 1 29.32227946252639 3.268882933077914 5.330482376777521 0 1 1
1797 1 31.967744130012782 2.7998441298810937 6.421456147430949 0 0 1
1901 1 33.203523526312885 4.14166076348489 4.115774849610923 0 0 1
273 1 35.74627631147852 3.3590238460609503 3.2351742845028277 0 0 0
3202 1 36.79969105169802 2.839305912252197 5.48114463566673 0 1 0
388 1 40.73531100958449 5.355026756973434 4.126482413415671 0 0 0
2144 1 39.70084980879453 3.4611967238108057 5.757849972541824 0 1 0
162 1 43.419305319262385 5.121776458010795 4.9425767470156385 0 0 0
403 1 47.40020054739538 3.623544826402597 4.012357362776085 0 0 0
3515 1 48.53061238934838 4.018825808954435 6.415580092969023 0 1 1
289 1 1.567436111390839 5.731109294741207 6.2177203982114 0 0 0
502 1 1.2343029852535659 8.795819204015089 3.234341077253869 0 0 0
337 1 3.539317416461728 7.475714325547296 5.581453821422254 1 0 0
365 1 11.407639671101094 7.475487660784886 4.489693438428089 0 0 0
424 1 16.209244174213328 6.637863452912561 4.5699663799257415 0 0 0
1905 1 18.935629292035216 6.215482367027083 3.6013788758536878 0 0 1
683 1 20.559235456222 6.4035561043972695 5.98087073168983 0 0 0
1448 1 21.75433174656007 8.880040544831497 6.01136110951458 0 0 1
1405 1 24.42080064200597 8.271844149412725 4.300773686746766 0 0 1
1172 1 29.56093951059516 7.6263362739113845 4.53528471768622 0 0 0
50 1 31.706564935149416 7.298202925983544 3.301882042396629 0 0 0
1339 1 34.27361414000454 6.581813877738626 5.424146734754765 0 0 0
2285 1 35.96428910296608 8.00568050760367 3.6168136505938246 -1 1 0
978 1 38.12128983843825 8.460408686876738 5.382584231652987 0 0 0
450 1 40.475326520081374 8.23857389844207 4.213080221307937 0 0 0
411 1 47.49000883096948 8.888306747129102 3.9614392796554467 0 0 0
2102 1 49.817048804337794 7.388407803185319 4.053996627976388 -1 0 1
1840 1 0.3090559030514377 11.556003286181635 3.8940846867382035 1 0 1
540 1 4.5604694547463085 9.457886553863265 3.7313337134364817 0 0 0
4 1 5.822926364282802 11.973494326344758 4.475084192721064 0 0 0
2473 1 9.47332882697108 11.404339726584624 5.483615154763424 0 0 0
1719 1 13.27250687957745 9.451211167194495 4.226059313575276 0 0 1
448 1 13.413135791731545 12.346374969173507 3.868044042202479 0 0 0
2674 1 18.912663306766795 10.674280327043164 3.7425246748894265 0 1 0
2194 1 22.049859515186782 9.768620526797504 3.2109977331092914 0 0 0
518 1 28.23966280194935 9.677335397786646 3.4125911793665566 0 0 0
272 1 26.250843435745587 10.70185967459916 5.149551677564547 0 0 0
393 1 33.103260373199774 11.287184663374823 5.814650701563301 0 0 0
3698 1 34.524188680885636 10.383244628056788 3.5223891883814753 0 1 1
2398 1 42.788601142148664 9.685347437989364 4.980286769257299 0 1 0
4003 1 44.7124435418808 8.815587011445539 3.1248747132281705 0 1 1
465 1 48.98601083764321 11.03339374411306 2.8835904780217785 -1 0 0
2394 1 1.7091580622917366 13.816309740438387 3.531298291464905 1 1 0
339 1 50.48812122007273 15.616436942838504 3.4485607911886045 0 0 0
439 1 3.733706414565453 13.592408245263739 5.632287775738769 0 0 0
705 1 10.83348007884602 13.722566771694014 6.688926708900891 0 0 0
1747 1 17.203858944283194 12.77709513761367 4.8072367673388525 0 0 1
1359 1 21.013510607993346 12.616631471419662 3.1493834135562153 0 0 0
2118 1 23.180522249880827 13.628504777348018 5.206732650658743 0 0 0
96 1 24.748208102083982 12.343172085874373 3.3648279749502175 0 0 0
2807 1 26.789675577348667 14.028220042668641 2.544715822892535 0 1 0
271 1 31.324448369503376 12.883148614072672 4.409220204914139 0 0 0
456 1 33.136240070940666 14.758293386194465 3.044134427799689 0 0 0
645 1 35.40358506495376 14.888476477842376 4.420235847292648 0 0 0
382 1 36.44678381521267 12.462584805926424 3.6577825619925903 0 0 0
703 1 40.81622380946375 13.456082084520819 3.7084065325218285 0 0 0
75 1 41.74710192068859 12.180098747464752 5.901493900926297 0 0 0
1510 1 46.849023819708265 14.095631252973638 4.860436899066226 -1 0 1
407 1 0.4046585893473946 18.215914607130472 2.7543046448230153 0 0 0
340 1 4.9113331498960315 18.130700758152106 5.0725422810929235 0 0 0
575 1 7.51145468987708 17.18188131802984 4.434469547043659 1 0 0
671 1 9.59177191629768 16.339782749377164 5.7831593775640275 1 0 0
2690 1 11.47446856754528 16.782826278002478 3.8468694421187557 0 0 0
512 1 13.841483739876564 16.3774045283914 5.151767961759464 0 0 0
2328 1 16.156266271573013 15.17384269529842 3.793097376987844 0 0 0
1151 1 18.61081950613511 16.170187535206697 3.285008001249737 0 0 0
2671 1 20.145610563270928 16.13730658504445 5.748183199982725 0 0 0
105 1 23.328446406464785 16.49857205976489 4.880923711067824 0 0 0
1877 1 27.73345847419692 15.898912432757012 4.370407350878518 0 0 1
480 1 29.41192153927266 17.77331877527194 3.0438990417042713 0 0 0
177 1 32.00182293311634 17.258584562538967 3.8879476578726067 0 0 0
2314 1 37.645412784507606 16.454706047893517 3.5482063145905327 0 0 0
3186 1 40.15850183204464 16.195658866875778 4.308372530415522 0 0 0
122 1 44.31742784356506 18.39363180522566 4.628281291399905 0 0 0
2602 1 41.613167882810934 18.467199112557637 3.632945705642336 0 0 0
3041 1 45.12167343659584 15.854358367817667 3.550538806210934 0 0 0
33 1 48.854959939062425 15.913495678324448 5.592228555632199 -1 0 0
186 1 0.3832779997872917 19.912381775232358 4.755125957941078 0 0 0
311 1 8.362478077875974 19.85885664092633 4.385476846722519 0 0 0
561 1 11.157639536177832 19.566015341981114 3.8885466685561756 0 0 0
159 1 15.660369970410109 20.76036044355264 5.4246914075095685 0 0 0
3510 1 17.659257693410936 20.197346470679555 3.485117416900878 0 0 1
2471 1 21.675205017478103 21.65480799195189 5.1488122841503445 0 0 0
547 1 25.773819505378164 20.59273928823446 4.5854809020738445 0 0 0
418 1 28.27068466955507 20.193847226671586 3.4845929320943876 0 0 0
102 1 36.49767342681083 19.024933064118333 4.091251079907035 0 0 0
1435 1 40.64837009864853 20.99278960097614 4.163241911260112 0 0 1
1902 1 46.15014949249423 20.379512172712527 3.8515641436579147 -1 0 1
3389 1 48.60560462271767 20.26209734465598 5.5041018230921885 0 0 0
1734 1 0.33153993105795176 24.788963943402113 4.28582023048161 0 0 1
2060 1 1.7339091672837088 22.320841220619634 4.312715194745369 1 0 1
2451 1 5.46848885766409 24.134037077021443 5.1743607987635905 1 0 0
278 1 5.796527510110143 23.271154026707084 2.677082712643397 0 0 0
171 1 14.189533804625112 22.769768713229716 4.2146550011995805 0 0 0
173 1 12.376996651472849 24.154836272345197 5.690313190642472 0 -1 0
2329 1 18.907943243121846 21.918668116339383 5.167766582354368 0 0 0
689 1 18.19700449473992 24.201043464490773 3.6898351374878935 0 0 0
3737 1 23.05977078033527 23.972859150909272 5.960514449502018 0 0 1
3160 1 25.63976910944198 23.335831843597745 5.28303822956585 0 0 0
3577 1 30.118704716324906 24.0773244112131 4.736129237879472 0 0 1
2555 1 30.498779872927727 21.363431447462766 4.551154249118947 0 0 0
2400 1 33.06427538924122 21.867557476297325 3.2524486083129602 0 0 0
1489 1 34.65318034013484 23.34763773936875 4.793258666824814 0 0 1
2795 1 36.9717710767037 23.533033654306895 3.541068066898905 0 0 0
59 1 39.82938110127971 23.485403044730916 15.98852945661421 -1 0 0
496 1 46.7294769317124 24.584255445335163 3.111198213461416 -1 0 0
2125 1 44.830496794320624 22.84938603179765 3.70292668960919 0 0 0
1257 1 19.437650057191675 14.8139957915059 15.710610914689731 0 0 0
3091 1 7.116477906077248 1.6876801690825287 8.32400882759979 0 1 0
2037 1 5.655458626937433 -0.1937499051368295 9.709455771066818 1 0 1
865 1 10.869883035185488 0.1361947355043308 6.788527245444729 0 0 0
1398 1 38.73994524212766 21.355669299521985 14.4064770163427 0 0 0
22 1 15.585010937146343 1.201995779405799 7.8771035440872055 0 0 0
205 1 18.562034385277567 1.6505105123992942 7.293995690157621 0 0 0
1381 1 20.403422245537477 0.1807779291255146 8.6786294815219 0 0 0
211 1 22.305830718536136 1.9533445478428106 9.7309808410277 0 0 0
2340 1 24.663203252856967 2.5732901248195734 7.968139493189598 0 0 0
265 1 28.424553655357492 0.8186790970512752 6.362506068019784 0 0 0
1786 1 26.937213394214123 1.3776708925400238 8.681554127651863 0 0 1
320 1 33.227962387972596 0.36503107565706494 6.21496279262803 0 0 0
2178 1 35.707864322757004 0.6899773557940352 6.778936413434488 0 1 0
2151 1 35.983968098612145 1.5304154298919799 9.524847359999931 0 1 0
552 1 42.24946745261683 0.5818285816380961 8.135869624356584 0 0 0
2546 1 45.00976934051683 0.9747535631503708 7.10374049710476 -1 1 0
2560 1 50.16778632390484 1.5716576929554673 6.536545101982945 0 1 0
841 1 50.16238951470159 1.3328720180960336 9.354943348847094 0 0 0
476 1 2.0941132968311464 5.377192218367557 8.872447162309571 0 0 0
150 1 3.2862545716062894 2.840731261852442 8.686551253331636 0 0 0
1813 1 5.385444939820051 3.798257699158447 7.685638793163346 0 0 1
3705 1 8.47450260818916 5.837035638584217 9.83507809563565 0 1 1
3338 1 9.196878785944433 3.314833661685165 9.151944634454626 0 1 0
719 1 10.99593449418982 2.9317396339932538 6.949099854853241 0 0 0
704 1 13.662129372180392 3.2147519225666272 7.482222541436331 0 0 0
988 1 14.694423753261535 5.377001162073881 9.159320149627622 1 0 0
599 1 19.567219824231948 4.342788629127132 7.844761552229322 0 0 0
2360 1 25.191532570898495 4.998642500488198 6.523012272775963 0 1 0
2469 1 27.744282009809638 5.487156862619048 5.287948526513311 0 1 0
1670 1 32.257401145880316 3.7374881850774093 9.102947616582377 0 0 1
2452 1 34.844078741797574 4.029404664777961 9.561185836417723 0 0 0
2776 1 35.95823724216834 4.930919315341467 6.993707299559936 0 1 0
164 1 40.68035403721298 3.009242887963517 8.220616395036188 0 0 0
359 1 40.43625170898829 5.90685943502546 8.245139622175875 0 0 0
950 1 46.56263228323938 3.038066556977343 7.920281418981558 -1 0 0
252 1 44.99554811719683 5.0349450350560065 9.118591847155741 0 0 0
1301 1 1.5936931508687424 8.204534970684659 9.33781082746435 0 0 0
1082 1 5.916703257904842 6.007054479026469 6.273484327362711 0 0 0
1832 1 7.693082448975831 7.438778902258271 7.60605841364092 1 0 1
1221 1 9.678955834555545 8.852562437458882 6.266800572618959 0 0 0
903 1 11.240328923020085 7.84389460673982 10.029339557104464 0 0 0
286 1 13.936346282459319 7.965825410629979 9.313201775414738 0 0 0
3326 1 16.630814854719972 8.013733120098046 6.920218106758984 0 1 0
2406 1 17.4519357838175 6.119308041290453 8.778456868916248 0 1 0
133 1 23.08967633568993 7.089291937953817 9.914440051276712 0 0 0
1222 1 24.1295532606607 7.368263957998589 7.1509059450449 0 0 0
101 1 28.674636851781642 5.96091343916934 8.412738559489881 0 0 0
336 1 28.066511214405562 8.645964928568024 9.18810341768609 0 0 0
2460 1 31.214972807045264 6.361472722165943 9.252907821588485 0 1 0
3797 1 32.83647530907157 7.925374531269421 7.4737870201009695 0 1 1
40 1 37.91543663805008 6.688000351419019 7.3807506037581945 0 0 0
2528 1 37.46773772476107 8.455406636988 9.564072012491284 0 1 0
663 1 43.298172639822695 6.377301519413529 7.595906450808645 0 0 0
381 1 43.8951847324562 8.93118523387555 7.232479513011504 0 0 0
2090 1 47.01512398084912 7.071614660946523 9.778580843952776 -1 0 1
92 1 49.80141103446141 6.612876159297445 6.553939823064835 -1 0 0
1654 1 48.551507153139916 8.41617630492314 7.852218119697794 -1 0 1
260 1 -0.24869462120913877 11.92001491353673 6.4617098272244755 0 0 0
131 1 2.4745854058044436 11.858508412964248 7.484529316533003 1 0 0
564 1 3.4423024704791363 9.1422124040198 7.744543305959674 0 0 0
2270 1 7.007708620880473 11.49299611664529 7.133697409095246 0 1 0
2681 1 6.0368123217136676 9.449952270140646 8.550796966238924 0 1 0
2643 1 11.44791705173117 10.261099980493453 8.332344250190673 0 0 0
2276 1 14.131962632415213 9.602649772034196 6.941886937667054 0 1 0
302 1 15.370885766132218 12.017927760407149 6.794953978817638 0 0 0
119 1 18.869959341228448 9.488275422582513 6.155082502714465 0 0 0
100 1 17.985528498998477 11.046899815186277 8.105977549302578 0 0 0
3300 1 25.638439248960566 9.59039892349789 7.700920907916579 0 1 0
2743 1 24.614054308188184 11.633973133373614 9.779397775527947 0 0 0
329 1 29.592533621923998 10.53074644438195 8.212939833784677 0 0 0
396 1 31.04729286556061 9.374060539954167 6.251558119520775 0 0 0
537 1 34.86836339309745 9.140941708776033 9.18152452990408 0 0 0
419 1 35.177265422316886 11.445225110581637 7.507692443495298 0 0 0
1271 1 37.4032788868717 10.968508640312063 6.110688249202928 0 0 0
666 1 39.46474229420617 12.01790881458252 7.559259129699335 0 0 0
156 1 39.244136933450086 10.567001716623244 9.99873182507894 0 0 0
597 1 43.60181943756118 9.770486409950564 10.050754182117032 0 0 0
1457 1 46.47737199982433 9.760900715469614 6.490720727795002 0 0 1
573 1 50.492931592234356 10.24306663180863 8.665491247350202 -1 0 0
477 1 7.262180365179734 13.69504092792958 8.925870098912274 0 0 0
1208 1 13.52735966519385 14.039009912517523 6.165239616421085 0 0 0
2362 1 15.046332764529868 13.675169406056106 9.184199772184616 0 0 0
1081 1 17.600002742288947 14.30189237000359 9.065460882823391 0 0 0
667 1 18.953131805768074 13.848021206536547 6.634149239775506 0 0 0
1567 1 21.70376688227803 13.385593572105519 7.46656654202352 0 0 1
2273 1 26.760810174978957 13.404605611645644 9.385247728425156 0 0 0
680 1 27.83456337056374 12.325770577953541 7.057121295725419 0 0 0
527 1 29.400629272409727 14.244129619021427 6.000170247052835 0 0 0
3036 1 34.38964817623225 13.922409217833653 8.752192541047497 0 1 0
63 1 35.85863121798338 15.273317996061209 7.029003498164276 0 0 0
86 1 38.42609522727619 14.772609576256293 8.04840161941141 0 0 0
515 1 43.44692171307582 13.64384209270939 7.574391238270852 0 0 0
2351 1 45.94785187954826 12.554776130942514 7.043281930241202 0 0 0
293 1 47.81807138607629 13.81310568976508 8.60327252794417 0 0 0
2498 1 50.39844428080193 14.440190081536413 7.389570862490978 -1 0 0
137 1 0.3388517801478862 15.371447889427225 9.658610316895244 1 0 0
376 1 0.16678779989244918 18.183254214260387 8.744936898172837 0 0 0
2669 1 1.8804275465771059 18.657648022314614 6.699819655461959 1 0 0
3603 1 3.62941080340116 16.180288805712184 6.412108969442711 0 0 1
706 1 5.2559156122172555 15.760824086168661 8.790833034306493 0 0 0
457 1 10.307617284342095 17.545842167326924 7.821088445824879 0 0 0
2541 1 14.358949083041633 18.562168630123107 6.405621012812344 0 0 0
261 1 22.432400373550532 15.550628663472335 9.086794346660907 0 0 0
1780 1 20.565471340570294 17.523713387429655 8.085029340621285 0 0 1
130 1 25.796448693217858 16.83369914217592 6.056617815720892 0 0 0
3942 1 25.37374707158191 15.666993977444285 8.783015247206986 0 0 1
2226 1 30.38022173632451 15.910013772596265 8.129445859972517 0 0 0
255 1 32.14571562438229 17.595422120734977 6.879210610340302 0 0 0
2830 1 34.93041110028905 17.642168315113867 7.601792249234016 -1 0 0
972 1 40.11447546934972 16.63248940738876 7.051848765247608 0 0 0
1052 1 42.57928755658788 16.31495079528909 8.405671617448439 0 0 0
1309 1 43.76649350707823 18.503163369707277 7.332950999455637 0 0 0
3883 1 46.26234281583402 17.661984664792616 8.617454907462076 0 0 1
23 1 48.69378544635531 18.138576145109575 7.38492281964727 0 0 0
238 1 4.30249192778561 20.28137739025536 7.093003876054105 0 0 0
498 1 4.2047390531160165 19.646092861219003 9.883389933405736 1 0 0
118 1 7.4683527608462015 20.863181043834295 6.679510721045599 0 0 0
829 1 8.328882456575744 18.973003097270077 8.61057931641945 0 0 0
1016 1 11.69745594570978 19.529567742240353 6.572961183818475 0 0 0
2344 1 19.78164947035643 21.809922910934453 8.935177932545333 0 0 0
687 1 21.7522834823279 20.125777512409545 7.422705560071975 0 0 0
2261 1 24.19508766084057 20.572436961935903 8.374857124858595 0 0 0
2457 1 26.18213292704589 19.5144179205303 7.017392486441325 0 0 0
906 1 28.501435063474997 20.089129171886395 8.297664809901002 0 0 0
694 1 31.01375934875497 20.000454504914266 7.160542028075939 0 0 0
2204 1 36.53093431761027 19.70604685231589 6.705362866745586 0 0 0
585 1 40.33119892676333 21.177825232864265 6.811291511800901 0 0 0
669 1 38.911646206683834 19.075086882205035 7.967103792256369 0 0 0
505 1 42.81843980407873 21.15801781311044 7.842119841393288 0 0 0
56 1 2.373488438030019 24.086124290209902 8.40047740751761 1 0 0
2044 1 3.6226188566717674 22.698942400247905 6.417744531810693 0 0 1
284 1 7.138192068493907 23.253578220679987 14.546594052546066 0 0 0
642 1 8.764126309802801 23.122879767200455 7.872443851334914 0 0 0
2403 1 11.382101957778119 22.222401591380937 7.673186839642025 0 0 0
4008 1 13.157352734068015 24.46197704163533 10.20736536416557 0 0 1
856 1 17.39516062624301 21.887168200092315 7.365482818632813 0 0 0
1916 1 23.441139683888643 23.54807857762988 8.817282668159883 0 0 1
461 1 27.77018243529393 24.4722192045545 6.55956503469144 0 0 0
1775 1 27.873717386984968 22.763106226704775 8.889149355701587 0 0 1
1073 1 31.93827760704213 23.93867426343508 8.68359679505594 0 0 0
479 1 32.863829980042574 21.345897048584863 8.740569852161027 0 0 0
398 1 35.15494155032556 22.00879690867604 7.48375885750883 -1 0 0
2998 1 37.21968464515105 23.469920883230937 8.863903855746956 -1 0 0
206 1 39.37266754798823 23.60138431596581 7.192988517442868 0 0 0
314 1 44.65120165800993 22.901335013373775 6.630305254493105 0 0 0
2526 1 46.8315546022644 22.15580338423267 8.400064744934477 0 0 0
81 1 -0.3541249200851482 23.898985442817168 8.560002840221483 0 0 0
435 1 48.918395846314155 22.948987025887302 6.559863948909069 0 0 0
2435 1 0.7964535059576159 -0.37791972811827756 10.932088586932492 1 1 0
857 1 3.377135010156207 1.0674824321911618 10.590187073110567 0 0 0
947 1 3.1612161658820277 1.5079867214694294 13.576870802833334 0 0 0
509 1 7.579304806364618 1.2052071128518023 12.287777957530816 0 0 0
3519 1 10.152208320400186 1.6517811048108455 11.042611131518568 0 1 1
2000 1 21.54317910065815 1.2159981674911824 15.508970182348925 0 0 1
2155 1 15.536582866964288 -0.2500658713302898 10.139563589104577 0 1 0
1175 1 16.29548485232906 1.7721551329587628 11.75432416554521 0 0 0
1774 1 19.144270723747894 2.1693416073578633 12.62213976163238 0 0 1
72 1 23.641393111763794 0.5096455547902625 11.82988515056708 0 0 0
2266 1 28.192320498677997 2.087525106492953 10.918314605400335 0 1 0
678 1 35.08199816942109 23.081867738904123 -0.4140261218197504 0 0 0
312 1 48.701765218770205 5.4239763744182605 -0.012446210143358338 0 0 0
1 1 31.161475266159112 2.090264340448001 10.86201990684375 0 0 0
1294 1 34.42709162177019 -0.08712061287831635 11.444840523312143 0 0 0
685 1 38.83310018607305 1.7140309514828163 9.893896544770746 0 0 0
2272 1 44.16284316279797 3.0230159874123737 13.050206799093978 0 1 0
1961 1 47.385909246566335 1.653376399357808 9.944828549899603 0 0 1
174 1 -0.05761188276810869 3.790183390223107 10.319156838307434 1 0 0
290 1 1.2397790251290168 3.4017424193916255 12.808203021514192 1 0 0
2188 1 5.960003552660096 4.477152719840187 10.419197664484559 0 0 0
2279 1 5.5267310507608824 2.8816365287782046 12.709316491003467 0 1 0