
# Create simulation box of size 50 x 50 x 50 Angstrom
#
lattice	            sc 1
Lattice spacing in x,y,z = 1.0000000 1.0000000 1.0000000
region 	            all block 0 50 0 50 0 50 units box
create_box          1 all
Created orthogonal box = (0.0000000 0.0000000 0.0000000) to (50.000000 50.000000 50.000000)
  1 by 2 by 3 MPI processor grid

# fill box with 4175 randomly distributed atoms
#
create_atoms        1 random 4175 63782 all
Created 4175 atoms
  create_atoms CPU = 0.001 seconds
mass                1 18.015

# Define potential
#
pair_style          sw
pair_coeff          * * ML_mW.sw mW
Reading sw potential file ML_mW.sw with DATE: 2019-02-27

# Run minimization
#
minimize            1.0e-8 1.0e-8 10000 1000
WARNING: Using 'neigh_modify every 1 delay 0 check yes' setting during minimization (../min.cpp:187)
Neighbor list info ...
  update every 1 steps, delay 0 steps, check yes
  max neighbors/atom: 2000, page size: 100000
  master list distance cutoff = 6.0032907
  ghost atom cutoff = 6.0032907
  binsize = 3.0016454, bins = 17 17 17
  1 neighbor lists, perpetual/occasional/extra = 1 0 0
  (1) pair sw, perpetual
      attributes: full, newton on
      pair build: full/bin/atomonly
      stencil: full/bin/3d
      bin: standard
Per MPI rank memory allocation (min/avg/max) = 4.255 | 4.258 | 4.261 Mbytes
Step Temp E_pair E_mol TotEng Press 
       0            0    7792709.3            0    7792709.3    5898794.3 
     630            0   -45180.336            0   -45180.336   -154.07449 
Loop time of 1.2575 on 6 procs for 630 steps with 4175 atoms

99.4% CPU use with 6 MPI tasks x no OpenMP threads

Minimization stats:
  Stopping criterion = max force evaluations
  Energy initial, next-to-last, final = 
      7792709.32924461  -45180.0188663597   -45180.336116598
  Force two-norm initial, final = 2.0191930e+08 4.9721331
  Force max component initial, final = 1.0948746e+08 0.73126211
  Final line search alpha, max atom move = 0.053306038 0.038980685
  Iterations, force evaluations = 630 1000

MPI task timing breakdown:
Section |  min time  |  avg time  |  max time  |%varavg| %total
---------------------------------------------------------------
Pair    | 0.89116    | 1.0245     | 1.1436     |   8.9 | 81.47
Neigh   | 0.023978   | 0.025652   | 0.028238   |   1.1 |  2.04
Comm    | 0.06349    | 0.18541    | 0.32064    |  21.3 | 14.74
Output  | 0          | 0          | 0          |   0.0 |  0.00
Modify  | 0          | 0          | 0          |   0.0 |  0.00
Other   |            | 0.02197    |            |       |  1.75

Nlocal:        695.833 ave         704 max         685 min
Histogram: 1 1 0 0 1 0 0 1 0 2
Nghost:        1494.17 ave        1515 max        1468 min
Histogram: 1 1 0 0 0 0 1 1 1 1
Neighs:        0.00000 ave           0 max           0 min
Histogram: 6 0 0 0 0 0 0 0 0 0
FullNghs:      19997.0 ave       20462 max       19320 min
Histogram: 1 1 0 0 0 0 0 2 0 2

Total # of neighbors = 119982
Ave neighs/atom = 28.738204
Neighbor list builds = 26
Dangerous builds = 0

# Add velocity/set timestep
#
velocity            all create ${TEMP} 120598 rot yes dist gaussian
velocity            all create 205 120598 rot yes dist gaussian
timestep            5.0

# Define output
#
compute	            1 all msd
thermo	            100
thermo_style        custom step temp press vol etotal ke pe c_1[4] density

# Neighbor lists
#
neigh_modify        delay 0 every 1 check yes

# Set fixes
#
fix                 1 all momentum 10 linear 1 1 1 rescale
fix                 2 all nve
fix                 3 all temp/csvr ${TEMP} ${TEMP} 500.0 928347
fix                 3 all temp/csvr 205 ${TEMP} 500.0 928347
fix                 3 all temp/csvr 205 205 500.0 928347
fix                 4 all press/berendsen iso ${PRES} ${PRES} 1000.0 modulus 20000
fix                 4 all press/berendsen iso 200 ${PRES} 1000.0 modulus 20000
fix                 4 all press/berendsen iso 200 200 1000.0 modulus 20000

# Run 0.5 ns equilibration
#
dump                1 all custom 1000 eq.${NAME}.dump id type x y z vx vy vz
dump                1 all custom 1000 eq.liquid_density_MLmW.dump id type x y z vx vy vz
run                 100000
Per MPI rank memory allocation (min/avg/max) = 3.506 | 3.508 | 3.511 Mbytes
Step Temp Press Volume TotEng KinEng PotEng c_1[4] Density 
     630          205    778.67162       125000   -42629.746    2550.5897   -45180.336 2.7295415e-33   0.99914793 
     700    131.27296    157.75958    125276.47   -41848.442    1633.2852   -43481.728    0.2347437   0.99694293 
     800    163.32631    30.564308    125249.14   -41147.719    2032.0898   -43179.809   0.55138102   0.99716044 
     900    181.25888    274.64438    125107.56    -40760.37    2255.2051   -43015.575   0.94612203   0.99828894 
    1000     189.6561    202.50692    125224.53    -40512.79    2359.6825   -42872.473    1.3526678   0.99735645 
    1100    198.06171    33.204884    124968.12   -40349.705    2464.2642   -42813.969    1.6972445   0.99940283 
    1200    198.65294    259.60986    125001.28   -40404.422    2471.6202   -42876.042    2.0476237   0.99913767 
    1300    200.41885    206.02965    125267.59   -40396.397    2493.5915   -42889.989    2.3623716   0.99701357 
    1400    201.21686    338.50797    125300.73    -40443.54    2503.5202    -42947.06    2.7027492   0.99674992 
    1500    205.35072    271.73045    125382.62   -40412.164    2554.9534   -42967.118    2.9953879   0.99609892 
    1600    207.76357    310.72708    125597.19   -40339.621    2584.9738   -42924.595    3.3243451   0.99439721 
    1700    205.72641    290.60608    125519.98   -40386.107    2559.6277   -42945.735    3.6068551   0.99500883 
    1800    203.24138    133.87409    125624.02   -40469.918    2528.7092   -42998.627    3.7742897    0.9941848 
    1900    204.11945    412.33904    125575.32   -40472.594     2539.634   -43012.228    4.0550039   0.99457036 
    2000    207.93679    134.45385    125654.51    -40429.19    2587.1289   -43016.319    4.2875576   0.99394354 
    2100    211.06892    203.12771    125856.45   -40403.384    2626.0986   -43029.483    4.5929427   0.99234879 
    2200    208.08149    179.45812     125969.2   -40456.444    2588.9293   -43045.373    4.8388405   0.99146052 
    2300    208.42395    252.66869    125969.93   -40464.918    2593.1902   -43058.108    5.1497999   0.99145476 
    2400    204.09285    175.51663    125881.63   -40497.088    2539.3031   -43036.391    5.3509226   0.99215022 
    2500    209.20041     168.4326    125861.78   -40470.517    2602.8508   -43073.368    5.5785959   0.99230676 
    2600    212.75039    133.42886    126053.91   -40440.198    2647.0193   -43087.217    5.7348465   0.99079423 
    2700    208.53742    259.86502    126281.85   -40474.863     2594.602   -43069.465    5.9241734   0.98900585 
    2800     207.7952    350.23236    126213.49   -40465.368    2585.3674   -43050.735    6.1744029   0.98954157 
    2900    206.72282    378.29667     126221.9   -40536.522    2572.0249   -43108.547    6.3832484   0.98947564 
    3000    206.28129    181.56857    126208.74   -40567.964    2566.5314   -43134.496    6.6066535   0.98957877 
    3100    201.86189    169.39354    126297.33   -40524.946    2511.5457   -43036.492    6.8724152   0.98888465 
    3200    206.53001    240.07363    126380.61   -40568.623     2569.626   -43138.249     7.124767     0.988233 
    3300    209.29188    1.6318483     126575.5   -40577.385    2603.9889   -43181.374    7.4220657   0.98671139 
    3400    205.89579    360.30569    126472.97   -40610.214     2561.735    -43171.95    7.6441544   0.98751137 
    3500    204.72463    385.84614     126764.1   -40647.671    2547.1636   -43194.834    7.9518379   0.98524336 
    3600    206.47567    107.27609    126791.98   -40699.317    2568.9498   -43268.266     8.162858   0.98502673 
    3700    200.49137    26.299804    126719.18   -40767.319    2494.4938   -43261.813    8.3792766   0.98559266 
    3800    204.53079    192.70437    126805.85   -40743.424    2544.7519   -43288.176    8.5904898   0.98491903 
    3900    205.45517    235.92928    126954.47    -40769.91    2556.2529   -43326.163    8.9171428   0.98376597 
    4000    203.13867    273.09702    127126.13   -40771.701    2527.4313   -43299.132    8.9556595   0.98243764 
    4100    204.15955    100.11245    127240.08   -40767.884    2540.1329   -43308.017    9.0268479   0.98155779 
    4200    205.86837    328.92018    127205.86   -40778.139    2561.3938   -43339.533    9.2508323   0.98182183 
    4300    207.32082    285.00835    127473.49   -40790.659    2579.4651   -43370.124    9.4603146   0.97976054 
    4400    206.44332    286.30285    127501.14   -40804.028    2568.5473   -43372.575    9.5275472   0.97954801 
    4500    205.59103    403.95818    127592.56   -40814.521    2557.9433   -43372.465    9.7453141   0.97884617 
    4600    205.11778    248.89138     127584.4   -40874.074    2552.0552    -43426.13    9.8883965   0.97890878 
    4700    207.19019    276.85678    127735.06   -40807.071    2577.8399   -43384.911    9.9829698   0.97775419 
    4800    199.86771    65.276462    127709.48    -40876.07    2486.7343   -43362.804    10.148759   0.97795005 
    4900    210.29169    16.008648    127764.39   -40763.207    2616.4284   -43379.636    10.189682   0.97752972 
    5000    209.19505    456.64634    127745.88    -40730.91    2602.7842   -43333.695    10.361712   0.97767142 
    5100    207.11057    12.780597    127755.17    -40802.02    2576.8492    -43378.87    10.717231   0.97760027 
    5200    202.59911     301.5217    127724.51   -40875.837    2520.7181   -43396.556    10.953906   0.97783497 
    5300    206.59212    68.894392    127939.85   -40850.694    2570.3987   -43421.093    10.969576   0.97618913 
    5400    205.71661    112.03567    127779.95   -40888.243    2559.5057   -43447.748    11.048352    0.9774107 
    5500    203.66258    424.79421     127812.4   -40908.306    2533.9497   -43442.255    11.026726   0.97716253 
    5600     205.3655    356.12448    127991.56   -40915.716    2555.1373   -43470.853    11.082867   0.97579475 
    5700    201.72078    269.84298    127998.26   -40910.955      2509.79   -43420.745    11.168743   0.97574367 
    5800    204.42722    122.22706    128181.45   -40931.076    2543.4633   -43474.539    11.155125   0.97434922 
    5900    203.94642    353.19429    128141.79   -40970.779    2537.4811   -43508.261    11.266897   0.97465076 
    6000    202.50673    41.615136    128098.42   -40978.693    2519.5687   -43498.261    11.393027   0.97498072 
    6100    210.20937    148.51827    128122.98   -40929.393    2615.4042   -43544.798    11.496434   0.97479386 
    6200    204.38864    140.02264    128042.05   -40988.236    2542.9832   -43531.219    11.646361   0.97540998 
    6300    203.11845    350.97384    127876.96   -40961.891    2527.1797   -43489.071    11.574262   0.97666922 
    6400    206.38304    193.88261    128005.04   -40948.878    2567.7974   -43516.676    11.805017   0.97569195 
    6500    204.90805    254.26461    128026.45   -40908.505    2549.4457   -43457.951    11.882222   0.97552879 
    6600    208.41011    185.33151    128020.82   -40977.753     2593.018   -43570.771    11.958913   0.97557171 
    6700    197.47477    173.17678    128320.36    -41045.24    2456.9616   -43502.201    12.177558   0.97329445 
    6800    207.36653    202.84421     128320.4   -40982.247    2580.0339   -43562.281    12.389841   0.97329414 
    6900    207.72816    294.13316    128327.79   -40941.144    2584.5333   -43525.677    12.533556   0.97323804 
    7000    209.38017    186.92341    128314.76   -40941.873    2605.0874   -43546.961    12.637146   0.97333689 
    7100    209.36683    147.88188     128336.9   -40968.461    2604.9214   -43573.382    12.825626   0.97316897 
    7200    199.42836     278.9853    128223.98   -41017.675    2481.2679   -43498.943    12.978062   0.97402598 
    7300     202.7712    125.35514    128247.78   -41071.773    2522.8593   -43594.632     12.94982   0.97384524 
    7400    205.32259    305.76508    128340.31   -41099.776    2554.6034   -43654.379    13.059699   0.97314314 
    7500    203.68314    335.73292    128386.53   -41084.338    2534.2055   -43618.543    13.098723    0.9727928 
    7600     200.6472    366.96419    128769.52   -41166.175    2496.4326   -43662.608    13.313423   0.96989952 
    7700    206.53808    268.39829    128720.19   -41084.505    2569.7264   -43654.231    13.503976   0.97027121 
    7800    206.12744    237.02933     128865.7   -41078.984    2564.6173   -43643.602    13.725865   0.96917561 
    7900    203.54215    305.66039    128861.53   -41146.733    2532.4514   -43679.185    13.642534   0.96920698 
    8000    208.79679    296.44768    128840.95   -41127.995    2597.8291   -43725.824    13.699189   0.96936175 
    8100    202.52513     351.3871     128887.2   -41207.546    2519.7977   -43727.344     13.84994    0.9690139 
    8200    201.66959    226.49305    129218.97   -41227.102    2509.1531   -43736.255    13.826404     0.966526 
    8300    202.27598    315.44887    129270.63   -41225.728    2516.6978   -43742.426    13.787948   0.96613969 
    8400    206.38325    215.19114    129388.04   -41180.368       2567.8   -43748.168    13.846306   0.96526305 
    8500    207.32259    262.17465    129486.83   -41126.048    2579.4871   -43705.535    14.104873    0.9645266 
    8600    204.27331    235.35165    129418.53   -41156.806    2541.5483   -43698.354    14.442504   0.96503563 
    8700    206.80363    150.86555    129521.44   -41149.468    2573.0304   -43722.498    14.532074   0.96426885 
    8800    205.41519    265.01026    129571.35   -41187.557    2555.7555   -43743.313    14.482355   0.96389741 
    8900     203.1106    152.85482    129470.62   -41262.547     2527.082   -43789.629    14.462412   0.96464732 
    9000    205.99513    289.47638    129517.53   -41218.294    2562.9711   -43781.265    14.583835   0.96429795 
    9100    203.46827    153.42602    129484.12   -41284.414     2531.532   -43815.946     14.71091   0.96454681 
    9200    203.82417    77.873331     129366.5   -41192.019    2535.9602   -43727.979    14.826899   0.96542376 
    9300    204.60347    311.59246    129361.49   -41238.521    2545.6561   -43784.177    14.825265   0.96546116 
    9400    206.41455    308.88052    129594.38   -41208.709    2568.1895   -43776.899    14.859876   0.96372611 
    9500     205.0091     270.0618    129635.09   -41232.632     2550.703   -43783.335    15.003869   0.96342352 
    9600    199.13839    152.69089    129481.52   -41196.921    2477.6602   -43674.581    15.112709   0.96456613 
    9700    205.59831    108.26962     129618.8   -41137.947    2558.0339   -43695.981    15.206267   0.96354454 
    9800    203.57135    96.559988    129511.22   -41203.816    2532.8146    -43736.63     15.32524   0.96434498 
    9900    200.84946    149.69895    129357.29   -41263.771    2498.9491    -43762.72    15.221543   0.96549249 
   10000    200.54406     302.3318    129522.98   -41261.379    2495.1494   -43756.528    15.254437    0.9642574 
   10100    204.09982    255.22031     129651.4   -41230.138    2539.3898   -43769.528    15.252463   0.96330233 
   10200    201.02721    162.00587    129711.63   -41278.361    2501.1607   -43779.521    15.450309   0.96285501 
   10300    202.74177    200.19909    129588.87   -41259.853    2522.4931   -43782.346    15.537689   0.96376708 
   10400    205.60325    126.29794    129615.28   -41215.034    2558.0953   -43773.129     15.47041   0.96357076 
   10500    205.67125    62.464786    129522.46   -41208.067    2558.9414   -43767.009    15.683186   0.96426128 
   10600    206.98544    234.69827    129540.22   -41164.274    2575.2924   -43739.567    15.683895   0.96412907 
   10700    207.15245    200.30535    129722.18   -41165.046    2577.3703   -43742.416    15.784556   0.96277673 
   10800     210.1723    318.27058    129648.73   -41162.428     2614.943   -43777.371    15.834622   0.96332215 
   10900    206.05818    280.43005    129764.81    -41202.23    2563.7555   -43765.985    15.921787   0.96246041 
   11000     207.5918    127.06091    129674.43   -41203.262    2582.8367   -43786.099    16.018134   0.96313122 
   11100    201.65328    268.50184    129603.71   -41237.528    2508.9502   -43746.478    16.023671   0.96365678 
   11200    204.79342    176.07943    129486.36   -41226.163    2548.0195   -43774.183    16.092174   0.96453009 
   11300    202.52672     50.02449    129571.31   -41217.446    2519.8175   -43737.264    16.228022   0.96389772 
   11400    204.91831    452.78902    129433.55   -41221.446    2549.5734   -43771.019    16.281984    0.9649236 
   11500    201.69373    86.573292    129508.42   -41245.087    2509.4535   -43754.541    16.427451   0.96436582 
   11600    203.40047    222.13729    129573.83   -41247.855    2530.6886   -43778.544    16.485787   0.96387898 
   11700    208.22394    271.89833    129674.08   -41152.207    2590.7016   -43742.909    16.557552   0.96313383 
   11800    207.28199    263.56086    129746.59    -41224.64     2578.982   -43803.622    16.570114   0.96259553 
   11900    203.11672    120.79026    129787.45   -41240.011    2527.1581    -43767.17    16.608106    0.9622925 
   12000     204.2007    274.75071    129872.55   -41244.441     2540.645   -43785.086    16.759295   0.96166193 
   12100    205.12478    228.88093    129883.22   -41207.823    2552.1422   -43759.965     16.96143   0.96158298 
   12200    205.16262    51.095286    129717.14   -41203.095     2552.613   -43755.708    17.019196    0.9628141 
   12300    205.36388    208.70316    129826.47   -41234.974    2555.1171   -43790.091    17.018401   0.96200325 
   12400    207.81896    242.47896    129931.74   -41246.406    2585.6629   -43832.069    17.100531   0.96122389 
   12500    202.06434    294.79417     129800.5   -41342.285    2514.0645   -43856.349    17.127245   0.96219576 
   12600    204.09716    242.52833    129829.51   -41269.788    2539.3566   -43809.145    17.237241   0.96198076 
   12700     206.2847    346.62069    129704.14   -41239.767    2566.5738   -43806.341    17.343304   0.96291059 
   12800    208.73126   -19.574818     129845.5   -41225.523    2597.0137   -43822.536    17.214515   0.96186229 
   12900    203.64916    245.45852    129782.54   -41286.648    2533.7827   -43820.431    17.247092   0.96232891 
   13000    206.01208     188.0573    129833.29   -41223.063    2563.1819   -43786.245     17.38675   0.96195274 
   13100    207.02556    96.560959    129910.72   -41223.429    2575.7915   -43799.221    17.465444   0.96137941 
   13200    208.05301     306.3194     129873.5    -41154.85    2588.5749   -43743.425    17.640761   0.96165493 
   13300    206.55092    262.91368    129923.46   -41196.144    2569.8862    -43766.03    17.833907   0.96128516 
   13400    206.72566    225.73381    129857.54   -41262.176    2572.0603   -43834.236    18.063202   0.96177309 
   13500    207.91607    63.321342     129691.2   -41295.585    2586.8712   -43882.457    18.220782   0.96300669 
   13600     206.0391    303.84769    129626.66   -41325.143    2563.5181   -43888.662    18.196406   0.96348614 
   13700    205.51627    212.62673    129691.55   -41324.377    2557.0131    -43881.39    18.180573   0.96300407 
   13800    206.04817     173.6115    129734.67   -41232.093     2563.631   -43795.724    18.304483   0.96268402 
   13900    207.98028    430.41449    129760.06    -41267.34    2587.6701    -43855.01     18.12519   0.96249562 
   14000    206.32386    214.99982    129825.86   -41257.796    2567.0611   -43824.857    18.340948    0.9620078 
   14100    207.21176    99.219375    129851.12   -41268.999    2578.1083   -43847.107    18.406361   0.96182071 
   14200    210.08819    129.83282    129867.44   -41318.067    2613.8964   -43931.963    18.415432   0.96169982 
   14300    202.34986    138.28569    129694.79   -41371.233     2517.617    -43888.85    18.409641   0.96298003 
   14400    202.93597    132.71764    129701.63   -41343.015    2524.9092   -43867.924    18.402753   0.96292921 
   14500    203.08599    199.21563    129716.49   -41284.023    2526.7759   -43810.799    18.279343   0.96281889 
   14600    207.86059    214.50585    129848.05   -41294.539    2586.1809    -43880.72    18.369095   0.96184341 
   14700     205.5045    199.12042    129766.28   -41326.601    2556.8667   -43883.468    18.557478   0.96244947 
   14800    205.73751     91.54377    129675.98   -41370.576    2559.7658   -43930.341    18.619292   0.96311967 
   14900    199.44638    257.38315    129840.84   -41442.859    2481.4922   -43924.351    18.568888   0.96189679 
   15000    196.10228    177.29788    129754.02   -41444.052    2439.8852   -43883.937    18.669832   0.96254041 
   15100    198.56177     296.6792    129769.92   -41457.017    2470.4859   -43927.503    18.684717   0.96242251 
   15200    200.69428    141.23327    129703.68    -41388.62    2497.0184   -43885.638    18.805792   0.96291402 
   15300    202.03845    304.36449    129829.98   -41389.467    2513.7425   -43903.209    18.951992   0.96197727 
   15400    205.05729     163.4275    130026.71   -41387.853    2551.3026   -43939.155      18.8894   0.96052185 
   15500    203.42358    185.77608    130041.43   -41369.709     2530.976   -43900.685    18.943477   0.96041312 
   15600    203.66261    337.63549    130189.09   -41312.623    2533.9501   -43846.573    19.073326   0.95932376 
   15700    203.25075     140.2956    130070.97   -41392.998    2528.8257   -43921.824    19.094658   0.96019497 
   15800     201.2827    121.61652    130074.01   -41381.629    2504.3394   -43885.969    19.233819   0.96017253 
   15900    203.50667    379.39849    130134.44   -41415.031    2532.0099   -43947.041    19.304124   0.95972664 
   16000    202.55308    126.05219    130101.48     -41358.7    2520.1454   -43878.846     19.35753    0.9599698 
   16100    204.53348    163.56731    129944.18   -41312.185    2544.7853    -43856.97    19.436621   0.96113184 
   16200    204.24482    168.94837    130089.06   -41364.822    2541.1938   -43906.015     19.43029   0.96006146 
   16300    204.79013    114.39509     130223.8   -41393.568    2547.9786   -43941.547    19.595639   0.95906806 
   16400    209.04804    347.19212    130382.13   -41307.915    2600.9551    -43908.87    19.499764   0.95790347 
   16500    204.61186    109.57339    130085.26   -41316.321    2545.7606   -43862.082    19.712284   0.96008951 
   16600    208.39542     200.5561    130300.89   -41307.951    2592.8353   -43900.787    19.715735   0.95850067 
   16700    206.49673    26.059528    130244.76   -41351.677    2569.2119   -43920.889    19.781465   0.95891378 
   16800    206.15892    195.16012    130209.34   -41350.825    2565.0089   -43915.834    19.805046   0.95917456 
   16900    204.25796    183.83427    130351.28   -41334.463    2541.3574    -43875.82    19.912243   0.95813018 
   17000     205.4108    157.95263    130338.34   -41358.817    2555.7008   -43914.518    19.954578    0.9582253 
   17100    208.22637    84.907379    130177.01   -41285.514     2590.732   -43876.246    20.052487    0.9594128 
   17200    208.58347    104.61528    130187.67    -41297.31    2595.1749   -43892.485    20.019788   0.95933422 
   17300    206.49088    273.14489    130242.22   -41345.393    2569.1391   -43914.533    20.092922   0.95893247 
   17400    204.45763    180.34866    130299.88   -41357.402    2543.8417   -43901.244    20.054597   0.95850809 
   17500     207.3727    153.68612    130269.12   -41327.428    2580.1106   -43907.539    20.142171    0.9587344 
   17600    207.03217    151.94885    130077.79   -41295.313    2575.8738   -43871.187    20.169908   0.96014462 
   17700     201.4184    233.65455    130136.96   -41314.077    2506.0279   -43820.105    20.309666   0.95970809 
   17800    202.02468    159.15683    130065.46   -41314.238    2513.5711   -43827.809    20.422036   0.96023568 
   17900    208.88014    238.02792    129995.89   -41273.383    2598.8661   -43872.249    20.507155   0.96074956 
   18000    208.09268    332.01582    130061.42   -41226.087    2589.0685   -43815.156    20.587534   0.96026547 
   18100    204.71873    142.66524    129938.29   -41324.921    2547.0902   -43872.011    20.739706   0.96117541 
   18200    202.88292    274.30715    129924.23   -41327.273    2524.2492   -43851.522    20.870225   0.96127943 
   18300    206.98987    247.60601    130000.85   -41258.782    2575.3474   -43834.129    20.787765   0.96071287 
   18400    207.17794     241.9948    130129.56   -41329.364    2577.6874   -43907.052    20.989214   0.95976265 
   18500    207.29124    165.20677     130241.3   -41300.557    2579.0972   -43879.654    21.140707   0.95893926 
   18600    207.48865    155.54997    130361.55   -41359.076    2581.5533   -43940.629    21.187507   0.95805463 
   18700    205.06306    69.423305    130292.22   -41333.838    2551.3743   -43885.212    21.348717   0.95856447 
   18800    205.72061     155.3685    130465.06   -41308.045    2559.5555     -43867.6    21.317432   0.95729453 
   18900    207.74499    157.77889    130417.43   -41338.632    2584.7426   -43923.374    21.390246   0.95764413 
   19000     207.2119    271.32453    130455.61   -41319.734      2578.11   -43897.844    21.517262   0.95736387 
   19100    206.01562    158.76279    130487.36   -41374.076     2563.226   -43937.302    21.610966   0.95713098 
   19200    204.06559    152.37761    130438.03   -41344.319    2538.9639   -43883.283    21.711566   0.95749294 
   19300    210.20561    53.212518     130423.8   -41291.122    2615.3574   -43906.479    21.848419   0.95759736 
   19400    205.54378     131.6132    130236.68   -41305.347    2557.3554   -43862.702    21.774153   0.95897322 
   19500    202.65541    235.29867    130258.29   -41292.554    2521.4185   -43813.973    21.834995   0.95881417 
   19600    208.41114    297.07295    130403.78   -41336.602    2593.0308   -43929.632    21.832769   0.95774444 
   19700    208.82914    239.53921    130324.05   -41328.618    2598.2315   -43926.849     21.90132   0.95833032 
   19800    207.16119    199.77439    130292.23   -41364.058     2577.479   -43941.537     21.97815   0.95856437 
   19900    208.42606    160.06704    130266.79    -41373.98    2593.2164   -43967.197    21.938647   0.95875155 
   20000    204.16582    83.866051     130402.6   -41422.829    2540.2109    -43963.04    21.998293    0.9577531 
   20100     206.1668    110.86222    130419.86   -41380.559     2565.107   -43945.666    21.855821    0.9576263 
   20200    203.87844    347.83908    130330.71   -41419.415    2536.6354    -43956.05    21.976686   0.95828136 
   20300    206.48469    138.14466    130367.57   -41441.834    2569.0621   -44010.896     22.14356   0.95801043 
   20400    204.57054    303.94516    130427.72   -41436.953    2545.2464   -43982.199    22.142396   0.95756859 
   20500    204.87417    195.91791    130478.56   -41407.981    2549.0242   -43957.005    22.050624   0.95719549 
   20600     205.8558    113.98187    130312.18   -41437.272    2561.2376    -43998.51    22.211569    0.9584176 
   20700    205.01173    77.648595    130310.96    -41385.58    2550.7357   -43936.316    22.206871   0.95842662 
   20800    204.49985    331.12491    130414.25   -41388.301    2544.3669   -43932.668    22.302838   0.95766753 
   20900    202.52546    171.19693    130433.43   -41423.136    2519.8018   -43942.938    22.372786   0.95752668 
   21000    202.87885    205.80523    130462.13   -41516.632    2524.1986   -44040.831    22.258893   0.95731602 
   21100    198.51831    186.40184    130524.08   -41526.887    2469.9452   -43996.832    22.307096   0.95686168 
   21200    205.46637    87.498375    130485.26   -41501.029    2556.3923   -44057.421    22.338954   0.95714639 
   21300    199.67681    171.05339    130335.69   -41512.658    2484.3591   -43997.017    22.588104   0.95824472 
   21400    202.86153    289.27611    130455.77   -41473.776    2523.9831   -43997.759    22.587741    0.9573627 
   21500    205.59067     157.2736    130455.56   -41472.916    2557.9388   -44030.855    22.430628   0.95736423 
   21600    207.95741    163.71318    130523.35   -41429.821    2587.3855   -44017.206    22.639601   0.95686705 
   21700    206.88287    303.41988     130613.1   -41397.557    2574.0163   -43971.573    22.720195   0.95620951 
   21800    203.27387    166.97043    130649.98   -41394.098    2529.1134   -43923.211    22.775531   0.95593962 
   21900    204.21918     178.7078    130801.81   -41413.298    2540.8749   -43954.172    22.704217      0.95483 
   22000    207.09757    262.87364    130758.17   -41452.433    2576.6875   -44029.121    22.799741    0.9551487 
   22100    208.45143    71.638973     130639.9    -41401.29    2593.5321   -43994.822    22.929474   0.95601336 
   22200    205.91269    300.71652    130639.26   -41431.567    2561.9453   -43993.512    23.052484   0.95601803 
   22300    204.09295    80.573021    130528.45   -41416.439    2539.3043   -43955.743    23.217648   0.95682962 
   22400    207.47849    153.97714    130587.12   -41378.427    2581.4269   -43959.854    23.112541   0.95639979 
   22500     208.1136    182.23367     130478.8   -41388.186    2589.3288   -43977.515    22.989945   0.95719374 
   22600    208.81544    125.13664    130314.23   -41363.304     2598.061   -43961.365    23.026626   0.95840253 
   22700    205.47655    184.68204    130522.61   -41381.134    2556.5189   -43937.653    23.295335   0.95687243 
   22800    210.54973    251.15569    130532.12   -41370.735    2619.6389   -43990.373    23.320575   0.95680272 
   22900    204.68384    172.97932    130607.82   -41420.285    2546.6561   -43966.941    23.393341   0.95624819 
   23000    204.57915    326.33262    130596.94   -41405.148    2545.3536   -43950.502     23.39424   0.95632788 
   23100    201.94212    167.66195    130587.44   -41501.327    2512.5439    -44013.87    23.494622   0.95639745 
   23200    202.51283     213.9335    130739.61   -41454.688    2519.6446   -43974.332     23.45782   0.95528429 
   23300    203.25123    81.451472    130777.57   -41477.725    2528.8317   -44006.556    23.451945   0.95500698 
   23400    202.40204    133.60435    130714.86   -41410.912    2518.2662   -43929.179    23.471387   0.95546512 
   23500    202.11204     262.1738    130654.22   -41446.909    2514.6581   -43961.567    23.528797   0.95590856 
   23600    202.91659    8.4748335     130617.5   -41431.852    2524.6682    -43956.52    23.533246   0.95617732 
   23700    204.50406    322.95844    130477.39   -41459.239    2544.4192   -44003.658    23.538991   0.95720406 
   23800    204.50224    58.886041     130472.2   -41505.921    2544.3966   -44050.317    23.700969   0.95724214 
   23900    203.08089    72.225977    130538.81   -41522.089    2526.7123   -44048.801    23.816203   0.95675371 
   24000    203.56735    248.34882    130551.24   -41454.206    2532.7649   -43986.971     23.78855   0.95666265 
   24100    205.93429    209.42116    130447.54   -41469.294    2562.2141   -44031.508    23.859188   0.95742312 
   24200    203.82595     333.4118    130396.56   -41522.522    2535.9824   -44058.504    23.887217   0.95779747 
   24300    205.76956    318.47187    130564.18    -41488.85    2560.1646   -44049.015    23.944051   0.95656782 
   24400    202.23673    90.286526    130499.72   -41533.955    2516.2095   -44050.165    24.080472   0.95704033 
   24500    207.20466    232.94353    130567.34   -41488.509    2578.0199   -44066.529     23.93485   0.95654469 
   24600    204.28067    184.62579     130518.5   -41476.709    2541.6399   -44018.349    24.081492   0.95690263 
   24700    202.86524    183.65499     130417.4   -41495.481    2524.0292    -44019.51    24.153876   0.95764436 
   24800    206.23065    258.56184    130481.88     -41494.2    2565.9014   -44060.101    24.076556   0.95717112 
   24900    202.53517    208.09562    130547.61   -41437.632    2519.9225   -43957.555    24.187383   0.95668925 
   25000    207.31302    214.45356    130486.73   -41423.598    2579.3681   -44002.966    24.256702   0.95713561 
   25100    202.90121    233.12683    130575.55   -41425.836    2524.4768   -43950.313    24.317649   0.95648453 
   25200    205.27319    237.39312    130602.55   -41458.319    2553.9888   -44012.308    24.316224   0.95628677 
   25300    208.57813    232.52703    130803.44   -41467.867    2595.1085   -44062.976    24.468081   0.95481809 
   25400    207.11192    118.79755    130791.69   -41468.816    2576.8661   -44045.682    24.521532   0.95490385 
   25500    205.43786    225.90472    130622.34   -41419.803    2556.0375   -43975.841    24.532846   0.95614192 
   25600    204.38294     142.3729    130652.81   -41495.446    2542.9123   -44038.359    24.591748   0.95591892 
   25700    204.59823    265.78583    130733.48   -41514.581     2545.591   -44060.172    24.639488   0.95532908 
   25800    203.20072    97.050278    130683.71   -41507.664    2528.2033   -44035.868    24.750964    0.9556929 
   25900    205.72207    41.291397    130642.59   -41465.262    2559.5737   -44024.836    24.846404    0.9559937 
   26000    207.43445    348.42108    130702.83   -41403.332    2580.8789   -43984.211    24.924781    0.9555531 
   26100    203.97883    212.44643    130617.25   -41490.699    2537.8844   -44028.584    24.897542   0.95617917 
   26200    207.09361    167.53106    130628.38   -41496.105    2576.6382   -44072.744    24.911025   0.95609768 
   26300    205.85029    267.85129    130709.46   -41476.467    2561.1689   -44037.636    24.994619   0.95550463 
   26400    209.42678    244.45032    130725.74    -41476.35    2605.6672   -44082.017    25.067145   0.95538561 
   26500     204.6371    13.917669    130739.06   -41539.194    2546.0746   -44085.269    25.080611   0.95528828 
   26600    203.27446     261.1047    130735.77   -41584.019    2529.1208    -44113.14    25.257873   0.95531229 
   26700    203.18015    280.49032    130868.92   -41605.468    2527.9474   -44133.415     25.25286   0.95434036 
   26800    208.86622    264.86119    130854.38    -41536.69    2598.6928   -44135.382    25.444114   0.95444638 
   26900    204.89514    57.412911       130827   -41549.978    2549.2851   -44099.263    25.451416   0.95464615 
   27000    206.62159    214.90034     130763.7   -41596.723    2570.7654   -44167.488    25.357622   0.95510825 
   27100    205.86971    256.21003    130803.46   -41611.227    2561.4106   -44172.638    25.355356   0.95481793 
   27200     202.8595    313.55731       130950   -41626.351    2523.9579   -44150.309    25.529319   0.95374943 
   27300    203.43933    191.29644    130993.59    -41653.17    2531.1721   -44184.343    25.579517   0.95343205 
   27400    200.47247    263.61087    131106.59   -41591.651    2494.2587   -44085.909    25.588993    0.9526103 
   27500    206.29017    265.69059    131028.28   -41537.508    2566.6418    -44104.15    25.554381   0.95317968 
   27600    203.39957    106.31159    131038.41    -41574.01    2530.6773   -44104.688    25.570689     0.953106 
   27700    204.40605    171.23849    131112.39   -41579.007    2543.1999   -44122.207    25.647966   0.95256817 
   27800    203.70103    168.84427       131107   -41519.496     2534.428   -44053.924    25.702685   0.95260737 
   27900    206.03717    163.70927    131161.84   -41543.802     2563.494   -44107.296    25.787632   0.95220906 
   28000    209.53386    178.19851     131257.3   -41577.457    2606.9995   -44184.457    25.841892    0.9515165 
   28100    201.08981    96.468152    131290.94   -41564.546    2501.9395   -44066.485    25.806758   0.95127277 
   28200    204.80675    158.56686     131111.8   -41601.331    2548.1854   -44149.517    25.952894   0.95257251 
   28300    204.61168    20.965388    131010.69   -41585.812    2545.7583   -44131.571     26.00259   0.95330764 
   28400    201.52553    86.203087     131005.6   -41610.384    2507.3607   -44117.745     25.75623   0.95334467 
   28500    203.72491    334.57851    131009.85   -41637.809    2534.7252   -44172.535     25.72302   0.95331373 
   28600    203.16706    57.750956    131154.36   -41591.305    2527.7845    -44119.09    25.847839   0.95226338 
   28700    203.64294    218.30348    131223.66   -41602.008    2533.7053   -44135.714    25.890418   0.95176044 
   28800    206.24264    193.98459    131278.09   -41576.648    2566.0506   -44142.699    26.084541   0.95136584 
   28900    208.95328    228.58244    131336.45   -41561.741    2599.7761   -44161.517    26.049965   0.95094308 
   29000     205.6462    263.21185    131247.83   -41634.613    2558.6296   -44193.242    26.034963    0.9515852 
   29100    207.12589    248.20504    131377.74   -41595.075    2577.0398   -44172.115    25.962401   0.95064425 
   29200    202.04689    142.42254    131318.52   -41569.823    2513.8475    -44083.67    26.111909   0.95107292 
   29300    202.08934    259.36002    131322.34   -41619.656    2514.3757   -44134.032    26.031959   0.95104527 
   29400    206.85744    264.70197    131266.38   -41663.966    2573.6998   -44237.666    25.896977   0.95145075 
   29500    204.15172    217.23065    131347.82   -41681.929    2540.0355   -44221.965    25.988434   0.95086075 
   29600    207.25324    234.36194    131381.11   -41616.055    2578.6244   -44194.679    26.261616   0.95061985 
   29700    200.00691    256.01147    131387.29   -41655.862    2488.4662   -44144.329    26.235623   0.95057517 
   29800    204.60343    343.60878    131439.14   -41633.743    2545.6557   -44179.398     26.34633   0.95020019 
   29900    203.55748    253.58985    131352.34   -41674.196    2532.6421   -44206.838    26.260505    0.9508281 
   30000     206.9255     97.00275    131429.03    -41658.76    2574.5466   -44233.307    26.428036   0.95027324 
   30100    201.01123    232.01757     131433.4   -41649.211    2500.9618   -44150.172     26.39606   0.95024168 
   30200     201.7762    148.55312     131346.3   -41655.772    2510.4795   -44166.251    26.426197   0.95087177 
   30300     204.5083     215.4831     131380.1   -41627.065    2544.4721   -44171.537    26.378601   0.95062714 
   30400     203.8892    58.799953    131395.55   -41610.727    2536.7693   -44147.496    26.540393   0.95051538 
   30500    206.99603    188.22195    131286.73   -41631.262    2575.4241   -44206.686    26.571422    0.9513032 
   30600    207.20721    345.26123    131530.61    -41632.59    2578.0516   -44210.642    26.630803   0.94953938 
   30700    204.13002    90.377515    131529.07   -41652.004    2539.7655   -44191.769     26.75956   0.94955047 
   30800    206.97066    94.321302    131507.78   -41586.474    2575.1085   -44161.582    26.712248   0.94970421 
   30900     204.7949    252.83386    131628.05   -41701.773     2548.038   -44249.811    26.687101   0.94883645 
   31000    197.02286    196.10577    131566.05   -41737.543     2451.339   -44188.881    26.843376   0.94928361 
   31100    203.68348    93.435895    131507.14   -41727.212    2534.2097   -44261.421    26.918228   0.94970879 
   31200    200.78287    78.329497    131418.96   -41737.935    2498.1206   -44236.055    26.893196    0.9503461 
   31300     204.3079    126.21836     131340.9   -41693.378    2541.9787   -44235.357    27.025939   0.95091088 
   31400    204.63597    92.828854     131331.2   -41666.618    2546.0605   -44212.678    26.888216   0.95098113 
   31500    201.02919    268.94905    131501.66   -41710.172    2501.1853   -44211.357     27.05665   0.94974838 
   31600    211.28033    124.96272    131438.67   -41646.626     2628.729   -44275.355    27.027695   0.95020355 
   31700    204.97662    176.41135    131518.67   -41674.626    2550.2989   -44224.924    26.947284   0.94962557 
   31800    207.72057    248.93166    131449.13   -41617.505    2584.4389   -44201.943    26.978033   0.95012791 
   31900    203.66495    185.10432    131549.24    -41610.17    2533.9791   -44144.149     27.27255   0.94940485 
   32000    205.28875    272.06347    131612.94   -41602.968    2554.1823    -44157.15    27.273908   0.94894536 
   32100    209.53913     212.4427     131621.6   -41616.253    2607.0652   -44223.318    27.334075   0.94888298 
   32200    205.40559     295.7747     131579.7   -41606.771     2555.636   -44162.407    27.321011    0.9491851 
   32300    209.65814    275.81612    131652.64   -41600.623    2608.5458   -44209.169    27.390759   0.94865921 
   32400    204.76122    124.39201     131560.8   -41664.558    2547.6188   -44212.177    27.353707   0.94932148 
   32500    203.39984    146.91531    131532.69    -41672.71    2530.6807   -44203.391    27.382048   0.94952436 
   32600    203.69255    188.06785    131812.94   -41631.159    2534.3226   -44165.482     27.27936   0.94750552 
   32700    208.32146    292.11197    131674.15   -41700.378     2591.915   -44292.293    27.298902   0.94850429 
   32800    204.25325    268.73875    131825.68   -41744.931    2541.2987    -44286.23    27.404322   0.94741396 
   32900    206.29767     204.1454     131758.2   -41749.138    2566.7352   -44315.874    27.392895   0.94789922 
   33000    201.95245    176.02634       131806   -41796.398    2512.6724    -44309.07    27.528736   0.94755544 
   33100    201.66675    184.08556    131561.07   -41720.854    2509.1178   -44229.971    27.600656   0.94931949 
   33200    206.20715    89.916974     131504.9   -41749.413     2565.609   -44315.022    27.574848   0.94972503 
   33300    207.10796    221.27186    131665.56   -41691.179    2576.8168   -44267.996    27.508019   0.94856614 
   33400    204.19842    153.07372    131719.42   -41766.468    2540.6166   -44307.085    27.612833   0.94817824 
   33500    204.28471    296.98508    131782.51   -41729.859    2541.6902   -44271.549    27.533653   0.94772432 
   33600    206.67134    81.754968    131745.73   -41699.821    2571.3844   -44271.205    27.483672   0.94798889 
   33700    204.64014    218.63821    131823.05   -41696.274    2546.1124   -44242.387     27.65556   0.94743291 
   33800    203.44421    277.39387    131799.21   -41693.621    2531.2327   -44224.854    27.615202   0.94760425 
   33900    206.22588    144.80254    131722.89   -41704.409    2565.8421   -44270.251    27.537876   0.94815331 
   34000    204.05193    210.89088    131800.05   -41660.461    2538.7939   -44199.255    27.726504    0.9475982 
   34100    205.48037    168.92279    131833.93   -41698.328    2556.5664   -44254.894    27.817491   0.94735469 
   34200    207.90921    231.48425    131729.97   -41713.874    2586.7859    -44300.66    27.812366   0.94810234 
   34300    204.78284     275.3231    131642.68   -41764.648    2547.8879   -44312.536    27.786406   0.94873098 
   34400    205.56873    217.92112    131886.82   -41699.579    2557.6658   -44257.244    27.824463   0.94697477 
   34500    205.40264   -8.6288136     131906.2   -41714.018    2555.5993   -44269.617    27.784875   0.94683564 
   34600    202.27768    253.14699    131756.24   -41698.797    2516.7189   -44215.516    27.839821   0.94791331 
   34700    203.03315    401.35408    131870.57   -41772.439    2526.1184   -44298.557    28.025877   0.94709146 
   34800    200.83826    167.77706    131793.86   -41765.839    2498.8098   -44264.648    27.886021   0.94764273 
   34900    203.35797    271.30407    131775.39   -41766.777    2530.1597   -44296.936    27.944007   0.94777555 
   35000    201.22659     208.6727    131783.03   -41836.467    2503.6413   -44340.108    28.036803   0.94772062 
   35100    201.58677    388.57171    131884.56   -41774.729    2508.1227   -44282.851    28.144222   0.94699098 
   35200    204.58105    144.17597    131808.22   -41784.155    2545.3772   -44329.532    28.101311   0.94753945 
   35300     201.0339    210.00345    131826.74   -41764.192    2501.2439   -44265.436    28.058298   0.94740638 
   35400    203.55742    222.99646    131770.04   -41780.182    2532.6413   -44312.824    28.116346     0.947814 
   35500    203.70356    172.33835    131703.99   -41675.616    2534.4595   -44210.076     28.08761   0.94828936 
   35600    205.74159    216.79242    131880.99   -41721.777    2559.8165   -44281.593    28.215124   0.94701666 
   35700    207.76906    166.40246    131987.02   -41688.794    2585.0421   -44273.836    28.252354   0.94625583 
   35800    208.61493    371.77279    131905.74   -41727.512    2595.5663   -44323.078    28.257624   0.94683895 
   35900    208.92007    59.345106    131968.66   -41677.566    2599.3629   -44276.929    28.316582   0.94638749 
   36000    207.74951    49.847366     131849.6   -41648.229    2584.7989   -44233.028    28.438366   0.94724207 
   36100    202.94221    144.48659    131882.59    -41668.32    2524.9869   -44193.307    28.324522   0.94700512 
   36200    205.17451     136.3004    131875.56   -41711.536     2552.761   -44264.297    28.139497   0.94705565 
   36300    201.20058    123.43053    131862.75   -41768.305    2503.3177   -44271.623    28.316209   0.94714761 
   36400    207.36506    270.71909    131819.37   -41713.433    2580.0156   -44293.448    28.464475   0.94745929 
   36500    206.61698    229.77985    131818.86   -41702.968     2570.708   -44273.676    28.495846   0.94746296 
   36600    201.25989    282.04986    131920.42   -41815.337    2504.0557   -44319.393    28.384783   0.94673356 
   36700    205.07468    295.45757    132000.49   -41777.954    2551.5189   -44329.473    28.544532   0.94615927 
   36800    201.42633    359.62519    132031.24   -41775.941    2506.1265   -44282.068    28.511432   0.94593896 
   36900    203.67812    118.37347    131894.08   -41806.409     2534.143   -44340.552    28.548022   0.94692266 
   37000    207.22751    109.64838    131970.65   -41742.595    2578.3043   -44320.899    28.730246   0.94637325 
   37100    206.02865    234.69705     132187.5   -41732.656     2563.388   -44296.044    28.767303    0.9448207 
   37200     203.2451    243.80152    132204.25   -41783.549    2528.7554   -44312.305    28.623174   0.94470106 
   37300    203.03956    193.88274    132208.85   -41808.086    2526.1981   -44334.284    28.526017   0.94466814 
   37400    205.20676     230.2248    132281.93   -41835.973    2553.1623   -44389.135    28.850202   0.94414625 
   37500    203.01411    216.05056    132260.22   -41839.603    2525.8815   -44365.485    28.697063   0.94430127 
   37600    201.12084    213.24911    132338.78   -41796.462    2502.3256   -44298.788    28.946285   0.94374067 
   37700    206.28343    206.85462    132353.75   -41804.994    2566.5581   -44371.552    28.991173   0.94363391 
   37800    202.27431    156.72229    132345.51   -41900.058     2516.677   -44416.735    28.946683   0.94369266 
   37900     201.2191    285.40681    132274.93    -41856.48    2503.5482   -44360.028     28.95746   0.94419621 
   38000    203.28374    211.62076    132281.53   -41831.637    2529.2361   -44360.873    28.877916   0.94414912 
   38100     204.0364    232.87867    132272.08   -41786.348    2538.6008   -44324.948    28.952413   0.94421659 
   38200    204.66373    343.38867    132165.49   -41799.423    2546.4059   -44345.829    29.062633    0.9449781 
   38300    204.31051    296.21947    132279.04   -41743.728    2542.0112   -44285.739     29.18918    0.9441669 
   38400    201.30758    202.74487    132271.79   -41810.549    2504.6491   -44315.198    29.038907   0.94421866 
   38500    203.46096    138.95797    132258.64   -41812.422    2531.4411   -44343.863    29.058074   0.94431252 
   38600     206.5801    80.244892    132230.17    -41763.63    2570.2491   -44333.879    29.000956   0.94451586 
   38700    204.81481    340.35353    132272.46   -41779.976    2548.2856   -44328.262    29.186983   0.94421387 
   38800    205.63612    105.22785     132287.7   -41814.702    2558.5042   -44373.206    29.146941   0.94410506 
   38900    210.30209    253.18829    132436.08   -41776.324    2616.5578   -44392.882    29.100266    0.9430473 
   39000    204.69401    232.90809    132379.56   -41826.154    2546.7827   -44372.937    29.232174   0.94344993 
   39100    200.23786    67.493479    132347.94   -41790.037    2491.3397   -44281.377    29.289916   0.94367539 
   39200    203.44611    262.18395    132294.28   -41814.434    2531.2564   -44345.691    29.234658   0.94405815 
   39300    202.01587    96.346497    132168.36   -41809.605    2513.4615   -44323.067    29.185411   0.94495759 
   39400    209.68011    308.85954    132049.69   -41783.189    2608.8193   -44392.008     29.13784   0.94580676 
   39500    208.69427    185.04541    131957.93   -41763.076    2596.5535   -44359.629    29.130881   0.94646447 
   39600    205.84523    115.74279    131951.28   -41798.916     2561.106   -44360.022    29.147624   0.94651213 
   39700    206.33394    229.97126    131959.14   -41743.361    2567.1865   -44310.548    29.124198   0.94645575 
   39800    203.65963   -4.5484706    131861.05   -41802.222     2533.913   -44336.135    29.171081   0.94715986 
   39900    203.16896    175.42136    131824.16   -41853.885    2527.8081   -44381.693    29.170858   0.94742487 
   40000    201.34367    78.844536    131715.65    -41876.26     2505.098   -44381.358    29.140002   0.94820541 
   40100    201.82596    168.67081    131787.12   -41773.752    2511.0986   -44284.851     29.08942   0.94769115 
   40200    205.18118    257.91277    131961.74   -41797.947     2552.844   -44350.791    29.248937   0.94643713 
   40300    206.28128    266.54818    131900.87   -41774.079    2566.5313    -44340.61    29.298575   0.94687391 
   40400    207.27074    129.43529    131966.94   -41680.792     2578.842   -44259.634    29.389596   0.94639983 
   40500    204.49054    108.46064    131906.14   -41691.571    2544.2511   -44235.822    29.426926   0.94683607 
   40600    201.55028    122.23411    131853.07   -41728.091    2507.6686   -44235.759    29.277795   0.94721716 
   40700    204.88045    229.09074    131941.63   -41764.263    2549.1023   -44313.366    29.282831   0.94658137 
   40800    204.59885    167.42651    132060.21   -41805.832    2545.5987   -44351.431    29.360541   0.94573142 
   40900    203.07461      39.9571    132008.39   -41829.969    2526.6343   -44356.603    29.506847   0.94610268 
   41000    206.05787    191.23065    131986.61   -41752.722    2563.7517   -44316.474    29.410141   0.94625877 
   41100    208.81562    245.30953     131873.5   -41743.405    2598.0633   -44341.469    29.531941   0.94707041 
   41200    206.45286    166.37476    131930.35   -41750.969    2568.6661   -44319.635     29.53702   0.94666234 
   41300    200.43363    160.84197    131967.72   -41893.382    2493.7754   -44387.157     29.52474   0.94639426 
   41400    206.41749    271.89131    132112.01   -41847.233     2568.226   -44415.459    29.752533   0.94536061 
   41500    206.76027    277.09027    132156.86   -41849.715    2572.4908   -44422.206    29.679728   0.94503977 
   41600    204.97798    321.50454    132278.64    -41816.61    2550.3158   -44366.926    29.498093   0.94416974 
   41700    204.09376    165.21716    132198.28   -41794.418    2539.3143   -44333.732    29.571927   0.94474369 
   41800    203.59134    286.12816    132191.52   -41810.544    2533.0633   -44343.608    29.586793   0.94479203 
   41900    207.28522       195.52    132286.94   -41793.429    2579.0222   -44372.451    29.539835   0.94411052 
   42000    209.99427    212.91539    132282.34   -41782.475     2612.728   -44395.203    29.616087   0.94414336 
   42100    206.13604    326.97914    132230.65   -41781.298    2564.7243   -44346.023    29.604598   0.94451241 
   42200    202.42323      282.561    132328.63   -41740.559    2518.5298   -44259.089    29.758468   0.94381307 
   42300    204.70174    231.68797    132314.11   -41718.302    2546.8788    -44265.18    29.702909   0.94391661 
   42400    206.69141    157.42397    132424.67   -41760.608    2571.6341   -44332.242     29.81857   0.94312859 
   42500    208.38765    211.88091    132304.45   -41759.553    2592.7386   -44352.292    29.874929   0.94398556 
   42600    205.65099    147.70367    132202.66   -41767.421    2558.6893    -44326.11    29.793873   0.94471239 
   42700    203.94317    120.04947    132192.66   -41765.031    2537.4408   -44302.472    29.787184   0.94478385 
   42800    207.90453    54.819134    132135.61   -41711.717    2586.7277   -44298.444     29.91748   0.94519178 
   42900    204.32901    227.37298    132038.79   -41773.762    2542.2413   -44316.004     30.00047   0.94588482 
   43000    205.84069    229.93175    132093.86     -41798.5    2561.0495    -44359.55    30.027715   0.94549052 
   43100     204.5746    242.36839    132223.92   -41777.399     2545.297   -44322.696    30.084004   0.94456049 
   43200     202.9319    162.05405    132055.08   -41738.279    2524.8586   -44263.138    30.082828    0.9457682 
   43300    208.11604    122.15919    132088.37   -41758.431    2589.3592    -44347.79    29.988954   0.94552982 
   43400    207.21696    196.31623    132157.02   -41719.411    2578.1729   -44297.584    30.084801   0.94503867 
   43500    208.93037    337.10703    132018.95   -41722.956     2599.491   -44322.447    30.103364     0.946027 
   43600    209.78207     220.6967    131967.03   -41639.384    2610.0878   -44249.471    30.093146   0.94639917 
   43700    210.81849    318.65101    131987.61   -41670.163    2622.9828   -44293.146    30.184537   0.94625162 
   43800    207.85192    159.60686    132067.02   -41678.067     2586.073    -44264.14    30.134668   0.94568263 
   43900    210.55865    251.88172    132157.82   -41718.297    2619.7499   -44338.047    30.236322   0.94503294 
   44000    207.92538     134.3457    132200.88    -41761.84     2586.987   -44348.827    30.372837    0.9447251 
   44100    204.46895    231.79126    132160.48   -41776.193    2543.9824   -44320.175    30.327602    0.9450139 
   44200    205.35929     250.4446    132325.75   -41816.732      2555.06   -44371.792    30.310519   0.94383359 
   44300    204.04194    353.43905     132267.4   -41818.508    2538.6697   -44357.178    30.389919   0.94424996 
   44400    204.45216     160.8096    132402.69   -41791.243    2543.7735   -44335.017    30.339614   0.94328512 
   44500    200.56617    221.92314    132354.24   -41818.775    2495.4245     -44314.2    30.252428   0.94363047 
   44600    204.54949    281.27289    132486.58   -41883.061    2544.9846   -44428.046    30.400302   0.94268786 
   44700    203.67781    306.05285    132464.65   -41858.203    2534.1392   -44392.342    30.334627   0.94284396 
   44800    206.05113    145.77812    132368.57   -41829.473    2563.6678   -44393.141    30.302715   0.94352833 
   44900     204.3389    210.02951    132287.03    -41793.99    2542.3644   -44336.354    30.402176   0.94410985 
   45000    206.52659    170.20876    132363.38   -41797.914    2569.5834   -44367.498    30.300508    0.9435653 
   45100    208.97716    366.10044    132342.72   -41735.257    2600.0732    -44335.33    30.316017   0.94371256 
   45200    205.29198     157.0701    132351.99   -41799.074    2554.2226   -44353.297    30.468564   0.94364649 
   45300    206.52973    115.07491    132308.61   -41807.016    2569.6225   -44376.638     30.40578    0.9439559 
   45400    206.51676    301.62974     132330.9   -41788.376    2569.4611   -44357.837    30.471361   0.94379686 
   45500    203.77091    181.94438    132265.62    -41792.88    2535.2975   -44328.177    30.608439   0.94426271 
   45600    205.97493    289.75337     132291.4   -41785.774    2562.7197   -44348.494    30.606856   0.94407865 
   45700    200.37809     185.2957    132200.99   -41788.495    2493.0844    -44281.58    30.549147   0.94472433 
   45800    208.50205    380.64918    132150.28   -41735.417    2594.1619   -44329.579    30.554362   0.94508683 
   45900    209.03209    122.83478    132256.38   -41684.529    2600.7565   -44285.285    30.381596   0.94432868 
   46000    207.73845    247.46508     132298.1   -41673.303    2584.6612   -44257.964    30.375452   0.94403086 
   46100    211.21089    231.34095    132335.23   -41634.727    2627.8651   -44262.592    30.467608   0.94376598 
   46200    211.35849    196.88167     132309.6   -41636.073    2629.7014   -44265.774    30.517969   0.94394883 
   46300    206.80761    208.42251    132291.65   -41664.511    2573.0798   -44237.591    30.565994   0.94407688 
   46400    210.91584    213.49084     132303.8   -41700.104     2624.194   -44324.298    30.620537    0.9439902 
   46500    207.52003    313.58444     132240.9   -41711.745    2581.9437   -44293.689    30.762362    0.9444392 
   46600    209.27184    359.21673    132262.63   -41706.341    2603.7396    -44310.08    30.793592   0.94428406 
   46700    205.56187    22.143227    132156.69   -41788.859    2557.5804    -44346.44    30.673258   0.94504098 
   46800    202.21453    152.24369    131958.14   -41828.353    2515.9332   -44344.286    30.808623   0.94646297 
   46900    207.17857    187.12903    132145.49   -41759.997    2577.6953   -44337.692    30.850885   0.94512111 
   47000    207.12839    106.08542    132152.06   -41748.576     2577.071   -44325.647    30.787755   0.94507408 
   47100    209.95606    122.93895    132039.65   -41740.923    2612.2526   -44353.176    30.864476   0.94587869 
   47200    203.51024    293.65875    131911.74   -41795.186    2532.0543    -44327.24    30.800909   0.94679586 
   47300    201.01565    334.23144    131965.67   -41811.838    2501.0168   -44312.855     30.89855   0.94640892 
   47400    204.79035    195.00479    132041.54    -41773.89    2547.9813   -44321.871    30.809701   0.94586512 
   47500    206.21321    217.03662     132075.9   -41713.527    2565.6844   -44279.211    31.022903   0.94561911 
   47600    209.89416    165.64689    132081.46   -41683.542    2611.4824   -44295.024    31.025704   0.94557931 
   47700    209.24222    217.12022    131984.37   -41734.287    2603.3711   -44337.659    30.944002   0.94627485 
   47800    205.85874    131.29914    132095.52   -41749.242    2561.2742   -44310.516    30.912184   0.94547865 
   47900    207.23938    228.92228    132124.39   -41834.493    2578.4519   -44412.945    31.010014   0.94527201 
   48000    207.57887    216.65579    132028.47   -41850.559    2582.6758   -44433.234    31.007049   0.94595877 
   48100    205.12404    230.09116    131969.43   -41816.644    2552.1331   -44368.777    31.068665   0.94638196 
   48200    205.53703    206.87479     132114.2   -41833.813    2557.2714   -44391.084    31.002434   0.94534494 
   48300    202.99484    100.40161    132040.41   -41819.087    2525.6418   -44344.729    31.080141   0.94587322 
   48400    208.62523    97.387519     132067.8    -41755.58    2595.6945   -44351.275    31.113273   0.94567708 
   48500    207.63869    159.99287    132014.56   -41810.268    2583.4201   -44393.689    31.157817   0.94605845 
   48600    206.48627    68.361503     131972.8   -41824.272    2569.0817   -44393.354    31.276888   0.94635783 
   48700    203.88041    145.16737    132081.68   -41794.565    2536.6599   -44331.225    31.224584   0.94557769 
   48800    204.92514    296.83486     132098.3   -41820.665    2549.6583   -44370.324    31.248842   0.94545873 
   48900    204.13007    383.78474    132162.86   -41808.886    2539.7662   -44348.652     31.36032   0.94499689 
   49000    205.04766    258.04838    132144.52   -41842.929    2551.1827   -44394.111    31.347532   0.94512802 
   49100    206.77026     190.6019    132246.95    -41846.08    2572.6152   -44418.695    31.421782     0.944396 
   49200    203.66753    220.30174    132281.49   -41870.774    2534.0113   -44404.785    31.291217   0.94414943 
   49300    206.73362    322.69146    132256.79   -41820.143    2572.1593   -44392.302    31.324081   0.94432576 
   49400     203.0972    150.75392    132235.61   -41792.856    2526.9152   -44319.771    31.389354   0.94447699 
   49500    209.23573    137.71848    132156.61   -41805.153    2603.2903   -44408.443    31.484909   0.94504159 
   49600    207.90499    259.22999    132282.65   -41808.363    2586.7333   -44395.097    31.609542   0.94414112 
   49700    205.44433    219.12851    132372.46   -41828.037    2556.1181   -44384.156    31.741386   0.94350054 
   49800    203.70311    144.51962     132228.7   -41868.674     2534.454   -44403.128    31.627638   0.94452635 
   49900    205.97946    274.20626    132392.05   -41763.088    2562.7761   -44325.865    31.520027   0.94336098 
   50000     207.2552    133.88698    132274.37   -41802.654    2578.6488   -44381.303    31.394247   0.94420024 
   50100     208.9644    142.59803    132497.22   -41809.233    2599.9144   -44409.147    31.589419   0.94261219 
   50200    204.60416    144.75225    132468.69   -41852.236    2545.6647     -44397.9    31.685656   0.94281514 
   50300    203.62149    191.52398    132490.14   -41824.031    2533.4385   -44357.469    31.650396   0.94266251 
   50400    202.98906    227.21206    132266.68   -41850.448    2525.5699   -44376.018    31.783845   0.94425515 
   50500     205.0414    223.32683     132422.7   -41889.609    2551.1048   -44440.714    31.706764   0.94314263 
   50600    200.26941    53.453288    132175.64   -41906.439    2491.7322   -44398.171    31.629958   0.94490554 
   50700    203.15698    293.49411    132186.43   -41901.824    2527.6591   -44429.483     31.50307   0.94482839 
   50800    203.36497    196.98498    132463.68   -41897.582    2530.2469   -44427.829    31.559995   0.94285081 
   50900    205.94137    241.31321    132375.41   -41818.423    2562.3021   -44380.725    31.494468   0.94347953 
   51000    204.57302     74.94093    132276.74   -41849.908    2545.2773   -44395.185    31.517287   0.94418331 
   51100    205.06271    218.81903    132370.74   -41882.337      2551.37   -44433.707    31.814345   0.94351282 
   51200    201.53111    213.47841    132364.32   -41856.722    2507.4301   -44364.152    31.904024   0.94355861 
   51300    201.65527    31.391379    132350.01   -41910.176    2508.9749    -44419.15    31.902931   0.94366062 
   51400    201.48769    90.722797    132187.45    -41917.87    2506.8899    -44424.76    31.812068   0.94482112 
   51500    202.11485    204.92847    132310.31   -41918.058     2514.693   -44432.751    32.008468   0.94394378 
   51600    204.27509    261.10681    132382.45   -41862.612    2541.5705   -44404.183    31.893474   0.94342937 
   51700    205.70663    91.328022    132459.31   -41863.196    2559.3815   -44422.578    32.033072   0.94288193 
   51800    203.32197    198.33857    132416.93   -41896.309    2529.7118   -44426.021    32.138427   0.94318372 
   51900     207.5726    255.74314    132465.02   -41934.434    2582.5978   -44517.032    32.234318   0.94284128 
   52000    200.38054    355.74463    132399.54   -41958.299    2493.1149   -44451.414    32.149461   0.94330759 
   52100    203.94433    240.25533    132547.96   -41922.605    2537.4552   -44460.061    31.921077    0.9422513 
   52200    201.00494    184.86328    132340.53   -41938.685    2500.8836   -44439.568    31.856331   0.94372818 
   52300     204.2095    126.20801    132255.26   -41912.573    2540.7545   -44453.328    32.088784   0.94433667 
   52400    202.35031    362.64353     132409.6   -41850.463    2517.6226   -44368.086      32.1551   0.94323592 
   52500    207.76638     278.0912    132465.82   -41844.694    2585.0088   -44429.703    32.163381   0.94283557 
   52600    201.03134    204.43445    132346.13   -41864.318    2501.2121    -44365.53    32.140353   0.94368827 
   52700    204.14775    118.57429    132288.54   -41873.505    2539.9861   -44413.491    32.034084   0.94409909 
   52800    204.61423    192.91307     132323.4   -41833.424    2545.7901   -44379.214    32.177921   0.94385039 
   52900    202.74215    254.00047    132173.45   -41825.046    2522.4978   -44347.544    32.012036   0.94492114 
   53000    206.36303    187.06757    132165.22    -41796.89    2567.5484   -44364.438    32.046786   0.94497999 
   53100    203.62198    179.50994    132249.38   -41834.109    2533.4445   -44367.554    32.039649   0.94437865 
   53200    202.94747     198.8992    132238.07   -41826.115    2525.0524   -44351.168    32.130004   0.94445939 
   53300    206.85967    317.40492    132276.77   -41823.393    2573.7276    -44397.12    32.050262    0.9441831 
   53400     205.1287    226.75437    132350.98   -41899.345     2552.191   -44451.536    32.185626   0.94365366 
   53500    203.02435     92.87754    132340.58   -41908.317    2526.0089   -44434.325    32.108064   0.94372788 
   53600    203.59568    152.21578    132319.55   -41909.166    2533.1174   -44442.283    32.215071   0.94387783 
   53700    201.33307    311.43972    132060.68   -41938.737    2504.9661   -44443.704    32.314291   0.94572804 
   53800    202.27789    177.53991    132214.01   -41831.827    2516.7215   -44348.549    32.408977   0.94463131 
   53900    202.63229    173.25729    132273.39   -41876.897    2521.1309   -44398.028    32.303398   0.94420726 
   54000    206.34239    173.41262    132303.56   -41844.422    2567.2917   -44411.713    32.282082   0.94399189 
   54100    205.18456     161.0687    132168.27   -41859.174     2552.886    -44412.06    32.320481   0.94495817 
   54200    204.97306    375.69964    132313.74    -41840.96    2550.2545   -44391.214    32.515468   0.94391927 
   54300    203.59955    157.81277     132219.4   -41813.428    2533.1655   -44346.594     32.59841    0.9445928 
   54400    201.44636    329.83801    132267.47   -41839.969    2506.3757   -44346.345    32.461357   0.94424946 
   54500     204.3838    251.52101     132329.6   -41828.655     2542.923   -44371.578     32.50874   0.94380616 
   54600    208.45056    65.639501    132370.72   -41742.853    2593.5213   -44336.374    32.475276   0.94351294 
   54700    208.29458    287.49258    132342.54   -41758.216    2591.5805   -44349.797    32.364593   0.94371388 
   54800    207.14308     89.76903    132280.89   -41817.038    2577.2537   -44394.292    32.564064   0.94415369 
   54900    203.78175     260.4596    132327.17   -41851.153    2535.4324   -44386.585    32.639833   0.94382346 
   55000    201.81297    234.23388    132271.13   -41899.275    2510.9371   -44410.212    32.562617   0.94422335 
   55100    202.12259    235.80505    132337.16   -41859.094    2514.7893   -44373.883    32.773446   0.94375221 
   55200    200.83736    107.00894    132321.76    -41862.36    2498.7985   -44361.158    32.825159   0.94386205 
   55300    207.60848    130.24669    132314.66   -41820.557    2583.0441   -44403.601    32.665183   0.94391276 
   55400    206.46511    176.00722    132441.75   -41797.105    2568.8185   -44365.923    32.615537   0.94300693 
   55500    208.87068    246.53698    132501.28   -41744.898    2598.7484   -44343.647    32.757163   0.94258331 
   55600    208.24175    137.31535     132582.9   -41792.711    2590.9233   -44383.634    32.715837   0.94200298 
   55700    205.41371    270.01757    132556.03   -41797.184    2555.7371   -44352.921    32.791298   0.94219395 
   55800    207.26872    86.937947    132537.29   -41808.611    2578.8169   -44387.428    32.935145   0.94232719 
   55900     207.0187    163.99576    132559.74   -41775.609    2575.7061   -44351.315    33.008748    0.9421676 
   56000    207.38803    244.28968    132577.57   -41769.697    2580.3014   -44349.999    33.136311   0.94204089 
   56100    206.41199    99.973962    132527.59   -41745.053    2568.1576    -44313.21    33.019638   0.94239615 
   56200     206.8033    213.57612     132567.8   -41752.641    2573.0262   -44325.667     32.89379   0.94211035 
   56300    204.29111    271.47716    132467.08   -41783.718    2541.7698   -44325.488    32.830468   0.94282665 
   56400    205.30855    312.66041    132525.01   -41759.451    2554.4287    -44313.88    33.135126    0.9424145 
   56500      200.973    125.28853    132559.81   -41854.833    2500.4862   -44355.319    33.072455   0.94216709 
   56600    207.31696    233.46408    132383.01   -41864.408    2579.4172   -44443.825    33.248117   0.94342539 
   56700    203.10433     336.8569    132428.42   -41891.814     2527.004   -44418.818    33.185633   0.94310189 
   56800    204.04639    180.97771     132475.7    -41831.61     2538.725   -44370.335    33.344652   0.94276528 
   56900    205.04722    204.41226    132458.27   -41812.764    2551.1772   -44363.941    33.324673   0.94288932 
   57000    209.33935    272.59665     132444.7   -41760.566    2604.5795   -44365.145    33.324209   0.94298598 
   57100    202.04948    158.19588    132380.58   -41816.509    2513.8797   -44330.389    33.266992   0.94344272 
   57200    206.45261    232.41863    132302.27   -41845.478     2568.663   -44414.141     33.30542   0.94400112 
   57300    201.25915    263.22336    132486.78   -41894.192    2504.0465   -44398.239    33.230688   0.94268645 
   57400    200.03827    338.70737    132643.57   -41907.676    2488.8564   -44396.533    33.244182   0.94157214 
   57500    199.47656    152.89303    132633.93   -41949.112    2481.8677   -44430.979    33.577008   0.94164055 
   57600    199.41894    277.42475    132667.02   -41914.016    2481.1507   -44395.166    33.366664    0.9414057 
   57700    200.24034    232.22638     132590.1   -41954.471    2491.3705   -44445.841    33.544636   0.94195185 
   57800    200.04663     315.6868    132611.58   -41973.424    2488.9604   -44462.385    33.500848    0.9417993 
   57900    197.28876    215.10813    132637.96   -41936.279    2454.6472   -44390.926    33.545894   0.94161195 
   58000    197.56151    295.32368    132584.94   -41929.025    2458.0408   -44387.066    33.477285    0.9419885 
   58100     201.5957    172.67347    132462.72   -41870.056    2508.2337   -44378.289    33.537702   0.94285764 
   58200    205.88495    214.86995    132546.03   -41825.307    2561.6002   -44386.907    33.634133   0.94226502 
   58300     207.7634    279.67277    132562.47   -41764.543    2584.9717   -44349.515    33.757131   0.94214817 
   58400    206.02766    255.51262    132603.54   -41768.934    2563.3757    -44332.31    33.922244   0.94185636 
   58500    208.43595    205.34279    132508.62   -41781.075    2593.3395   -44374.414    33.695276   0.94253108 
   58600     204.3139    157.03585    132516.65   -41755.033    2542.0534   -44297.087    33.579994   0.94247396 
   58700    206.26793    265.51859    132608.94   -41763.338    2566.3652   -44329.704    33.639267     0.941818 
   58800    206.45738    240.19785    132640.75   -41817.418    2568.7223    -44386.14    33.816368    0.9415922 
   58900    203.45585    237.96577    132725.28    -41859.47    2531.3775   -44390.848    33.822842   0.94099246 
   59000    202.13301    221.79099    132569.84    -41840.58     2514.919   -44355.499    33.940138   0.94209583 
   59100    209.93587    225.19542    132617.13   -41842.316    2612.0013   -44454.318     33.92258   0.94175987 
   59200    202.77797    87.166534    132594.94   -41857.666    2522.9435   -44380.609    33.666928   0.94191749 
   59300    201.05279    197.26055    132487.41   -41846.234    2501.4789   -44347.713    33.638949   0.94268198 
   59400    199.64429    121.86866    132419.91   -41890.788    2483.9546   -44374.743    33.728242   0.94316249 
   59500    204.65416    184.78232    132414.24   -41849.236    2546.2868   -44395.523     33.75068    0.9432029 
   59600    207.57444    127.57467    132305.21   -41838.631    2582.6207   -44421.252    33.678449   0.94398016 
   59700    200.74624    133.34145    132374.49   -41863.271    2497.6649   -44360.936    33.848865   0.94348612 
   59800    205.89877    228.21554    132351.42   -41858.851    2561.7721   -44420.623    33.768624   0.94365055 
   59900    202.53957    285.75477    132511.02   -41846.722    2519.9773   -44366.699    33.874503   0.94251399 
   60000    206.66678    106.24528    132675.06   -41876.655    2571.3277   -44447.982    33.946458   0.94134864 
   60100    205.12293    97.040796    132566.78   -41843.109    2552.1192   -44395.228    33.881395   0.94211753 
   60200    206.34613   -18.178577    132573.33   -41832.514    2567.3381   -44399.852    33.774713   0.94207105 
   60300    206.25237    198.72502    132420.86   -41812.034    2566.1715   -44378.205    33.831698   0.94315571 
   60400    208.63681     99.31904    132432.79    -41760.95    2595.8386   -44356.789    33.824701   0.94307077 
   60500    206.48022    331.08815    132439.55   -41786.219    2569.0064   -44355.226    33.856146   0.94302262 
   60600    204.48831    372.72763    132341.89   -41829.831    2544.2234   -44374.054    33.879889   0.94371853 
   60700    203.47331    153.70429    132362.48   -41847.972    2531.5948   -44379.566    33.773849   0.94357173 
   60800    206.42345    215.84212    132401.76   -41810.788    2568.3002   -44379.088    33.746132   0.94329178 
   60900    204.45323    182.40105    132623.12   -41807.224    2543.7868   -44351.011     33.88064   0.94171731 
   61000     206.9904    272.84367    132754.45   -41842.161    2575.3541   -44417.516    34.034508   0.94078571 
   61100    205.28732    222.22052    132550.16   -41878.764    2554.1646   -44432.929    33.928235   0.94223568 
   61200    202.33865    217.50495    132559.51     -41874.1    2517.4775   -44391.577    33.942764   0.94216925 
   61300    205.56233    213.68965    132776.46   -41869.659    2557.5862   -44427.245    33.991438   0.94062976 
   61400    205.26347    178.11142    132757.23   -41911.227    2553.8678   -44465.095    33.991849   0.94076602 
   61500    199.93556    232.41826    132675.79   -41907.687    2487.5785   -44395.266    34.095277   0.94134346 
   61600    203.30815    379.69651    132666.93   -41868.953    2529.5399   -44398.493    33.980598   0.94140638 
   61700    203.12383    150.52132    132599.29   -41938.524    2527.2467   -44465.771    34.105543   0.94188657 
   61800    200.09359    147.82353    132493.91   -41992.702    2489.5446   -44482.247    34.074955   0.94263569 
   61900    201.95649    184.40878    132785.49   -41939.605    2512.7227   -44452.328    34.227058   0.94056578 
   62000    206.61738    302.51814    132738.92   -41892.381     2570.713   -44463.094    34.119413   0.94089581 
   62100    204.75173    256.07586    132773.89   -41911.037    2547.5008   -44458.537    34.083789   0.94064799 
   62200    206.04206    120.69561    132895.66   -41867.064    2563.5549   -44430.619    34.216943   0.93978609 
   62300    203.25748    190.05196    132756.78   -41905.972    2528.9095   -44434.882    34.142847   0.94076919 
   62400    207.70555    173.20827    132737.97    -41847.53    2584.2519   -44431.782     34.20574   0.94090252 
   62500    206.16717    289.70508    132634.25   -41858.221    2565.1116   -44423.333    34.215058   0.94163832 
   62600    204.16845    233.74974    132621.99   -41859.224    2540.2436   -44399.467    34.004359   0.94172536 
   62700    204.17087    151.55064    132604.59   -41874.111    2540.2738   -44414.385    34.148383   0.94184893 
   62800    204.47645    232.02719    132671.89   -41863.626    2544.0757   -44407.702    34.253722   0.94137115 
   62900    205.66745     265.4807     132797.5   -41814.861    2558.8941   -44373.755    34.189135   0.94048076 
   63000    207.06587    213.08197    132751.41   -41786.875    2576.2931   -44363.168    34.210806    0.9408073 
   63100    208.83798     201.6761    132694.77   -41784.847    2598.3415   -44383.189    34.024148   0.94120886 
   63200    206.72402    262.78315    132671.62   -41815.337    2572.0399   -44387.377    34.121913    0.9413731 
   63300    205.47358    279.72635    132584.55   -41852.934    2556.4819   -44409.416    34.342126   0.94199128 
   63400     211.9283    180.20157    132470.97    -41778.19     2636.791   -44414.981    34.392374   0.94279897 
   63500    201.01796    156.96265    132613.78   -41865.608    2501.0456   -44366.654    34.387268   0.94178369 
   63600    206.40469    120.93137    132514.05   -41865.414    2568.0667   -44433.481    34.208324   0.94249245 
   63700    205.93654    226.05763    132465.02   -41865.688    2562.2421    -44427.93    34.149103   0.94284126 
   63800    200.54329    27.746392    132292.68   -41955.984    2495.1397   -44451.124    34.453259   0.94406953 
   63900    202.77697    253.44412    132334.18   -41956.262     2522.931   -44479.193    34.468508    0.9437735 
   64000    203.35681    216.13279     132407.7   -41942.706    2530.1454   -44472.852    34.214806   0.94324944 
   64100    202.59022    131.43614    132361.59   -41858.633    2520.6075   -44379.241     34.27869   0.94357806 
   64200    203.32243    264.40715    132392.03   -41850.013    2529.7176   -44379.731    34.220744   0.94336113 
   64300    205.53573    171.00397    132492.91   -41766.426    2557.2553   -44323.681     34.35135   0.94264286 
   64400    207.71171    143.88391    132398.36   -41794.274    2584.3286   -44378.602    34.267037   0.94331602 
   64500     209.2395     195.7071    132434.27   -41790.234    2603.3372   -44393.571    34.238804   0.94306021 
   64600    208.07268    152.01704    132588.45   -41846.499    2588.8197   -44435.319    34.203228   0.94196358 
   64700    205.00898    157.20608    132458.64   -41866.722    2550.7015   -44417.424    34.385827   0.94288674 
   64800     202.8573    218.15069    132447.43   -41878.858    2523.9305   -44402.789    34.371733   0.94296651 
   64900    203.92368    180.01592    132410.05   -41850.657    2537.1983   -44387.856    34.444849   0.94323274 
   65000     203.9915    133.29198    132408.29   -41823.302     2538.042   -44361.344    34.302674   0.94324526 
   65100    206.52751    221.84222    132526.15   -41847.324    2569.5948   -44416.919    34.161685    0.9424064 
   65200     208.5661    267.15449    132687.65   -41845.696    2594.9588   -44440.655    34.403111   0.94125932 
   65300    207.09038    215.18824    132767.75   -41858.837    2576.5981   -44435.435    34.609659    0.9406915 
   65400    203.93167    181.96705    132681.21   -41813.706    2537.2976   -44351.003    34.543953   0.94130504 
   65500    203.96222    120.54817    132678.34    -41882.15    2537.6778   -44419.827    34.473178    0.9413254 
   65600    203.74753    130.33586    132676.98   -41923.876    2535.0066   -44458.883     34.54375   0.94133507 
   65700    203.38116    255.49166    132628.46   -41969.132    2530.4483    -44499.58    34.494843   0.94167941 
   65800    204.23995    143.14675     132620.1   -41982.808    2541.1332   -44523.941    34.618785   0.94173881 
   65900    206.25452    145.69779    132642.06   -41941.527    2566.1983   -44507.726     34.58135   0.94158283 
   66000     207.8487    194.53836    132511.78   -41852.731     2586.033   -44438.764    34.441472    0.9425086 
   66100    206.82077    86.175725    132380.54   -41804.001    2573.2436   -44377.245    34.462781   0.94344301 
   66200    210.19086    104.95327    132343.59   -41781.081    2615.1739   -44396.255    34.670469   0.94370642 
   66300    207.12932    220.67115     132380.7   -41823.283    2577.0825   -44400.366    34.809153   0.94344183 
   66400    209.55141    250.16894    132520.85   -41868.508    2607.2179   -44475.726    34.687098   0.94244407 
   66500    202.63872     123.3886    132506.63   -41880.703    2521.2109   -44401.914     34.70684   0.94254521 
   66600    205.12907     147.0076    132243.95   -41900.479    2552.1956   -44452.675    34.680486   0.94441741 
   66700    204.24178    180.46908    132365.39   -41921.532    2541.1561   -44462.688    34.722207   0.94355097 
   66800    209.85124      251.635    132440.15   -41871.542    2610.9484    -44482.49     34.64169   0.94301837 
[...]
   84600    202.45472    182.52366    132682.92   -42015.162    2518.9216   -44534.083    37.738912    0.9412929 
   84700    201.34649     86.99898    132734.25   -42030.094    2505.1331   -44535.227    37.801376   0.94092891 
   84800     203.5431    209.66884    132892.51   -41998.804    2532.4632   -44531.267    37.787348   0.93980838 
   84900    201.78195    197.50231    132884.26   -41973.619     2510.551    -44484.17    37.931289   0.93986671 
   85000    202.41222   -44.705378    132938.24   -41930.867    2518.3928    -44449.26    37.917711   0.93948508 
   85100    206.83748    194.23083    132792.42   -41935.963    2573.4515   -44509.414    37.841883    0.9405167 
   85200    206.90375    238.86621     132851.1   -41952.432     2574.276   -44526.708    37.854871   0.94010131 
   85300    205.31876    257.57834    132828.48    -41976.95    2554.5558   -44531.506     37.98396   0.94026139 
   85400    204.48164    112.66326    132940.35   -41969.204    2544.1403   -44513.345    38.008906   0.93947018 
   85500    206.55403    153.70333     132768.7   -41930.018    2569.9249   -44499.943    37.986283   0.94068473 
   85600    203.89664     211.9886       132772   -41897.936    2536.8619   -44434.798    37.974718   0.94066138 
   85700    205.49277    278.14976    132688.55   -41940.733    2556.7207   -44497.453    37.871407   0.94125299 
   85800    202.69163    343.31179    132768.23   -41939.202    2521.8692   -44461.071    37.965324   0.94068808 
   85900     208.4134    205.72241    132845.81   -41850.012    2593.0589   -44443.071    37.860281   0.94013876 
   86000    203.69554    281.12513    133017.09    -41902.83    2534.3597   -44437.189    37.937442   0.93892814 
   86100    205.01212    203.08797    132817.33   -41898.933    2550.7405   -44449.674    37.848107    0.9403403 
   86200    205.37646    245.84533    132934.18   -41872.488    2555.2737   -44427.762    37.888198   0.93951377 
   86300    206.17841     80.49527    132823.75   -41906.971    2565.2515   -44472.222    37.980963   0.94029486 
   86400    200.57403    169.07473    132663.31    -41919.77    2495.5223   -44415.293    37.977634   0.94143207 
   86500     208.2294    246.14584    132680.59   -41904.468    2590.7696   -44495.238    37.889574    0.9413094 
   86600    209.26891    322.21999    132698.84   -41849.561    2603.7031   -44453.264     37.83682   0.94117996 
   86700     207.3967    105.27531    132735.54   -41841.407    2580.4093   -44421.817    37.975925   0.94091978 
   86800    205.11609    242.48843    132779.67    -41898.88    2552.0341   -44450.915    38.075064   0.94060701 
   86900    208.96261    223.29411    132734.82   -41864.482    2599.8921   -44464.374    37.992776   0.94092487 
   87000    207.35555    221.38435    132775.64    -41867.63    2579.8972   -44447.527    38.256626   0.94063557 
   87100      203.515    176.60523    132870.11   -41900.709    2532.1135   -44432.823    38.043129    0.9399668 
   87200    206.85976    103.49596    132791.16   -41888.764    2573.7287   -44462.493     38.16793   0.94052562 
   87300    201.21243     152.7297    132872.89   -41882.554    2503.4651   -44386.019    38.226859   0.93994711 
   87400    203.52382    288.86217    132808.89   -41888.903    2532.2233   -44421.127    38.276359   0.94040006 
   87500    203.45611    141.32849    132723.13    -41904.03    2531.3809   -44435.411    38.253763    0.9410077 
   87600     204.0884     246.9475    132759.23   -41902.338    2539.2477   -44441.586     38.34498   0.94075183 
   87700    206.98896    129.82653    132633.31   -41912.014    2575.3361    -44487.35    38.143053   0.94164496 
   87800    207.80628     38.37172    132602.82   -41885.149    2585.5052   -44470.654    38.311994   0.94186151 
   87900    204.29394    313.53987    132667.81   -41899.182     2541.805   -44440.987    38.374976   0.94140008 
   88000    200.74484    173.86258    132670.24   -41908.493    2497.6474   -44406.141    38.507708   0.94138286 
   88100    206.93164    236.98099    132555.45    -41841.46     2574.623   -44416.083    38.369995   0.94219809 
   88200    205.30219    260.94623    132535.55   -41813.294    2554.3496   -44367.643    38.378964   0.94233956 
   88300    204.00523    299.99246    132552.14   -41837.045    2538.2129   -44375.258    38.437142    0.9422216 
   88400    205.59009    259.94962    132687.04   -41937.582    2557.9316   -44495.514    38.471327    0.9412637 
   88500    202.41787    412.71562    132705.95   -41851.208    2518.4631   -44369.671    38.509019   0.94112957 
   88600    207.58746    257.47087    132744.92   -41823.891    2582.7826   -44406.674    38.543907   0.94085329 
   88700    209.23996    182.01367    132851.44   -41826.828    2603.3429   -44430.171    38.470708   0.94009889 
   88800    204.84537    232.22109    133018.22   -41772.794    2548.6659    -44321.46    38.463955   0.93892017 
   88900    208.13478    246.84202     132948.5   -41823.492    2589.5924   -44413.085    38.623623    0.9394126 
   89000    203.95841    225.02252    132907.33   -41809.432    2537.6304   -44347.062    38.544988   0.93970358 
   89100    203.79474    223.24852    132872.59   -41907.566     2535.594    -44443.16    38.623224   0.93994925 
   89200    200.45118    317.48327     132848.3   -41937.067    2493.9938   -44431.061    38.615286   0.94012113 
   89300    207.08389     237.2821    132923.26   -41955.708    2576.5173   -44532.225    38.734054   0.93959094 
   89400    202.13624    280.43326    133019.59   -41976.705    2514.9591   -44491.664    38.628353    0.9389105 
   89500    196.90563    60.317847    133040.36   -42013.711    2449.8803   -44463.592    38.878692   0.93876393 
   89600     198.1321     325.5232     133190.1   -42057.259      2465.14   -44522.399    38.757956   0.93770854 
   89700    199.43622    174.17829    133114.63   -42027.611    2481.3657   -44508.976    38.801298   0.93824016 
   89800      203.538    140.07214    133120.48   -41997.535    2532.3997   -44529.935    38.862297   0.93819893 
   89900    204.69014      77.4251    133101.03   -42052.149    2546.7344   -44598.883    38.998869   0.93833604 
   90000    208.01389    281.23487    133121.17   -41966.192    2588.0882   -44554.281    39.041087   0.93819406 
   90100    202.01784     134.5577    133219.64   -41978.059    2513.4859   -44491.545    38.924971   0.93750057 
   90200    203.64321    195.05967    133142.16    -42012.41    2533.7087   -44546.119    39.106484   0.93804613 
   90300    203.57039    73.710869    133122.55   -42026.868    2532.8026   -44559.671    38.998549   0.93818431 
   90400    199.83483    113.72251    133080.53   -42015.084    2486.3252   -44501.409    38.835914   0.93848054 
   90500     204.1556    162.27248    133057.66   -41989.062    2540.0838   -44529.145    38.956528   0.93864185 
   90600    206.32716    191.18688    133174.37   -41905.608    2567.1022   -44472.711    38.973851   0.93781928 
   90700    205.49925    248.72346    133215.09   -41911.907    2556.8014   -44468.709     38.97645   0.93753261 
   90800    205.97159    181.14238    133252.13   -41949.389    2562.6782   -44512.067    39.081335   0.93727199 
   90900    203.36505    120.86586     133140.6   -42036.903    2530.2479   -44567.151    38.908301   0.93805716 
   91000    201.31832    147.14498    133230.48   -42047.445    2504.7826   -44552.227    39.173776   0.93742429 
   91100    201.85381    184.92898    133231.62   -42028.267    2511.4451   -44539.713    39.237615   0.93741628 
   91200    202.11079     157.4066    133352.93    -41990.02    2514.6424   -44504.662    39.150157   0.93656354 
   91300    209.12926     159.8094    133347.69   -41907.005    2601.9655   -44508.971    39.257055   0.93660034 
   91400    209.14781    289.37109    133309.86   -41887.865    2602.1964   -44490.061    39.258225   0.93686615 
   91500    204.14952    121.93473    133128.44   -41904.227    2540.0082   -44444.235    39.120035   0.93814282 
   91600     207.0111    287.69831    133156.81   -41943.284    2575.6116   -44518.896    39.175629   0.93794294 
   91700    202.62001    125.48489    133188.68   -42009.597    2520.9781   -44530.575    39.104431   0.93771849 
   91800    206.49562     179.6869    133169.94   -41976.718    2569.1981   -44545.916    39.154634   0.93785045 
   91900    200.34068    258.84028    133088.34   -41974.699     2492.619   -44467.318    39.267499   0.93842546 
   92000    205.75256    203.85939     133038.5   -41981.779     2559.953   -44541.732    39.329096   0.93877707 
   92100    199.58272    201.63813    133058.43    -42021.32    2483.1884   -44504.508    39.249148   0.93863647 
   92200    201.89682    131.94947    133246.44   -41966.085    2511.9802   -44478.066    39.152105   0.93731206 
   92300     205.1187    186.64167    133188.45   -41892.484    2552.0666   -44444.551    39.091519   0.93772011 
   92400    206.61875    248.76088    133186.84   -41904.512    2570.7301   -44475.242    39.374284   0.93773149 
   92500    206.19105    189.29347    133071.67   -41948.924    2565.4086   -44514.332    39.337572   0.93854306 
   92600    205.01135    247.16564    133025.56   -41921.421    2550.7309   -44472.151    39.475266   0.93886836 
   92700    208.30418     71.69907    133040.52   -41913.154       2591.7   -44504.854    39.465062   0.93876277 
   92800    207.81737    176.38216    133039.12    -41958.36    2585.6432   -44544.003    39.432355   0.93877271 
   92900    203.12637    158.04265    133088.58   -41917.276    2527.2782   -44444.554     39.54827   0.93842383 
   93000    206.36341    229.80006    133144.84   -41945.888    2567.5532   -44513.442    39.428883   0.93802729 
   93100     204.7375    145.75197    133106.68    -41886.82    2547.3237   -44434.144    39.336943   0.93829617 
   93200     208.0475    226.94816    132999.78   -41901.467    2588.5064   -44489.974    39.413683   0.93905035 
   93300    206.81909    227.31228     132839.8   -41915.743    2573.2227   -44488.966    39.454969   0.94018128 
   93400     202.6993    162.89652    133118.26    -41946.26    2521.9647   -44468.225    39.361381   0.93821457 
   93500    202.36852    199.32789     133059.4    -41991.54    2517.8491   -44509.389    39.402717    0.9386296 
   93600    202.08039    294.53513    133084.32   -42049.349    2514.2642   -44563.614     39.29365   0.93845382 
   93700    201.23587    223.62705    132920.48   -42014.224    2503.7568   -44517.981    39.275036    0.9396106 
   93800    203.34727    265.40252    133030.22   -41982.456    2530.0266   -44512.482    39.518713   0.93883549 
   93900    204.42937    122.68912    133075.22   -41968.105      2543.49   -44511.595    39.575782     0.938518 
   94000    204.09795    147.87702    133123.86   -41983.602    2539.3665   -44522.969    39.593254   0.93817512 
   94100    206.28225    345.04135    133058.64   -41984.395    2566.5433   -44550.938    39.414608   0.93863495 
   94200    204.85019    240.15697     133014.5   -41980.311    2548.7258   -44529.037    39.338047   0.93894647 
   94300    206.86432    240.21156    133227.09   -41949.234    2573.7854   -44523.019    39.473172   0.93744817 
   94400    207.02921    151.28363    133184.73    -41939.94    2575.8369   -44515.777    39.555106   0.93774631 
   94500    208.62303    85.428297       133321   -41881.543    2595.6671    -44477.21    39.695741   0.93678781 
   94600    207.24114     227.7659    133190.44   -41918.768    2578.4738   -44497.242    39.656681   0.93770613 
   94700    201.16923    225.69408    133159.61   -41957.734    2502.9276   -44460.662    39.741938   0.93792325 
   94800    202.31405    114.67279    133053.36   -41952.426    2517.1714   -44469.597    39.729616   0.93867222 
   94900    203.97633     198.8555    133009.16    -41919.21    2537.8534   -44457.063    39.816694   0.93898411 
   95000    206.58777    280.30166    133050.77   -41909.099    2570.3446   -44479.444    39.708975   0.93869051 
   95100    210.30242    151.11232    133028.65   -41915.345    2616.5619   -44531.907    39.768137   0.93884659 
   95200     203.2085    177.57406    132998.35   -41941.629       2528.3   -44469.929     39.79163   0.93906046 
   95300    210.45595    307.72621    133067.87   -41851.664    2618.4721   -44470.136    39.785609   0.93856982 
   95400    208.12992    222.02813    133035.74   -41907.637    2589.5319   -44497.169     39.70015   0.93879656 
   95500    204.54553    81.273984    133180.38   -41914.991    2544.9353   -44459.927      39.8946   0.93777697 
   95600    206.97639    162.31647    133219.76    -41915.02    2575.1798     -44490.2    39.967278   0.93749977 
   95700     206.7708    321.90039    133036.62   -41974.331    2572.6219   -44546.952    39.716681   0.93879029 
   95800     203.2334     189.0571    133221.66   -42022.621    2528.6099   -44551.231     39.66993   0.93748639 
   95900     207.5633    191.92052    132999.68   -41967.543    2582.4821   -44550.025    39.599523   0.93905104 
   96000    204.05023    138.83505    133040.28   -42039.317    2538.7728    -44578.09     39.69782   0.93876446 
   96100    205.92491    231.50852    133067.95   -41985.791    2562.0974   -44547.888    39.792011   0.93856931 
   96200    203.91281    238.17776    133116.63   -42020.164     2537.063   -44557.227    39.858552   0.93822604 
   96300    205.06164    155.57534    133200.62   -41974.293    2551.3566   -44525.649    39.936295   0.93763445 
   96400    208.35946    207.05691    133182.51   -41961.028    2592.3878   -44553.416    39.981539   0.93776196 
   96500    204.62456    271.55927    133131.34    -42008.84    2545.9186   -44554.758    39.959491    0.9381224 
   96600    203.66034    153.62353    133198.98   -42010.572    2533.9218   -44544.494    39.834597   0.93764597 
   96700    201.17685    202.22591    133275.53   -42086.006    2503.0225   -44589.028    39.917032   0.93710748 
   96800    201.58471    182.49933    133277.12   -42132.637     2508.097   -44640.734    40.086738   0.93709625 
   96900    207.24886    226.28501    133225.81   -42074.233    2578.5698   -44652.803    40.248492   0.93745714 
   97000    202.91697    143.19677    133251.43   -42076.218    2524.6728    -44600.89    40.205468   0.93727696 
   97100     204.9218    299.63044    133281.86    -42068.57    2549.6168   -44618.187    39.904707   0.93706297 
   97200    201.22424    102.06127    133233.36   -42078.882    2503.6121   -44582.494    39.888798   0.93740406 
   97300    200.05168    174.95653    133227.68   -42084.008    2489.0232   -44573.031    39.963483   0.93744404 
   97400    203.75358    291.96385    133198.53   -42074.507    2535.0819   -44609.589    40.185348   0.93764918 
   97500    204.29782    183.90153    133286.83   -41990.069    2541.8532   -44531.922    40.343559   0.93702796 
   97600     201.8701    240.14444    133165.04   -42047.046    2511.6479   -44558.694     40.16875   0.93788495 
   97700     207.6185    355.18421    133269.47   -41982.571    2583.1689    -44565.74    40.080288   0.93715004 
   97800    204.21227    205.24543    133355.67   -41965.605    2540.7889   -44506.394    40.057236   0.93654431 
   97900     208.1225    204.09963    133302.03   -41927.487    2589.4395   -44516.927      40.2829   0.93692118 
   98000    206.33347    195.68633    133280.12   -41947.847    2567.1807   -44515.027    40.218932   0.93707518 
   98100     207.5906    310.99086    133187.87   -42026.015    2582.8217   -44608.837    40.243057   0.93772422 
   98200    209.63037    193.12301    133237.03   -42011.645    2608.2004   -44619.845    40.158323   0.93737821 
   98300    204.13498    142.48204    133309.35   -42024.466    2539.8273   -44564.293      40.3179   0.93686967 
   98400    203.11685    132.75677     133224.9   -42030.527    2527.1598   -44557.687    40.295435   0.93746358 
   98500    203.20106    74.929994    133291.57   -42037.659    2528.2074   -44565.867    40.322933   0.93699467 
   98600    202.92682    232.18766    133228.01    -42064.38    2524.7954   -44589.175    40.060925   0.93744166 
   98700    201.03818    99.671756    133298.44   -42116.017    2501.2972   -44617.314    40.143294   0.93694635 
   98800    201.49034    242.28914    133210.08   -42082.939    2506.9229   -44589.862    40.318891   0.93756785 
   98900    202.07404    118.80196    133287.43   -42100.437    2514.1852   -44614.622    40.347156   0.93702377 
   99000      199.397    266.21698    133304.84   -42128.345    2480.8778   -44609.223    40.449207   0.93690139 
   99100    200.76463    190.95773    133352.73   -42052.114    2497.8937   -44550.008    40.434467   0.93656495 
   99200    203.54087    190.42076    133367.01   -42038.499    2532.4354   -44570.935    40.261392   0.93646466 
   99300    206.65869    130.56924     133457.5   -41999.594     2571.227   -44570.821    40.416518   0.93582972 
   99400     210.1562    256.68714    133556.81   -41973.489    2614.7427   -44588.232    40.422476   0.93513381 
   99500    209.06105    163.76765    133536.98   -41872.114     2601.117   -44473.231    40.395278   0.93527271 
   99600    209.40467    289.24311    133639.84   -41896.025    2605.3922   -44501.417    40.387423   0.93455286 
   99700    208.51532     142.2779    133553.52   -41913.559     2594.327   -44507.886    40.387984   0.93515688 
   99800    209.78339    153.60536       133534   -41931.332    2610.1042   -44541.436    40.413193   0.93529353 
   99900    205.59343    135.74445    133342.82   -41989.311    2557.9732   -44547.284    40.417761   0.93663458 
  100000    205.71867     40.69323    133362.59   -42003.805    2559.5313   -44563.336    40.510806   0.93649566 
  100100    208.93399     178.1684    133502.47   -41937.025     2599.536   -44536.561    40.679256   0.93551448 
  100200    205.15271    194.60334    133419.23   -41936.921    2552.4897   -44489.411    40.435728   0.93609815 
  100300     206.9156    192.59837    133369.74    -41936.69    2574.4234   -44511.114     40.47558   0.93644547 
  100400     209.4817    146.70395    133317.01    -41975.52    2606.3506    -44581.87    40.468457   0.93681585 
  100500    213.32954     160.8698    133303.55   -41904.921    2654.2251   -44559.146    40.534336   0.93691049 
  100600    203.21268    240.26702    133391.68   -41990.558    2528.3521    -44518.91    40.495977   0.93629149 
  100630    207.24261    148.88403    133374.83   -41975.277     2578.492   -44553.769    40.546099   0.93640978 
Loop time of 75.6271 on 6 procs for 100000 steps with 4175 atoms

Performance: 571.224 ns/day, 0.042 hours/ns, 1322.278 timesteps/s
98.4% CPU use with 6 MPI tasks x no OpenMP threads

MPI task timing breakdown:
Section |  min time  |  avg time  |  max time  |%varavg| %total
---------------------------------------------------------------
Pair    | 59.329     | 61.118     | 62.537     |  13.8 | 80.81
Neigh   | 4.6628     | 4.7079     | 4.7597     |   1.5 |  6.23
Comm    | 5.7724     | 7.251      | 9.0781     |  41.1 |  9.59
Output  | 0.15907    | 0.15985    | 0.16327    |   0.4 |  0.21
Modify  | 1.7379     | 1.7621     | 1.7828     |   1.0 |  2.33
Other   |            | 0.6286     |            |       |  0.83

Nlocal:        695.833 ave         700 max         690 min
Histogram: 1 0 0 0 1 0 2 0 0 2
Nghost:        1454.00 ave        1471 max        1438 min
Histogram: 2 0 0 0 1 1 0 1 0 1
Neighs:        0.00000 ave           0 max           0 min
Histogram: 6 0 0 0 0 0 0 0 0 0
FullNghs:      19047.7 ave       19152 max       18905 min
Histogram: 1 0 0 1 0 0 2 1 0 1

Total # of neighbors = 114286
Ave neighs/atom = 27.373892
Neighbor list builds = 5056
Dangerous builds = 0

undump              1
unfix               2
unfix               3
unfix               4


################################################
#######         Run Simulation         #########
################################################

reset_timestep      0
log                 log.run_${NAME}
log                 log.run_liquid_density_MLmW
