
# Create simulation box of size 50 x 50 x 50 Angstrom
#
lattice	            sc 1
Lattice spacing in x,y,z = 1.0000000 1.0000000 1.0000000
region 	            all block 0 50 0 50 0 50 units box
create_box          1 all
Created orthogonal box = (0.0000000 0.0000000 0.0000000) to (50.000000 50.000000 50.000000)
  1 by 2 by 3 MPI processor grid

# fill box with 4169 randomly distributed atoms
#
create_atoms        1 random 4169 63782 all
Created 4169 atoms
  create_atoms CPU = 0.000 seconds
mass                1 18.15

# Define potential
#
pair_style          sw
pair_coeff          * * ML_mW.sw mW
Reading sw potential file ML_mW.sw with DATE: 2019-02-27

# Run minimization
#
minimize            1.0e-8 1.0e-8 10000 1000
WARNING: Using 'neigh_modify every 1 delay 0 check yes' setting during minimization (../min.cpp:187)
Neighbor list info ...
  update every 1 steps, delay 0 steps, check yes
  max neighbors/atom: 2000, page size: 100000
  master list distance cutoff = 6.0032907
  ghost atom cutoff = 6.0032907
  binsize = 3.0016454, bins = 17 17 17
  1 neighbor lists, perpetual/occasional/extra = 1 0 0
  (1) pair sw, perpetual
      attributes: full, newton on
      pair build: full/bin/atomonly
      stencil: full/bin/3d
      bin: standard
Per MPI rank memory allocation (min/avg/max) = 4.255 | 4.258 | 4.261 Mbytes
Step Temp E_pair E_mol TotEng Press 
       0            0    7783778.6            0    7783778.6    5891538.7 
     630            0   -45100.671            0   -45100.671   -33.645425 
Loop time of 1.19942 on 6 procs for 630 steps with 4169 atoms

99.8% CPU use with 6 MPI tasks x no OpenMP threads

Minimization stats:
  Stopping criterion = max force evaluations
  Energy initial, next-to-last, final = 
       7783778.6045464  -45100.6138394717  -45100.6714481628
  Force two-norm initial, final = 2.0191929e+08 1.9154294
  Force max component initial, final = 1.0948746e+08 0.55224559
  Final line search alpha, max atom move = 0.074060414 0.040899537
  Iterations, force evaluations = 630 1001

MPI task timing breakdown:
Section |  min time  |  avg time  |  max time  |%varavg| %total
---------------------------------------------------------------
Pair    | 0.93741    | 1.0036     | 1.0737     |   5.2 | 83.67
Neigh   | 0.024393   | 0.025482   | 0.027278   |   0.6 |  2.12
Comm    | 0.076237   | 0.14869    | 0.21502    |  13.6 | 12.40
Output  | 0          | 0          | 0          |   0.0 |  0.00
Modify  | 0          | 0          | 0          |   0.0 |  0.00
Other   |            | 0.02168    |            |       |  1.81

Nlocal:        694.833 ave         711 max         678 min
Histogram: 1 2 0 0 0 0 0 1 0 2
Nghost:        1484.33 ave        1523 max        1464 min
Histogram: 2 1 0 1 0 1 0 0 0 1
Neighs:        0.00000 ave           0 max           0 min
Histogram: 6 0 0 0 0 0 0 0 0 0
FullNghs:      19864.7 ave       20554 max       18883 min
Histogram: 1 0 0 2 0 0 0 0 1 2

Total # of neighbors = 119188
Ave neighs/atom = 28.589110
Neighbor list builds = 26
Dangerous builds = 0

# Add velocity/set timestep
#
velocity            all create ${TEMP} 120598 rot yes dist gaussian
velocity            all create 295 120598 rot yes dist gaussian
timestep            5.0

# Define output
#
compute	            1 all msd
thermo	            100
thermo_style        custom step temp press vol etotal ke pe c_1[4] density

# Neighbor lists
#
neigh_modify        delay 0 every 1 check yes

# Set fixes
#
fix                 1 all momentum 10 linear 1 1 1 rescale
fix                 2 all nve
fix                 3 all temp/csvr ${TEMP} ${TEMP} 500.0 928347
fix                 3 all temp/csvr 295 ${TEMP} 500.0 928347
fix                 3 all temp/csvr 295 295 500.0 928347
fix                 4 all press/berendsen iso ${PRES} ${PRES} 1000.0 modulus 20000
fix                 4 all press/berendsen iso -500 ${PRES} 1000.0 modulus 20000
fix                 4 all press/berendsen iso -500 -500 1000.0 modulus 20000

# Run 0.5 ns equilibration
#
dump                1 all custom 1000 eq.${NAME}.dump id type x y z vx vy vz
dump                1 all custom 1000 eq.liquid_295K_500atm_ML.dump id type x y z vx vy vz
run                 100000
Per MPI rank memory allocation (min/avg/max) = 3.506 | 3.508 | 3.511 Mbytes
Step Temp Press Volume TotEng KinEng PotEng c_1[4] Density 
     630          295    1306.6695       125000   -41435.587    3665.0848   -45100.671 2.1849767e-33    1.0051886 
     700    184.22042   -106.51251    126248.75   -40283.084    2288.7575   -42571.841   0.37185868    0.9952461 
     800    226.09266   -493.06835    126556.91   -39192.598    2808.9789   -42001.577    0.9297848   0.99282278 
     900    249.49561   -380.55319    126753.68   -38514.552    3099.7375   -41614.289    1.5688467   0.99128152 
    1000    264.27187   -467.04733    126753.22   -38041.342     3283.318    -41324.66     2.367714   0.99128512 
    1100    277.34214   -515.23055    126735.02   -37696.834    3445.7032   -41142.538    3.3146358   0.99142747 
    1200    278.63489   -604.19771    126880.12   -37655.357    3461.7644   -41117.121    4.2940815   0.99029371 
    1300     281.7734   -510.80623    126983.98   -37554.842    3500.7573   -41055.599    5.1998794    0.9894837 
    1400    278.66472   -438.44743    127265.16   -37483.548    3462.1351   -40945.683     6.272297   0.98729752 
    1500    286.99508   -571.60161    127094.83   -37346.644    3565.6315   -40912.276    7.3811436   0.98862071 
    1600    290.69743   -536.27313    127080.69   -37175.488    3611.6296   -40787.118    8.4765262   0.98873071 
    1700    287.55374   -566.15657     126706.3    -37168.38    3572.5724   -40740.952    9.4976252   0.99165222 
    1800    285.12329   -188.12398    126635.76   -37239.087    3542.3764   -40781.463    10.800116    0.9922046 
    1900    290.37047    -388.9598    126407.54   -37184.791    3607.5674   -40792.359    11.992439   0.99399591 
    2000    295.70519   -349.95722    126750.15   -37087.668    3673.8461   -40761.514    13.121779    0.9913091 
    2100    293.84396   -312.84732    126786.14   -37007.576    3650.7222   -40658.298    14.282416   0.99102772 
    2200    292.06745   -539.01598    126990.43   -37022.563    3628.6507   -40651.214    15.529212   0.98943342 
    2300    293.86345   -211.22904    127232.22    -36992.25    3650.9643   -40643.215    16.703725   0.98755312 
    2400    297.57644   -809.32167    127284.94   -37028.948    3697.0946   -40726.043    18.065329    0.9871441 
    2500     302.4374   -762.66749    127069.28   -36957.016    3757.4872   -40714.503    19.433185   0.98881951 
    2600    298.46422   -516.86516    126878.42    -36869.67    3708.1244   -40577.794    20.616324   0.99030693 
    2700    294.06416   -430.73865    126679.94   -36870.145    3653.4579   -40523.603    21.679363   0.99185856 
    2800    300.97787   -533.15487    126864.33    -36830.78     3739.354   -40570.134    22.804783    0.9904169 
    2900    294.66267   -416.61987    126770.01   -36906.095    3660.8938   -40566.989    24.257695   0.99115383 
    3000    293.65368   -688.83276    126861.82   -36933.106    3648.3581   -40581.465    25.599527   0.99043656 
    3100    302.42046   -662.16194     126720.5   -36913.614    3757.2767    -40670.89    26.969479   0.99154103 
    3200    293.75973     -331.358    126802.56   -36983.647    3649.6757   -40633.323    28.609201   0.99089937 
    3300    294.97914   -554.96511     127040.3   -36968.234    3664.8256   -40633.059     29.98404   0.98904501 
    3400    299.64316   -520.08155    127023.17   -37013.299    3722.7715    -40736.07    31.244867   0.98917846 
    3500    292.05561   -274.65491    127221.19   -37063.911    3628.5037   -40692.415    32.571428   0.98763881 
    3600    291.79481   -406.65349    127434.32   -37100.232    3625.2635   -40725.496    33.716084     0.985987 
    3700    287.28633   -452.19978    127252.26   -37193.937    3569.2501   -40763.187    34.585549   0.98739763 
    3800    296.08228   -380.39876    127126.44   -37130.359     3678.531    -40808.89    35.873281   0.98837485 
    3900    297.38698   -390.80461    127021.26   -37174.098    3694.7406   -40868.838     37.23044   0.98919333 
    4000    291.52331   -581.02787    127037.92   -37157.749    3621.8903   -40779.639    38.494503    0.9890636 
    4100    294.69607   -620.96266    127357.95   -37121.243    3661.3088   -40782.552    39.727452   0.98657819 
    4200    293.30925   -617.05532    127066.24   -37130.902    3644.0788   -40774.981    40.868112   0.98884313 
    4300     289.9642   -567.94612    126927.29   -37122.282      3602.52   -40724.802    42.145256   0.98992568 
    4400    296.17134   -731.98395    126847.08   -37100.885    3679.6375   -40780.523    43.421463   0.99055159 
    4500    289.47678   -411.64503    126445.12   -37096.401    3596.4643   -40692.865    44.688215   0.99370047 
    4600    292.88099   -585.01486    126191.16   -37147.204    3638.7582   -40785.962    45.703515    0.9957003 
    4700    294.46723   -215.78733    126139.93   -37036.154    3658.4656    -40694.62    47.132401   0.99610476 
    4800     294.0465   -636.17277    126311.38   -37103.422    3653.2385   -40756.661    48.516862   0.99475269 
    4900    302.75046   -525.04091    126334.78   -36951.017    3761.3766   -40712.394    49.862431   0.99456844 
    5000    296.30663   -564.77481    126317.79    -36874.23    3681.3184   -40555.549    50.934273   0.99470219 
    5100     290.7611   -298.83134    126322.67   -36947.696    3612.4207   -40560.117    51.877502   0.99466371 
    5200    295.51247   -259.52794    126387.23   -37034.017    3671.4517   -40705.469    53.291563   0.99415568 
    5300    292.73612   -665.33829    126459.27   -36999.092    3636.9584   -40636.051    54.348104   0.99358935 
    5400    298.40535   -686.73864    126387.84   -37035.787    3707.3929    -40743.18    55.106741   0.99415089 
    5500    294.31084   -468.77991    126437.89    -37025.02    3656.5227   -40681.542    56.224589   0.99375731 
    5600    290.98685   -274.30814    126502.08   -37009.979    3615.2254   -40625.204    57.684682   0.99325307 
    5700    292.50869   -138.07134    126253.48   -37007.773    3634.1327   -40641.906    58.751559   0.99520882 
    5800    291.22478   -169.51976    126304.52   -37047.715    3618.1814   -40665.896    59.898114   0.99480671 
    5900    288.17122    -661.9601    126279.07   -37095.431    3580.2439   -40675.675    60.869454   0.99500716 
    6000    294.92944   -417.12247    126628.06   -37083.451    3664.2082   -40747.659    61.836686   0.99226492 
    6100    295.72648   -265.37361    126802.99   -36991.043    3674.1107   -40665.153    63.384768   0.99089606 
    6200     289.0666   -555.77733    127019.99    -37064.46    3591.3682   -40655.828    64.961618   0.98920321 
    6300    292.39838   -516.11815    126732.46   -37021.598    3632.7622    -40654.36    65.994939   0.99144752 
    6400    295.01793   -299.80136    126584.48   -36991.243    3665.3076   -40656.551    67.067693   0.99260648 
    6500    301.35914    -615.8478    126807.75   -36909.855    3744.0908   -40653.946    68.430678   0.99085881 
    6600    294.56245   -661.97956    126807.89   -37003.889    3659.6487   -40663.538    69.665329   0.99085776 
    6700    288.24175   -466.25644    126776.99   -37084.729    3581.1202    -40665.85    70.874078   0.99109921 
    6800    296.73258   -246.42364    126641.74   -36968.574    3686.6104   -40655.185    71.904649   0.99215773 
    6900    296.65151   -683.42286    126640.79   -36922.923    3685.6032   -40608.526    73.192749   0.99216513 
    7000     302.6596   -668.08914    126855.19   -36926.763    3760.2478   -40687.011    74.714408   0.99048825 
    7100    297.48319   -424.68756    127136.32   -36964.288     3695.936   -40660.224    76.323153   0.98829808 
    7200    292.40895   -476.12306    126964.73    -37059.41    3632.8935   -40692.303     77.18633   0.98963372 
    7300    293.84218   -507.20906     126688.6   -37128.984       3650.7   -40779.684    78.085901   0.99179074 
    7400    288.34964   -627.66407    126736.41    -37189.84    3582.4606   -40772.301    79.404238   0.99141663 
    7500    293.39945   -485.82593    126771.76   -37155.208    3645.1996   -40800.407    80.436425   0.99114013 
    7600    289.58448   -688.28435    126767.65   -37260.185    3597.8022   -40857.987    81.289608   0.99117231 
    7700    292.88019   -526.09656    126885.66   -37123.269    3638.7482   -40762.017    82.760393   0.99025041 
    7800    294.26046   -806.54518    126782.55   -37096.011    3655.8967   -40751.908    83.950044   0.99105577 
    7900    286.09408   -349.41988    126676.58   -37177.181    3554.4375   -40731.619    85.020485   0.99188487 
    8000    292.56836   -382.30668    127052.19   -37121.023     3634.874   -40755.897    86.187938   0.98895252 
    8100    285.92743   -630.81592    126991.71   -37215.732     3552.367   -40768.099    87.522216   0.98942348 
    8200    294.72716   -357.41848     126949.7   -37212.099     3661.695   -40873.794    89.086914    0.9897509 
    8300    290.52046   -405.91419    126553.89   -37205.329     3609.431    -40814.76    90.486881   0.99284644 
    8400    293.95762   -581.42488    126707.87   -37135.364    3652.1343   -40787.499    92.032601   0.99163989 
    8500    296.73122   -756.19564     126625.2   -37054.043    3686.5935   -40740.637    93.599342   0.99228732 
    8600    293.21667   -603.71529    126602.92    -37064.86    3642.9286   -40707.788    94.925807   0.99246194 
    8700    292.91919   -510.67524     126781.3   -37023.545    3639.2328   -40662.778    96.239013   0.99106558 
    8800    292.80914   -608.68281    126735.43   -37052.328    3637.8655   -40690.194    97.519632   0.99142427 
    8900    286.26733   -957.86305    126356.79   -37167.184    3556.5899   -40723.774    98.431266   0.99439513 
    9000    290.50873   -513.23177    126089.91    -37080.49    3609.2852   -40689.776    99.849423   0.99649991 
    9100    288.75933   -273.33623    126236.37   -37179.776    3587.5506   -40767.326    101.36442   0.99534375 
    9200     292.5414   -395.46971    126489.18   -37041.126    3634.5391   -40675.665     102.6559   0.99335438 
    9300    293.19264   -553.73795    126690.61   -37098.722    3642.6302   -40741.352    103.75583   0.99177503 
    9400    296.71083   -286.73799    126697.32   -37066.829    3686.3402    -40753.17    105.12806    0.9917225 
    9500    287.62286   -489.25567    126921.07   -37063.159    3573.4311    -40636.59    106.59855   0.98997413 
    9600    294.36203   -424.20245    127031.14   -37028.648    3657.1587   -40685.807    108.40692   0.98911637 
    9700    293.10698   -721.88451    126861.54   -36940.237    3641.5659   -40581.803     109.9612   0.99043874 
    9800    293.74838   -526.87418    126760.87   -37029.038    3649.5346   -40678.572     110.6097   0.99122532 
    9900    285.24881   -270.12392    126811.73   -37116.227    3543.9359   -40660.163    111.21775   0.99082775 
   10000     292.1904   -574.48849    126806.02   -37105.152    3630.1783   -40735.331    112.50647   0.99087237 
   10100    296.17002   -720.51108    126679.16   -37075.981    3679.6211   -40755.602    113.69562   0.99186462 
   10200    291.84175   -380.47085    126592.67   -37144.573    3625.8467    -40770.42    115.22101   0.99254234 
   10300    291.59424   -332.19684    126536.21   -37139.286    3622.7716   -40762.058    116.29712    0.9929852 
   10400     299.2105   -386.34803    127021.88   -37047.207    3717.3962   -40764.603    117.96013    0.9891885 
   10500    296.25282   -876.59145    126808.85   -37034.906    3680.6499   -40715.556    119.29864    0.9908502 
   10600     302.8991   -389.79754    126935.18   -36952.812    3763.2234   -40716.035    120.57182   0.98986409 
   10700      296.457   -533.87876    126972.24   -36957.425    3683.1866   -40640.612    121.89446    0.9895752 
   10800    300.20614   -739.14413    126893.55     -36956.5     3729.766   -40686.266    122.43458   0.99018886 
   10900    297.35165   -552.51558    126954.02   -36984.162    3694.3018   -40678.463    123.63533   0.98971719 
   11000    299.39253   -282.54736    127318.88   -36964.364    3719.6576   -40684.022    125.84146   0.98688098 
   11100    294.77915   -574.24894    127205.96   -37012.517     3662.341   -40674.858    127.42927   0.98775705 
   11200    295.19573   -389.53199    126965.28   -37008.668    3667.5165   -40676.184    128.70772   0.98962944 
   11300    301.53602   -510.25963    127080.88   -37002.376    3746.2884   -40748.664    129.82041   0.98872926 
   11400    290.36554   -422.61072    127093.94   -36995.631    3607.5062   -40603.137    131.08977   0.98862762 
   11500    298.44749   -586.33277    126864.61   -37018.714    3707.9165   -40726.631    132.16857   0.99041472 
   11600    292.68261   -410.36829    126583.07   -37021.989    3636.2936   -40658.283    133.53363   0.99261756 
   11700    305.45603   -470.55766    126799.08   -36878.546    3794.9907   -40673.536    135.08368    0.9909266 
   11800    292.94046    -457.0322    127088.28   -36958.132    3639.4971   -40597.629    136.15131   0.98867164 
   11900    299.05571   -426.15831    126979.21   -36967.838     3715.473   -40683.311    137.89773   0.98952085 
   12000    296.02547   -736.98934    126929.37   -36975.331    3677.8253   -40653.156    139.27246   0.98990942 
   12100    300.85714   -442.18392    126872.49   -36945.853     3737.854   -40683.707    141.44144   0.99035324 
   12200    301.26363   -410.39538    127158.32   -36950.799    3742.9042   -40693.703    143.05876   0.98812708 
   12300    297.81212    -457.5221     126959.9   -36988.928    3700.0226   -40688.951    143.79036   0.98967138 
   12400    297.72589   -716.99605    126911.28   -36962.671    3698.9513   -40661.622    145.20158   0.99005054 
   12500    293.18144   -351.13677    126950.61   -37092.843     3642.491   -40735.334    146.42796   0.98974383 
   12600    293.22122   -616.37131    126922.77   -36993.934    3642.9853   -40636.919    147.51312   0.98996092 
   12700    299.52417    -324.4013    126998.26   -36958.517    3721.2932    -40679.81    148.94316   0.98937242 
   12800    294.53574   -559.40222    127101.19   -36922.299    3659.3168   -40581.615    150.19029   0.98857121 
   12900    293.89746   -494.09219    127003.31   -36992.104    3651.3868   -40643.491    151.33494   0.98933312 
   13000    299.62255   -503.21727    127000.51   -36901.011    3722.5155   -40623.526    152.34134   0.98935491 
   13100    298.12476   -565.28652    126817.74   -36931.055    3703.9069   -40634.962    153.60508   0.99078076 
   13200    306.50348   -523.15142    126675.72   -36824.464    3808.0042   -40632.468     154.4535   0.99189156 
   13300    304.74098   -437.13347     127164.6   -36881.573    3786.1069    -40667.68    156.50727   0.98807831 
   13400    298.49615   -374.63078    127263.67   -36982.764     3708.521   -40691.285    158.07604   0.98730912 
   13500    289.37356   -388.59018    127163.61   -37031.021    3595.1818   -40626.203    159.31697   0.98808598 
   13600    293.12485   -624.72981     127048.5   -37065.731    3641.7879   -40707.519    160.57907   0.98898118 
   13700    299.50433   -642.62978    127024.04   -37094.227    3721.0467   -40815.274    161.56197   0.98917162 
   13800    301.56789   -604.56734    127260.92    -36991.71    3746.6843   -40738.395    163.07835   0.98733042 
   13900    296.04415   -575.16484    127324.93   -37056.368    3678.0573   -40734.426    164.46732   0.98683406 
   14000    295.93663   -550.91725    127020.03   -37037.802    3676.7215   -40714.524    165.42561   0.98920289 
   14100    291.86031   -728.34582     127134.4   -37054.679    3626.0773   -40680.756    166.33093   0.98831299 
   14200    289.04502    -684.4939    127105.27   -37082.184    3591.1001   -40673.284    167.34107   0.98853948 
   14300    291.53587   -456.13571    127070.73   -37142.493    3622.0464   -40764.539      168.585    0.9888082 
   14400    292.74911   -646.53846    127041.37   -37100.573    3637.1197   -40737.693     169.7719   0.98903675 
   14500    295.17016   -439.51164    126914.57   -37024.607    3667.1988   -40691.806    170.56285   0.99002482 
   14600    297.22651   -211.40807    127008.72   -37027.877     3692.747   -40720.624    172.19854   0.98929098 
   14700     295.9274   -447.88794    127401.59   -37089.293    3676.6068     -40765.9    173.42664   0.98624027 
   14800    288.30113      -564.21    127259.51   -37134.819    3581.8579   -40716.676    174.58704   0.98734137 
   14900    291.57693   -514.43732    127045.59    -37227.29    3622.5565   -40849.847    175.70606   0.98900383 
   15000    288.02493   -628.96268    127027.75   -37221.405    3578.4264   -40799.832    177.43925   0.98914274 
   15100    292.47827   -667.60311    126696.41   -37243.039    3633.7548   -40876.794    178.93162   0.99172958 
   15200    294.17752   -320.38843    126890.21   -37161.278    3654.8662   -40816.145    180.39519   0.99021489 
   15300     291.1791   -624.99399     127230.3   -37154.373    3617.6139   -40771.987    182.05063   0.98756806 
   15400    289.12797   -372.60404    126683.66   -37125.976    3592.1306   -40718.107     182.6036   0.99182937 
   15500    292.51903   -475.57907    126668.22   -37117.439    3634.2611     -40751.7    184.16494   0.99195031 
   15600    297.42008   -488.46278    126908.78     -37037.4    3695.1519   -40732.551     185.0396   0.99007001 
   15700    289.68975   -589.17972    126839.71   -37150.187    3599.1102   -40749.297    185.64276   0.99060914 
   15800    295.65991   -812.76825    126938.06   -37138.699    3673.2836   -40811.983    186.59758   0.98984166 
   15900     286.3881   -522.82058    126727.88     -37176.1    3558.0904    -40734.19    186.98698   0.99148332 
   16000    295.35518   -462.65816    126719.79   -37080.848    3669.4976   -40750.345    187.87394   0.99154665 
   16100    296.39796   -255.75653    126716.33   -37006.544    3682.4531   -40688.997    189.13882   0.99157373 
   16200    291.58113   -761.75019    126994.25   -37095.745    3622.6087   -40718.354    190.43418   0.98940372 
   16300    295.52645   -388.23288     127124.6   -37118.455    3671.6254    -40790.08    191.61187   0.98838921 
   16400    293.06052   -824.74751    127082.89   -36993.118    3640.9887   -40634.107    192.08448   0.98871359 
   16500    302.36005   -694.85619    126769.72   -36993.492    3756.5262   -40750.018    193.57115   0.99115607 
   16600    295.27081   -476.15538    127065.41   -36961.504    3668.4493   -40629.953    194.94012   0.98884964 
   16700    296.80517   -728.52892    127289.09    -36982.58    3687.5123   -40670.093    196.18014   0.98711195 
   16800    298.93598   -373.66935    127306.66   -36961.008    3713.9855   -40674.993     197.7166   0.98697567 
   16900    298.93498    -481.3537    127192.48   -36930.618     3713.973   -40644.591     198.8585   0.98786173 
   17000    297.19705   -629.33607    126808.47   -36953.191     3692.381   -40645.572    199.99883   0.99085323 
   17100    296.15234   -231.48094    127096.05    -36854.25    3679.4014   -40533.651    201.35019   0.98861122 
   17200      295.057   -380.17172    127209.23   -36850.927    3665.7929    -40516.72    202.28803   0.98773165 
   17300    297.83242   -256.95499    127715.91   -36914.771    3700.2749   -40615.046    203.98775   0.98381303 
   17400      296.497   -671.67458    127671.67   -36945.236    3683.6836    -40628.92     205.5014   0.98415399 
   17500    293.72363   -627.40473    127755.52   -36921.182    3649.2272   -40570.409    206.91797   0.98350806 
   17600    300.22906   -739.38269    127415.63   -36911.007    3730.0507   -40641.058    207.66442   0.98613158 
   17700    298.43713   -368.25268       127486   -36939.193    3707.7878   -40646.981     208.8607    0.9855873 
   17800    296.27966   -644.56655    127443.54   -36952.709    3680.9833   -40633.693    210.58829   0.98591564 
   17900    298.43258   -574.61285    127443.54   -36908.335    3707.7313   -40616.067     212.0723   0.98591565 
   18000    302.46898   -425.72718    127201.47   -36837.409    3757.8796   -40595.289    212.46795   0.98779189 
   18100    297.59452   -518.52385    127349.77   -36962.748    3697.3192   -40660.067    213.47304   0.98664158 
   18200    295.93697   -621.14155    127339.85   -36986.556    3676.7257   -40663.281    214.45279   0.98671849 
   18300    298.27163   -684.41869    127041.05   -36882.062    3705.7316   -40587.793    215.73108   0.98903924 
   18400    297.37018   -546.86068    126930.55   -36971.683     3694.532   -40666.215    216.70236   0.98990024 
   18500    299.86921   -496.47823    126948.74   -36907.216      3725.58   -40632.795    218.18122   0.98975837 
   18600    294.82021   -690.87717    127003.46    -36974.14    3662.8511   -40636.991    220.01674   0.98933197 
   18700    294.16527   -273.03584    127024.49   -36930.321    3654.7141   -40585.035    221.82388   0.98916812 
   18800    299.12753   -301.52717    127068.29   -36913.371    3716.3653   -40629.736    223.14125   0.98882722 
   18900    295.51342   -502.45072    127230.88   -36951.559    3671.4635   -40623.023     224.6758   0.98756357 
   19000    297.68874   -624.92753    127270.63   -36911.493    3698.4897   -40609.983    226.27507   0.98725515 
   19100     292.4353   -571.37665    127064.96   -37012.009    3633.2209    -40645.23     227.9527   0.98885314 
   19200    298.26549   -523.76911    126890.89   -36983.533    3705.6553   -40689.188     229.4063    0.9902096 
   19300    302.44783   -662.34858    127087.14   -36905.999    3757.6168   -40663.616    230.82776   0.98868053 
   19400    297.92064   -640.70563    127167.79   -36933.343    3701.3709   -40634.714    232.60915   0.98805348 
   19500    297.84097   -152.85364    127016.97   -36938.175    3700.3811   -40638.556    234.00358    0.9892267 
   19600    294.53585   -491.29412    127271.93   -36950.415    3659.3182   -40609.733    236.46036   0.98724505 
   19700     299.3402   -459.54074    127137.61   -36919.821    3719.0075   -40638.828    237.30235   0.98828802 
   19800    295.56959   -528.98369    126878.91   -37014.685    3672.1614   -40686.847    238.24256   0.99030311 
   19900    293.29505   -417.92686    127001.45   -37025.836    3643.9024   -40669.738    238.98449   0.98934756 
   20000    297.33707   -644.32553    126955.05   -37095.233    3694.1206   -40789.354    240.15047   0.98970922 
   20100    294.90173   -607.61224    126988.09   -37025.345    3663.8639   -40689.209    242.24078   0.98945166 
   20200    289.87321   -455.12826    127057.01    -37073.88    3601.3895    -40675.27    243.55501   0.98891501 
   20300    291.69567   -600.01795    126898.68   -37098.421    3624.0317   -40722.452    244.93149    0.9901488 
   20400    293.32703   -570.38556    126888.95   -37094.089    3644.2998   -40738.389    246.27309   0.99022479 
   20500    291.11034   -504.56698    126880.26   -37029.078    3616.7597   -40645.837    248.02104   0.99029256 
   20600    292.33419    -720.4892    127039.61   -37059.956    3631.9648   -40691.921    249.94672   0.98905038 
   20700    301.18327   -551.87171    126989.45   -36998.604    3741.9059    -40740.51    250.82681   0.98944111 
   20800    293.06366    -166.6374    127039.43   -37007.083    3641.0277   -40648.111    252.74205   0.98905179 
   20900    292.17272   -551.19088    127235.26   -37034.639    3629.9586   -40664.598    254.36862   0.98752952 
   21000    289.52521   -673.67471    127007.39   -37165.261     3597.066   -40762.327    254.95646    0.9893013 
   21100    293.89395   -464.77127    126979.68   -37204.903    3651.3432   -40856.246    256.02975   0.98951723 
   21200    289.90442   -503.52017    127249.68   -37176.684    3601.7772   -40778.461    257.71479   0.98741764 
   21300    288.91986   -579.58126    126943.43   -37198.182     3589.545   -40787.727    258.89227   0.98979979 
   21400    291.86751   -561.95259    126811.54   -37148.777    3626.1667   -40774.944    260.10382   0.99082924 
   21500    293.76971   -654.45007    126902.17   -37128.457    3649.7996   -40778.256    261.58304   0.99012159 
   21600    292.48031   -577.53039    127134.75   -37059.408    3633.7802   -40693.188    262.97466   0.98831025 
   21700    294.29997   -637.13855    127001.38   -37020.849    3656.3876   -40677.237    263.51781   0.98934817 
   21800    294.20312   -349.80115    126883.79   -37011.507    3655.1843   -40666.692    263.97707   0.99026504 
   21900    297.56056   -365.77912    127162.59   -37026.715    3696.8972   -40723.612    265.26829   0.98809387 
   22000    297.97016   -579.71705    126972.91   -37085.971    3701.9862   -40787.958    264.77225   0.98956999 
   22100    293.73039   -468.00622    126792.34    -37015.39    3649.3111   -40664.701    266.02719   0.99097928 
   22200    288.84228   -388.32244    126975.66     -37026.8    3588.5812   -40615.381    267.02687   0.98954853 
   22300    293.31565   -318.91724    127143.23   -36974.473    3644.1584   -40618.631    267.48587   0.98824437 
   22400    298.94626    -389.9795    127579.69   -36924.898    3714.1133   -40639.011    269.36947   0.98486353 
   22500     300.6292   -566.21201    127640.19   -36941.495    3735.0221   -40676.517    270.78999   0.98439667 
   22600    296.51052   -260.63078    127706.57   -36906.213    3683.8515   -40590.065    272.19199   0.98388498 
   22700    300.04264   -573.98131    127597.62   -36932.847    3727.7347   -40660.581     273.1467   0.98472512 
   22800    302.20849   -483.92549    127980.22   -36912.417    3754.6433    -40667.06    274.72974   0.98178123 
   22900    294.71618   -268.62132    127471.71    -36972.47    3661.5587   -40634.029    275.45385   0.98569776 
   23000    286.61701    -490.1455    127559.55   -36930.571    3560.9344   -40491.506    276.16436   0.98501901 
   23100    293.41679   -486.65131    127446.17   -37048.813     3645.415   -40694.228    276.48518   0.98589527 
   23200    288.80515   -400.79253    127222.85   -36978.095    3588.1199   -40566.215    276.50516   0.98762588 
   23300    290.08718   -739.05044    126928.91   -37044.803    3604.0479   -40648.851    277.26187   0.98991301 
   23400    300.52663    -303.1857    126982.96   -36963.515    3733.7478   -40697.263    278.24186   0.98949167 
   23500    293.58291   -514.60891    126879.38   -37046.857    3647.4788   -40694.336    278.90843   0.99029946 
   23600    296.98571   -554.60939    126874.97   -37026.164    3689.7553    -40715.92    280.08487   0.99033387 
   23700    290.88504   -407.14662     126913.5   -37073.477    3613.9605   -40687.437    281.52169   0.99003317 
   23800     288.0501   -484.76754    126764.02   -37126.958    3578.7392   -40705.697    281.94424   0.99120069 
   23900    289.89375   -320.37117    126745.37   -37136.003    3601.6447   -40737.647    282.85205   0.99134651 
   24000    293.31669   -565.17334    126552.16   -37021.395    3644.1714   -40665.566    283.00587   0.99285999 
   24100    292.07675   -370.63609    126923.26   -37004.932    3628.7664   -40633.699    285.43731   0.98995706 
   24200    291.31577   -501.70506    126622.08   -37105.597    3619.3119   -40724.909     285.9924   0.99231174 
   24300    289.12464    -594.4782    126617.79   -37080.163    3592.0892   -40672.252    287.14371   0.99234536 
   24400    287.39148   -653.55199    126353.14   -37147.604    3570.5564   -40718.161    288.09837   0.99442388 
   24500    290.83374   -447.41427    126287.78   -37077.222    3613.3231   -40690.546    288.99391   0.99493853 
   24600    291.47424   -392.08546    126473.93   -37042.508    3621.2807   -40663.788    290.57371   0.99347412 
   24700     297.2736   -305.19889    126940.17   -37041.212     3693.332   -40734.544    292.94418   0.98982518 
   24800    292.14488   -612.52315    127014.36   -37047.321    3629.6128   -40676.934    293.96283   0.98924707 
   24900    295.86331   -447.82141    127068.27   -36988.615    3675.8106   -40664.426    295.66966   0.98882736 
   25000    299.05107   -471.20263    127061.23   -36948.383    3715.4154   -40663.798    297.06595   0.98888213 
   25100    298.38674   -361.18656    127171.15   -36943.339    3707.1617   -40650.501    299.04888   0.98802736 
   25200    294.57246   -446.86598    127306.76   -36997.743     3659.773   -40657.516    299.96149   0.98697495 
   25300    295.73717   -618.33331    127006.55   -37009.493    3674.2434   -40683.737    301.00348   0.98930791 
   25400    295.13636    -314.8213    127108.74   -36988.649    3666.7789   -40655.428    302.93815   0.98851248 
   25500    295.60886   -116.57004    127455.55   -36914.368    3672.6493   -40587.018    304.54011   0.98582278 
   25600    292.64976   -687.32964    127552.69   -37014.678    3635.8854   -40650.563    305.73389   0.98507198 
   25700    291.92799   -860.25828    126923.74   -37068.119    3626.9181   -40695.037     305.2793   0.98995332 
   25800    294.10338   -396.81518    126877.01   -37050.229    3653.9452   -40704.174    306.46316   0.99031795 
   25900     295.4157   -510.89865    126805.11   -36994.458    3670.2495   -40664.708    307.12442   0.99087946 
   26000    296.15608   -615.71469    126713.23   -36911.699     3679.448   -40591.147     309.3453   0.99159793 
   26100     292.5866   -673.85477    126739.55   -37011.094    3635.1007   -40646.194    310.34978   0.99139202 
   26200    292.76847   -147.20645    126496.03   -37020.036    3637.3603   -40657.396    310.58927   0.99330058 
   26300    291.57791   -471.81559    126412.67   -36989.023    3622.5687   -40611.592    311.23437    0.9939556 
   26400    297.18565   -466.35061    126290.68   -36979.983    3692.2393   -40672.222    312.02894   0.99491567 
   26500    294.44015   -445.34043    126487.18   -37044.597    3658.1292   -40702.726    313.29984   0.99337005 
   26600    290.08455   -648.39967    126757.86   -37070.921    3604.0151   -40674.937    314.98441    0.9912488 
   26700    291.50915   -373.86721     126387.9   -37099.177    3621.7144   -40720.891    315.37508   0.99415038 
   26800    299.86657   -636.95534    126701.68   -37004.396    3725.5471   -40729.943    316.80608   0.99168838 
   26900    297.99085   -489.69587    126927.63   -36995.924    3702.2432   -40698.168    318.56431   0.98992299 
   27000     289.8078   -408.98324    126948.01   -37046.389    3600.5769   -40646.966    319.35895    0.9897641 
   27100    293.48912   -857.44352    126995.31   -37068.865    3646.3136   -40715.179     321.3661   0.98939546 
   27200    289.55211   -728.62881    126960.39    -37099.83    3597.4001    -40697.23    323.31525   0.98966759 
   27300    289.11178   -445.01924    126817.47   -37135.878    3591.9294   -40727.807    324.31902   0.99078286 
   27400    294.14297   -449.63091    127079.18   -37045.546     3654.437   -40699.983    326.10659   0.98874244 
   27500    296.34836     -856.696    126920.41   -36951.083    3681.8369    -40632.92    327.40288   0.98997929 
   27600    293.56449   -444.28804    126968.29   -36972.055      3647.25   -40619.305    327.66993   0.98960596 
   27700    293.92092   -434.17968    127112.05   -36959.027    3651.6783   -40610.705    329.45177   0.98848674 
   27800    300.34048   -208.24518     127224.7   -36889.081     3731.435   -40620.516    330.25155   0.98761154 
   27900    296.89737    -472.6925    127343.99   -36936.679    3688.6578   -40625.337    331.88214   0.98668641 
   28000    296.05863   -363.94713    127325.28   -36975.705    3678.2373   -40653.943    332.56845   0.98683137 
   28100     297.2294   -723.40946    127032.93   -36959.101    3692.7829   -40651.884    333.52916   0.98910245 
   28200    290.96661   -816.69028     126914.8   -37019.061    3614.9739   -40634.035    334.31735   0.99002305 
   28300    296.05129   -603.78255     126550.2   -36999.131     3678.146   -40677.277     335.1287   0.99287541 
   28400    296.16268   -278.69422    126647.48   -37042.859      3679.53   -40722.389    336.20162   0.99211279 
   28500    290.17358   -736.32668    126640.16   -37097.907    3605.1213   -40703.028    336.46546   0.99217009 
   28600    289.55232   -597.32367    126535.78   -37054.523    3597.4028   -40651.926    337.58961   0.99298855 
   28700    296.73116   -557.00122    126636.62   -37054.932    3686.5928   -40741.525    338.45022   0.99219783 
   28800    296.59477   -299.31062    126463.07   -37009.699    3684.8983   -40694.598    339.05516   0.99355947 
   28900    297.70135   -473.68703    126710.79   -36956.582    3698.6464   -40655.229    340.80474   0.99161702 
   29000    289.46782   -679.73516    126835.14   -37050.266    3596.3529   -40646.619    342.05293   0.99064487 
   29100    294.35997   -767.71002    126653.26   -36969.444     3657.133   -40626.577    342.61087   0.99206748 
   29200    295.81248   -76.176207    126825.71   -36920.666     3675.179   -40595.846    344.22638   0.99071849 
   29300    295.92234   -469.72845    126816.02    -37009.38     3676.544   -40685.924    345.00034    0.9907942 
   29400    295.11216   -377.80914    126875.03   -37075.699    3666.4783   -40742.177    346.23379    0.9903334 
   29500    289.89545    -405.2694     126866.3   -37112.728    3601.6658   -40714.394    347.59504   0.99040158 
   29600    289.47618   -480.19671    126785.92   -37010.616    3596.4568   -40607.073    348.91715   0.99102948 
   29700     285.8109   -778.25303     126979.4   -37040.102    3550.9193   -40591.021    350.42061   0.98951943 
   29800    297.28611   -465.20149    126821.05   -37015.012    3693.4875     -40708.5    352.57686   0.99075493 
   29900    292.20596   -434.13535    126842.67   -37063.078    3630.3716    -40693.45    353.95726   0.99058608 
   30000    292.76416   -241.13181    127067.69     -37030.2    3637.3067   -40667.506     355.8516   0.98883183 
   30100    295.39133   -847.59563    127003.55   -37020.301    3669.9467   -40690.247    357.22432   0.98933125 
   30200    292.42543   -514.66911    126656.53   -37039.002    3633.0982     -40672.1     357.9828   0.99204184 
   30300     296.8334    -508.1879    126531.24   -36968.563     3687.863   -40656.426    359.13436   0.99302416 
   30400    295.17241   -495.39165    126799.04   -36927.456    3667.2268   -40594.682    360.77352   0.99092688 
   30500    293.68185   -373.49319    126994.03   -36935.049    3648.7081   -40583.757    361.77643   0.98940537 
   30600    294.46135    -541.6688    127058.09   -36938.623    3658.3926   -40597.016    362.78688   0.98890655 
   30700     297.1832   -527.48285    127219.01   -36957.481    3692.2089    -40649.69    364.62959   0.98765573 
   30800    301.70883   -370.94638    127045.66   -36889.651    3748.4355   -40638.086    365.76402    0.9890033 
   30900    296.78061   -726.95245       126969   -37054.541    3687.2072   -40741.748    366.90453   0.98960042 
   31000    290.95834   -427.46681    126991.72   -37107.376    3614.8711   -40722.247     368.2997   0.98942343 
   31100    292.73561   -598.21585     126764.6   -37119.437     3636.952   -40756.389    368.18011   0.99119613 
   31200    287.53393    -587.6285    126587.72   -37134.666    3572.3262   -40706.992    368.84867   0.99258111 
   31300    297.17175   -319.52663    126687.24   -37055.052    3692.0667   -40747.118    369.74922   0.99180139 
   31400    291.81721   -784.59615    127003.36   -36966.722    3625.5418   -40592.263    371.31268   0.98933271 
   31500    298.10647   -636.58106    126968.94   -37039.563    3703.6796   -40743.242    372.71898   0.98960088 
   31600     295.0887   -587.66317    126920.15   -36982.816    3666.1869   -40649.003    373.96729   0.98998132 
   31700    296.93012   -548.06551    126857.12   -37024.267    3689.0647   -40713.331    375.09336   0.99047324 
   31800    295.38337   -248.43996     127067.6   -36933.865    3669.8478   -40603.713    377.56963   0.98883258 
   31900    301.87318   -826.14854    126909.14   -36901.104    3750.4773   -40651.581    378.29062   0.99006723 
   32000    297.32525   -476.54869     126928.2   -36912.179    3693.9737   -40606.153    379.64844   0.98991857 
   32100    290.80202   -565.16997    126757.12   -36907.187     3612.929   -40520.116    380.06668   0.99125465 
   32200    290.32604   -495.66393     126661.9   -36904.844    3607.0155    -40511.86    381.50497   0.99199982 
   32300     296.1275   -518.22782    126963.66   -36851.771    3679.0928   -40530.863    383.13514   0.98964207 
   32400    293.25991   -657.11096    126945.73   -36949.151    3643.4659   -40592.617    384.66238   0.98978186 
   32500    299.56652    -660.6654    126988.47   -36945.744    3721.8194   -40667.563    385.95874   0.98944876 
   32600    303.79026   -117.64092    127210.48   -36924.005    3774.2951     -40698.3    387.77039   0.98772189 
   32700    298.69779   -530.67648     127449.7   -37023.561    3711.0262   -40734.588     389.8604   0.98586795 
   32800    294.19774   -348.81758    127283.54     -37080.8    3655.1176   -40735.918    390.79053   0.98715495 
   32900    294.69036   -618.07653    127291.67   -37076.141    3661.2379   -40737.379    392.29007   0.98709191 
   33000    293.80451   -438.06338    126922.37   -37142.408     3650.232    -40792.64    393.03756   0.98996404 
   33100    292.76694   -541.79697    126844.45    -37047.25    3637.3412   -40684.591    393.39518   0.99057216 
   33200     290.0931   -638.52387     126742.7   -37103.355    3604.1214   -40707.477    394.40917   0.99136742 
   33300    294.63081   -503.50627     127014.8   -36992.712     3660.498    -40653.21    397.09399   0.98924365 
   33400    290.89722   -541.21616    126962.48   -37083.943    3614.1118   -40698.055    398.43909   0.98965124 
   33500    294.92796   -317.87036    126696.31   -37040.406    3664.1897   -40704.596    399.13909   0.99173038 
   33600    295.76047   -335.18176    127069.47   -37008.677    3674.5329   -40683.209    400.90218   0.98881801 
   33700    294.67146   -430.12578    127347.03   -36983.631     3661.003   -40644.634    402.71587   0.98666279 
   33800    296.88955   -515.70532    127363.12   -36988.349    3688.5606   -40676.909    403.08237   0.98653821 
   33900    293.38463   -749.17177    127446.39   -36995.759    3645.0154   -40640.774    404.73893    0.9858936 
   34000    293.57611   -488.56321    127594.63   -36934.039    3647.3944   -40581.433    406.22382   0.98474819 
   34100     292.2035   -497.97997    127530.15   -36985.457     3630.341   -40615.798    408.31374    0.9852461 
   34200    297.26804   -596.96102    127539.25   -36993.084    3693.2629   -40686.347    409.26885   0.98517579 
   34300    290.53106   -868.52463    127432.63   -37054.893    3609.5626   -40664.456    410.60602   0.98600004 
   34400    293.68401   -398.42192    127544.41   -36955.941     3648.735   -40604.676    412.55528   0.98513596 
   34500    296.64192   -726.94286    127887.66   -36982.005     3685.484   -40667.489     414.3615   0.98249181 
   34600    299.94985   -736.56167    127796.71   -36983.829    3726.5818   -40710.411     415.0527   0.98319106 
   34700    288.77404   -487.01757    127622.15   -37085.221    3587.7334   -40672.954    416.00849   0.98453583 
   34800    295.28258   -644.07233    127263.55    -37090.84    3668.5956   -40759.436    415.90127   0.98731003 
   34900      296.346   -522.35786    127279.29   -37108.908    3681.8075   -40790.715    417.60652   0.98718791 
   35000    287.14409   -502.10103    126971.09   -37218.829    3567.4828   -40786.312    418.12139   0.98958418 
   35100    292.58157   -559.00984    127158.28    -37123.16    3635.0382   -40758.199    419.57089    0.9881274 
   35200     293.3414   -478.02672    127269.76   -37135.572    3644.4783    -40780.05    420.74032   0.98726185 
   35300    292.74966   -518.64895    127382.46   -37098.979    3637.1265   -40736.105    422.01063   0.98638837 
   35400    291.58391   -902.52231    127275.98   -37132.923    3622.6432   -40755.567    422.36431   0.98721362 
   35500    296.89558   -429.93227    127178.67    -37006.44    3688.6355   -40695.076      422.796   0.98796898 
   35600    290.47574   -531.48985       127330   -37040.379    3608.8754   -40649.254    424.53107   0.98679479 
   35700    295.27959    -764.8274    127212.18   -37001.192    3668.5584   -40669.751    424.60612   0.98770875 
   35800     293.1806   -432.08831    126979.04   -37039.838    3642.4805   -40682.319    425.56986   0.98952219 
   35900    292.41299   -651.96451    126754.33   -36959.581    3632.9438   -40592.525    426.15862   0.99127647 
   36000    297.30385   -360.93366    126865.18    -36896.25    3693.7079   -40589.958    427.08851   0.99041029 
   36100    293.52387   -438.33331    127218.59   -36928.537    3646.7454   -40575.283    429.47658   0.98765893 
   36200    296.11046   -574.03706    127085.79   -36968.226    3678.8812   -40647.107    430.74826   0.98869105 
   36300    293.98726   -691.51607    127003.99   -37060.175    3652.5025   -40712.677    431.44266   0.98932781 
   36400    296.92716     -454.073    126829.59   -37000.858    3689.0278   -40689.886    432.58693   0.99068819 
   36500    289.85497   -386.09668    126987.69   -36984.371    3601.1628   -40585.534    435.05405   0.98945481 
   36600    286.76967   -563.32531    126830.61   -37168.195     3562.831   -40731.026    436.90034   0.99068024 
   36700    295.90981   -308.09485    126905.75   -37078.811    3676.3883     -40755.2    438.64546   0.99009363 
   36800    296.78293   -315.77827    127238.49   -37075.022    3687.2359   -40762.258    441.06912   0.98750448 
   36900    295.11823   -517.87879     127340.4   -37104.057    3666.5537   -40770.611    442.35832   0.98671421 
   37000    299.41659    -703.6027    126989.53   -37044.753    3719.9566    -40764.71    442.42812    0.9894405 
   37100    302.33377   -453.36324    127261.91   -37044.693    3756.1997   -40800.892    443.87657   0.98732278 
   37200    297.84467   -795.03959    127119.68   -37124.947     3700.427   -40825.374     444.6779   0.98842745 
   37300    290.60414   -466.75426     127230.7   -37126.842    3610.4706   -40737.312    446.13839   0.98756498 
   37400    292.64718   -617.36861    127170.03   -37161.797    3635.8533   -40797.651    447.02042   0.98803612 
   37500     290.3875   -566.83282    127041.22    -37166.23    3607.7791   -40774.009    448.08929   0.98903787 
   37600    292.43145   -536.12364    126973.82   -37105.412    3633.1731   -40738.585    449.14999   0.98956286 
   37700    288.89942   -433.45233    127061.79   -37088.584    3589.2911   -40677.875     451.0489   0.98887779 
   37800    287.92146    -459.4315    127021.69   -37204.496    3577.1409   -40781.637     451.1025   0.98918998 
   37900    292.57982   -436.72936    126654.47   -37138.605    3635.0164   -40773.621    451.16919   0.99205803 
   38000     284.5138   -508.62094    127104.77   -37089.253     3534.804   -40624.057    454.22944   0.98854338 
   38100    300.70783   -754.41015    126810.75   -37029.928    3735.9989   -40765.927    454.88836   0.99083537 
   38200    296.77648   -464.02531    127076.05   -37038.165    3687.1558    -40725.32    456.53253   0.98876683 
   38300    297.62396   -587.97865    127060.28   -36995.815    3697.6849     -40693.5    458.12915    0.9888895 
   38400     292.9379   -505.95774    127174.51   -37059.553    3639.4653   -40699.018     460.0516   0.98800129 
   38500    291.16458   -286.62035    127176.13   -37067.556    3617.4335    -40684.99    461.01989   0.98798867 
   38600    294.18411   -743.24434    127147.57    -37023.85    3654.9482   -40678.798    461.87271   0.98821064 
   38700    293.76613   -718.89066    126728.33   -37037.181    3649.7552   -40686.936    462.76785   0.99147982 
   38800    288.74354   -310.42982     126788.7   -37072.772    3587.3545   -40660.126    463.92464   0.99100771 
   38900    294.08171   -512.94479    126939.64     -36994.3     3653.676   -40647.976    465.93058   0.98982933 
   39000    291.54624   -532.71984    127439.93    -37026.48    3622.1753   -40648.655    468.29199   0.98594356 
   39100    295.52293   -579.40021    127300.46   -37000.428    3671.5817    -40672.01    469.31149   0.98702374 
   39200    290.71735    -503.2616    127166.53   -37036.928    3611.8771   -40648.805    470.31239   0.98806331 
   39300    294.05004   -507.78539    127399.17   -37031.499    3653.2824   -40684.781    471.63453   0.98625898 
   39400    294.87812    -403.2199    127398.67   -36999.865    3663.5705   -40663.435    472.57855   0.98626285 
   39500    296.46415   -341.79414     127448.3   -36954.642    3683.2755   -40637.918    473.77196   0.98587884 
   39600    294.96918   -488.25833     127408.5   -36995.815    3664.7019   -40660.516    475.77186   0.98618681 
   39700    294.73113   -589.44029    127465.42   -36930.994    3661.7444   -40592.739    477.07584   0.98574643 
   39800    296.29711   -374.90242     127369.4   -37050.377    3681.2001   -40731.577    477.61577   0.98648952 
   39900    284.76304   -476.76219    127413.75   -37110.165    3537.9007   -40648.066    478.87906   0.98614618 
   40000    292.75811   -599.64617    127377.38   -37142.866    3637.2316   -40780.098    480.10932   0.98642771 
   40100    295.83753   -452.35776    127413.03   -37041.517    3675.4903   -40717.007    482.16703   0.98615172 
   40200    286.68776   -627.07076     127505.5   -37031.779    3561.8134   -40593.593    482.37623   0.98543653 
   40300      292.781   -421.85723     127460.5   -37014.588    3637.5159   -40652.104    483.47169   0.98578442 
   40400    297.17006   -526.55118    127408.02   -36881.946    3692.0457   -40573.991    485.02436   0.98619049 
   40500    298.35829   -443.88245    127284.31   -36885.702    3706.8082   -40592.511    485.87719   0.98714902 
   40600     290.4863   -671.48849    127174.09   -36957.525    3609.0066   -40566.531    486.54202   0.98800454 
   40700    295.01405   -460.17484    126776.52   -37014.406    3665.2594   -40679.665    486.77783   0.99110289 
   40800    294.74507   -302.39638    126773.74   -37045.696    3661.9175   -40707.614    488.44267   0.99112466 
   40900    292.57853   -631.34408    127009.31   -37052.505    3635.0004   -40687.505    489.48351   0.98928638 
   41000     291.9283   -233.26569    127324.55   -36948.436    3626.9219   -40575.357    491.48058   0.98683706 
   41100    294.54587   -568.29796     127093.8   -36938.827    3659.4427   -40598.269    491.48679   0.98862873 
   41200    293.63531   -310.22994     127162.6   -36951.687    3648.1298   -40599.817    492.98957    0.9880938 
   41300    284.71664   -517.18914    127288.38   -37130.362    3537.3241   -40667.686    494.29601   0.98711746 
   41400    287.24636   -550.19769       127261    -37084.78    3568.7535   -40653.534    495.24999   0.98732979 
   41500    292.83212   -320.25017    127111.86   -37095.275     3638.151   -40733.426    495.87194   0.98848828 
   41600    295.82382   -552.16777    127386.86   -37035.517    3675.3199   -40710.837     498.1896   0.98635433 
   41700     293.8369   -614.07994    127499.46   -37014.474    3650.6345   -40665.109    499.60716   0.98548324 
   41800    297.09245   -346.04597    127464.87   -37028.449    3691.0815    -40719.53    500.39637   0.98575066 
   41900    294.58133   -400.29644    127483.93   -37029.896    3659.8833    -40689.78     500.4934   0.98560325 
   42000    293.59284   -631.48802    127573.43   -37007.969    3647.6023   -40655.572    500.87362   0.98491186 
   42100    293.52595   -262.96951    127597.46   -36985.794    3646.7712   -40632.565    501.99608   0.98472635 
   42200    300.66508   -727.62856    127538.27   -36925.401    3735.4679   -40660.869    502.33512   0.98518331 
   42300       298.31   -765.41283    127375.78   -36925.289    3706.2082   -40631.497    503.25886    0.9864401 
   42400    292.40907   -569.01006    127266.85   -36960.335     3632.895    -40593.23    503.96079   0.98728443 
   42500    298.21885   -785.88436    126838.23   -36979.662    3705.0759   -40684.737     504.0915   0.99062077 
   42600     293.7154   -432.03019    126756.84   -36975.993    3649.1249   -40625.118    505.14135   0.99125684 
   42700    298.16491   -327.33117    126633.78    -36978.98    3704.4057   -40683.385    506.37053    0.9922201 
   42800     292.7518   -519.18914    126941.62   -36940.912    3637.1531   -40578.065    508.65625   0.98981392 
   42900    294.53776   -551.07497     126801.9   -37013.789    3659.3419   -40673.131    509.58165   0.99090457 
   43000    294.56963   -457.55568    126638.82   -37049.872    3659.7379    -40709.61    510.12388   0.99218063 
   43100    290.35723   -444.16841    126742.98   -37002.423     3607.403   -40609.826    512.42937   0.99136518 
   43200    294.96401   -680.33757    126735.02   -36951.311    3664.6377   -40615.949    513.72032   0.99142746 
   43300    298.21295   -193.94737    126775.21   -36977.754    3705.0025   -40682.757    515.46689    0.9911132 
   43400    295.89698    -278.3118    127225.21   -36931.517    3676.2289   -40607.746    517.66089   0.98760759 
   43500    297.23615    -612.9721     127188.6   -36921.791    3692.8667   -40614.657     519.0361   0.98789185 
   43600    300.16135   -677.63712    127173.33   -36808.803    3729.2095   -40538.012    520.11301   0.98801048 
   43700     298.6448   -522.03714    127195.08   -36862.227    3710.3678   -40572.595    521.93989   0.98784153 
   43800    294.20626   -370.29841    127103.88   -36870.875    3655.2233   -40526.098    522.12982    0.9885503 
   43900    295.82641   -284.98624    127490.38   -36926.727    3675.3521   -40602.079    524.19459   0.98555341 
   44000    291.86748   -396.61129    127502.96   -36942.742    3626.1664   -40568.908    525.65472   0.98545616 
   44100    293.83714   -328.64274    127354.05   -36977.008    3650.6374   -40627.646    526.17871   0.98660844 
   44200    295.82846   -688.28568    127070.61   -37039.991    3675.3777   -40715.368    525.84583    0.9888091 
   44300    291.33531    -620.4077    126887.58   -37068.354    3619.5546   -40687.909    526.76565   0.99023544 
   44400    292.16569   -404.03233    126908.84   -37032.824    3629.8713   -40662.695    528.68328   0.99006958 
   44500    294.36041   -427.83608    126809.99   -37077.133    3657.1385   -40734.272    529.89906   0.99084135 
   44600    284.12067   -591.55375    126665.64   -37167.986    3529.9199   -40697.906    530.60338   0.99197047 
   44700    294.86889   -356.09705    126538.76    -37139.12    3663.4559   -40802.576    531.01667   0.99296518 
   44800    291.53483   -419.65084    126883.27   -37061.646    3622.0335    -40683.68    533.08248   0.99026908 
   44900    298.69242   -280.18974    127025.82   -36978.043    3710.9595   -40689.002    533.63155    0.9891578 
   45000    298.50941   -739.67356    126826.57   -36975.484    3708.6858    -40684.17    533.48065   0.99071183 
   45100    298.75355   -278.00499    126924.79   -36916.658    3711.7189   -40628.377    535.05719   0.98994515 
   45200    292.66894   -699.01439    127262.12   -37002.909    3636.1237   -40639.033    538.19375   0.98732114 
   45300    297.50049   -781.70098    127170.12   -37009.962     3696.151   -40706.113     538.7586   0.98803539 
   45400    293.05807   -323.86131    127257.49   -37002.441    3640.9582   -40643.399     539.5094   0.98735707 
   45500    297.68644   -378.93873    127336.26   -37013.055    3698.4611   -40711.516    540.99059   0.98674624 
   45600    296.34578   -382.34043    127348.91   -36992.963    3681.8048   -40674.768    542.43782   0.98664824 
   45700    291.16878   -287.85341    127298.05   -36968.748    3617.4857   -40586.234    543.10788   0.98704247 
   45800     300.2291   -584.01705    127195.11   -36938.371    3730.0513   -40668.422    544.82577   0.98784131 
   45900    298.60744   -759.58203    127394.51   -36845.741    3709.9037   -40555.645    546.47209   0.98629509 
   46000    296.76749   -429.19277    127451.19    -36812.16    3687.0441   -40499.204    546.97497   0.98585648 
   46100    300.74292   -947.29414    126983.39   -36775.293     3736.435   -40511.728    547.20535   0.98948829 
   46200    301.79388   -489.53452    127175.92   -36728.002     3749.492   -40477.494    548.85811   0.98799036 
   46300    301.56267   -548.34751    126879.47   -36750.336    3746.6195   -40496.955    549.21527   0.99029873 
   46400    296.37084   -371.93699    126947.13   -36839.274    3682.1161    -40521.39    550.48298   0.98977093 
   46500    294.53727    -513.1227    127118.79   -36827.204    3659.3358    -40486.54    551.50117    0.9884344 
   46600    302.69348   -743.65101    127201.52   -36813.337    3760.6688   -40574.006    553.29049    0.9877915 
   46700    293.84645   -303.15436    126866.82   -36920.451    3650.7531   -40571.204    553.42718   0.99039749 
   46800    292.60787   -340.30223    127055.57   -36967.161     3635.365   -40602.526    556.79618   0.98892617 
   46900    295.99656   -473.98531    126891.36   -36931.783     3677.466   -40609.249    557.70273   0.99020596 
   47000     304.3898   -153.96769    126907.16   -36874.881    3781.7439   -40656.625      559.533   0.99008269 
   47100    302.12654   -452.53492    127063.21   -36863.781     3753.625   -40617.406    560.62938   0.98886675 
   47200    298.10232   -753.42356    126923.74   -36952.222    3703.6281    -40655.85    560.99039   0.98995335 
   47300    291.46408   -458.78503    126827.98   -36966.163    3621.1545   -40587.318    561.78914   0.99070079 
   47400    295.52952   -501.73574    126667.71   -36930.144    3671.6636   -40601.807    562.22184   0.99195433 
   47500    299.54326   -606.86783    126750.82   -36854.154    3721.5303   -40575.685    563.39869   0.99130391 
   47600     304.4104   -646.90872    127005.27   -36811.456    3781.9997   -40593.456    565.36844   0.98931784 
   47700    301.27735   -642.80462    126936.65    -36875.86    3743.0747   -40618.935    565.78434   0.98985264 
   47800    300.74336   -473.31955    126885.96   -36893.925    3736.4404   -40630.365    566.81917   0.99024809 
   47900    296.71181   -908.54793     126662.5   -37006.825    3686.3524   -40693.178    567.30399   0.99199507 
   48000    293.01083   -407.61243    126952.83   -37020.276    3640.3713   -40660.647    569.56141   0.98972647 
   48100    296.17042   -486.87191    126939.17    -36955.57    3679.6261   -40635.196    570.41626   0.98983296 
   48200    297.47872   -553.60763    127289.73   -36997.393    3695.8805   -40693.274    572.62233   0.98710698 
   48300    293.85892    -557.0476    127420.44   -36985.272     3650.908    -40636.18     574.1919   0.98609441 
   48400    302.43298   -438.90791    126920.61   -36893.352    3757.4323   -40650.784    573.69038   0.98997773 
   48500    296.83202   -163.76096    126875.05   -36977.514    3687.8458    -40665.36    574.75204   0.99033322 
   48600    291.92954    -242.0224    127071.98   -36960.425    3626.9373   -40587.363    576.63728   0.98879847 
   48700    294.84281   -737.85227     127047.5   -36918.417    3663.1319   -40581.548    577.27269   0.98898898 
   48800     296.4844   -272.27375     126985.9   -36973.561    3683.5271   -40657.088    578.99088   0.98946872 
   48900    296.77477   -466.73106    127560.19   -36959.275    3687.1346   -40646.409    582.34058   0.98501404 
   49000    300.09087   -401.74456     127331.1   -37024.109    3728.3339   -40752.443    582.98964   0.98678628 
   49100    294.74002   -305.44724     127025.4   -37026.134    3661.8548   -40687.989    582.62717    0.9891611 
   49200    292.65018   -695.10304    127117.73   -37041.046    3635.8906   -40676.937    584.65806   0.98844261 
   49300    295.99039    -603.1233    127328.39   -36978.579    3677.3894   -40655.968    586.86092   0.98680727 
   49400     296.6763    -448.3325    127124.77   -36931.376    3685.9112   -40617.287    586.94759   0.98838787 
   49500    293.96146   -447.82073    127173.83   -36963.903     3652.182   -40616.085     588.6597   0.98800658 
   49600    298.29729   -543.23838    127188.58   -36948.017    3706.0503   -40654.067     590.1035   0.98789196 
   49700    298.80439   -382.84556    126960.27   -36982.637    3712.3507   -40694.987    590.92251   0.98966848 
   49800    289.80351   -712.04008    126742.47   -37034.242    3600.5235   -40634.765    591.71176   0.99136916 
   49900    306.38739   -650.69581     126981.4   -36883.029    3806.5619   -40689.591    594.50387   0.98950382 
   50000    294.36294   -433.63706    127090.69   -36927.849      3657.17   -40585.019    595.65854   0.98865293 
   50100    299.90235   -648.18413    127382.99   -36978.113    3725.9916   -40704.105    596.90883   0.98638427 
   50200    296.65368   -472.48336    127166.46    -37035.21    3685.6301    -40720.84    597.74339   0.98806386 
   50300    290.40661   -295.72567    127051.56   -37009.211    3608.0164   -40617.228    597.86073   0.98895737 
   50400    290.14252   -455.28104    127370.95   -37019.108    3604.7354   -40623.843    599.93714   0.98647756 
   50500    294.59667   -874.20096    127345.18    -37056.32    3660.0739   -40716.393    600.50639   0.98667712 
   50600    295.00394   -546.56515    127743.83   -37068.761    3665.1338   -40733.895    603.03923   0.98359807 
   50700    295.12464   -658.77002    127624.56    -37091.22    3666.6333   -40757.854    602.80765   0.98451722 
   50800    295.64759   -712.64777    127374.07   -37111.101    3673.1304   -40784.232    603.65065    0.9864534 
   50900    295.77968   -850.70791    127392.99   -37027.066    3674.7715   -40701.838    604.65678   0.98630686 
   51000    296.21647   -298.81203    127593.12   -37041.771    3680.1982   -40721.969    605.86562   0.98475981 
   51100    285.86825    -1015.251    127193.85   -37092.808    3551.6318    -40644.44    606.96228   0.98785105 
   51200    295.23004   -696.07971    126740.96   -37054.775    3667.9428   -40722.718    606.74997   0.99138099 
   51300    290.03028   -318.85837     126825.6    -37128.98    3603.3409   -40732.321    608.43858   0.99071935 
   51400    291.93467   -436.63718    126701.41   -37117.193    3627.0011   -40744.194    608.75487   0.99169043 
   51500    292.09936   -465.74927    126847.56   -37153.729    3629.0472   -40782.777    610.15221   0.99054788 
   51600    296.72546   -402.15359    126988.19   -37064.638    3686.5219    -40751.16    612.06292   0.98945089 
   51700    287.57629   -594.02862    126898.96   -37042.177    3572.8525    -40615.03    612.34311   0.99014666 
   51800    291.04219   -389.62434    126905.73   -37099.291    3615.9129   -40715.203    614.20181   0.99009379 
   51900    286.88466   -623.48956    126925.57   -37146.226    3564.2597   -40710.485    615.40448   0.98993903 
   52000    292.88841   -498.65504    126456.03   -37178.536    3638.8504   -40817.386    614.26872   0.99361481 
   52100    295.40509    -491.0262    126606.94   -37077.996    3670.1177   -40748.114    615.82006    0.9924304 
   52200    286.19979   -650.27484    126674.33   -37119.617    3555.7509   -40675.367     616.6731   0.99190247 
   52300    289.87063   -693.11599    126983.17   -37109.081    3601.3574   -40710.439    618.72008   0.98948999 
   52400    291.55261   -432.99146    127087.63    -37026.11    3622.2544   -40648.365    620.22302   0.98867674 
   52500    296.08347   -490.77949    127100.41   -37001.311    3678.5458   -40679.857    621.40683   0.98857729 
   52600    301.39845   -503.26831    126982.14   -37055.105    3744.5793   -40799.684     622.9298   0.98949806 
   52700    290.47447   -502.33021    127174.79   -37095.696    3608.8596   -40704.555    625.33319   0.98799908 
   52800    291.28257     -733.545    126971.04   -37019.848    3618.8994   -40638.748    625.30309   0.98958458 
   52900    294.41664   -391.00537     126894.5   -36988.449    3657.8372   -40646.286    627.48966   0.99018143 
   53000    294.26202     -505.488    127047.67   -36942.233    3655.9161   -40598.149    628.85383   0.98898765 
   53100    289.21838   -667.70798    126916.53   -37005.608    3593.2539   -40598.862    628.82782   0.99000958 
   53200    297.06109   -425.46443    126821.71   -36998.856    3690.6918   -40689.548    629.84608   0.99074975 
   53300    291.45426   -696.70694    126788.59   -36993.958    3621.0324    -40614.99     631.6969   0.99100858 
   53400    288.99685   -427.98122    126683.89   -37079.537    3590.5016   -40670.038    633.24124   0.99182757 
   53500    296.85315   -553.94229    126897.54   -37074.106    3688.1083   -40762.214    635.31136   0.99015774 
   53600    289.94698   -380.75516    127032.22   -37073.907     3602.306   -40676.213    636.79965   0.98910795 
   53700    290.36185   -255.49028     126980.6   -37131.386    3607.4604   -40738.847    637.13369   0.98951003 
   53800    297.49715   -539.05925    127169.01   -36964.007    3696.1095   -40660.116     637.8415   0.98804405 
   53900    291.50727   -514.16941    126935.84    -37077.99    3621.6911   -40699.681    637.78761     0.989859 
   54000     294.1088   -776.11138    126810.72   -37041.572    3654.0125   -40695.585    638.85651   0.99083566 
   54100     298.1065   -723.74249    126266.08   -37068.215      3703.68   -40771.895    637.98685   0.99510951 
   54200    295.44283   -597.41022    126562.92    -37035.28    3670.5865   -40705.867    641.09446   0.99277559 
   54300    292.31022    -502.5341    126577.01   -36977.766     3631.667   -40609.433    643.23509   0.99266513 
   54400    292.45842   -412.79287    126608.77   -37017.951    3633.5082   -40651.459    643.51583   0.99241607 
   54500    289.11036   -445.45084     126983.2   -37007.782    3591.9118   -40599.694    646.13203   0.98948975 
   54600    297.48767   -462.26307    126912.19   -36866.822    3695.9917   -40562.813    646.95775   0.99004345 
   54700    297.25455   -537.90387    126807.36   -36890.198    3693.0953   -40583.293    647.37517   0.99086188 
   54800    294.25733   -467.45889    126887.59   -36988.952    3655.8579    -40644.81    649.36775   0.99023535 
   54900    290.75766   -604.37332    126819.61   -37045.306    3612.3779   -40657.684    649.82828    0.9907662 
   55000    284.61623   -348.00801    126851.36   -37104.805    3536.0767   -40640.881    650.17646   0.99051821 
   55100    295.69915   -478.19101    127062.73   -37065.076     3673.771   -40738.847     652.8865   0.98887043 
   55200    290.11061   -601.72064    127195.28   -37081.829    3604.3389   -40686.168     654.6421   0.98783992 
   55300    291.94444   -249.63692    127222.32   -37020.979    3627.1224   -40648.102    656.41884   0.98763003 
   55400    294.07231   -447.28139    127167.24   -36987.423    3653.5592   -40640.982    657.11183   0.98805774 
   55500    298.34502   -660.25921    127161.52   -36914.079    3706.6434   -40620.723    658.55859   0.98810223 
   55600    297.49911   -583.26379    127040.56   -36979.675    3696.1338   -40675.808    659.64473   0.98904305 
   55700    292.38154   -582.15866    126856.27   -36961.376     3632.553   -40593.929    659.76236   0.99047988 
   55800     295.1406   -570.17779    127000.75   -36996.758    3666.8316    -40663.59    662.05294   0.98935303 
   55900    298.67303   -424.32092    127202.58   -36958.724    3710.7185   -40669.442    664.13272   0.98778324 
   56000     298.1707   -517.68213    127217.73   -36964.435    3704.4776   -40668.913    665.25359   0.98766565 
   56100    296.96315   -589.16451    126619.99    -36926.12     3689.475   -40615.595    664.44774   0.99232813 
   56200    295.52256   -536.92712    126437.44   -36932.161     3671.577   -40603.738    665.44343   0.99376087 
   56300    294.08836   -674.21626    126576.72   -36978.596    3653.7586   -40632.355      667.213   0.99266733 
   56400     293.8713   -173.71954     126637.3   -36932.269    3651.0618   -40583.331    668.59003   0.99219253 
   56500    290.96466   -672.85381    126457.79   -37029.595    3614.9497   -40644.544    669.55198   0.99360094 
   56600    296.15032   -497.30652    126383.05   -37078.724    3679.3764   -40758.101    670.32368   0.99418854 
   56700    294.50906   -568.59011    126250.67   -37134.963    3658.9854   -40793.948    670.84359   0.99523102 
   56800    295.75938   -600.76718    126528.15   -37056.709    3674.5193   -40731.228    673.79449   0.99304844 
   56900    286.52442   -601.40924    126459.77   -37015.242    3559.7841   -40575.026     674.4774   0.99358537 
   57000    294.70622   -411.61487    126820.98   -36959.731    3661.4349   -40621.166    677.41783   0.99075545 
   57100    296.93554   -636.05945    126942.66    -37026.93     3689.132   -40716.062    678.86804   0.98980579 
   57200    293.61511   -500.52685    126698.28    -37073.53     3647.879   -40721.409    678.82026   0.99171493 
   57300      290.078   -609.46912    126675.24   -37135.949    3603.9338   -40739.883    680.13836   0.99189535 
   57400    285.65158   -329.77495    126823.75   -37172.907    3548.9399   -40721.847    682.58605   0.99073386 
   57500    294.18421   -688.36363    126886.86   -37225.046    3654.9495   -40879.995    683.89664   0.99024108 
   57600    290.28662    -381.1452    127231.91   -37186.014    3606.5256    -40792.54    686.63474   0.98755555 
   57700    286.28699   -631.34188    127146.54   -37245.704    3556.8342   -40802.539    686.04195   0.98821866 
   57800    290.44107   -417.58346    126824.86   -37241.347    3608.4446   -40849.792    684.86341   0.99072513 
   57900    284.02919   -437.54816    127382.61   -37207.932    3528.7833   -40736.716    688.75991   0.98638723 
   58000    290.33966   -673.76521    127248.28   -37168.604    3607.1847   -40775.789    689.00853   0.98742853 
   58100    288.85625   -401.78613    127160.41   -37097.812    3588.7548   -40686.567    689.85835   0.98811081 
   58200    292.97538   -441.55353    127080.74   -37017.816    3639.9308   -40657.747    690.58231   0.98873028 
   58300    296.74077    -464.4599    126918.03   -36939.688    3686.7122     -40626.4    691.17381   0.98999785 
   58400    295.66513   -578.69166    126693.56   -36950.401    3673.3484   -40623.749    690.82976    0.9917519 
   58500     296.2458   -423.45502    126500.11   -36970.787    3680.5627   -40651.349    690.56925   0.99326857 
   58600    302.37186   -608.79774    126764.89   -36882.104    3756.6729   -40638.777    692.83152   0.99119386 
   58700    301.72511     -607.179    126543.18   -36907.192    3748.6377   -40655.829    694.49794   0.99293046 
   58800    296.82455   -541.79266    126623.31   -37005.526     3687.753   -40693.279    695.95433   0.99230214 
   58900    295.52319   -658.27608    126909.07   -37045.982     3671.585   -40717.566    697.02312   0.99006774 
   59000    291.99952   -713.16391    126801.19   -37023.869    3627.8068   -40651.676    697.37742   0.99091006 
   59100    295.77975   -397.56374     126661.3    -37042.77    3674.7725   -40717.542    698.35935   0.99200449 
   59200    291.68882   -511.21619    126803.75   -37070.363    3623.9467    -40694.31    699.80897   0.99089012 
   59300    301.92216   -533.30515    126691.42   -37067.853    3751.0858   -40818.939    701.17816   0.99176866 
   59400    287.17394   -451.82475    126769.86    -37145.03    3567.8537   -40712.884    701.84571     0.991155 
   59500    294.95264    -527.7883     127260.4   -37088.965    3664.4965   -40753.462    704.43958    0.9873345 
   59600    292.58461   -405.30434    127035.64   -37092.573    3635.0759   -40727.649     704.0807   0.98908136 
   59700    290.12929   -501.99328    126575.67   -37124.207    3604.5711   -40728.778    701.87486   0.99267558 
   59800    295.63003   -344.11471    126989.54   -37090.129    3672.9123   -40763.041    703.36606   0.98944041 
   59900    297.95577   -583.15232    126942.99    -37064.23    3701.8073   -40766.037    703.97075   0.98980319 
   60000    291.37532   -669.23664    126709.35   -37140.017    3620.0518   -40760.069    704.04097   0.99162829 
   60100    289.81182   -606.39266    126735.93   -37074.994    3600.6267   -40675.621    704.98788   0.99142035 
   60200    297.18954   -337.90013    126810.58   -37022.456    3692.2877   -40714.743    706.57521   0.99083676 
   60300    299.61112    -369.6082    126960.98   -36976.645    3722.3735   -40699.018    708.95522   0.98966295 
   60400    295.16002   -434.39519    127092.59   -36889.529    3667.0729   -40556.602    710.71012   0.98863812 
   60500    296.18439   -567.41885    127202.06   -36945.196    3679.7997   -40624.996    712.76002   0.98778731 
   60600    295.94024   -368.30991    127306.89   -37007.844    3676.7664    -40684.61    714.58872   0.98697389 
   60700     290.5378   -254.07744    127292.98    -37056.51    3609.6464   -40666.156    714.49509   0.98708173 
   60800    298.35033   -500.94629    127438.76   -36976.022    3706.7093   -40682.731    717.27103   0.98595259 
   60900    294.16199   -602.15987    127080.55   -36955.246    3654.6733    -40609.92    717.21794   0.98873182 
   61000    295.68357   -370.80485    127051.73    -37020.74    3673.5775   -40694.317    718.95151   0.98895603 
   61100    295.98557   -730.73836    126947.62    -37066.55    3677.3296    -40743.88    718.50683   0.98976713 
   61200    291.16623   -365.35009    127073.01   -37066.367     3617.454   -40683.821     719.8921   0.98879047 
   61300    299.16714   -476.11217    127009.33   -37063.918    3716.8575   -40780.775    721.21737   0.98928621 
   61400    290.55927   -502.01034     127005.6   -37120.264    3609.9132   -40730.178    722.52215   0.98931524 
   61500    294.89516   -752.89069    126773.49   -37107.217    3663.7823       -40771    722.49225    0.9911266 
   61600    290.49458   -669.17238    126751.09   -37046.771    3609.1094   -40655.881    723.42584   0.99130174 
   61700    290.96711   -289.21416    126833.83   -37149.778    3614.9801   -40764.758    723.74013   0.99065509 
   61800    286.05878   -270.62798    126940.03   -37242.415     3553.999   -40796.414    725.67772   0.98982629 
   61900    300.19802   -745.38547    127151.44   -37163.313    3729.6651   -40892.978    727.95079   0.98818054 
   62000     291.9989   -568.14109    126854.17   -37157.298    3627.7991   -40785.097    727.54311   0.99049621 
   62100    289.84115   -513.42741    126619.79   -37142.236    3600.9911   -40743.227    727.98484   0.99232968 
   62200    292.96341   -440.94984    126776.68   -37091.831    3639.7822   -40731.614    730.58906   0.99110165 
   62300    289.88065   -568.51909     126784.1   -37114.432    3601.4819   -40715.914    731.64103   0.99104364 
   62400    301.40825    -372.0437    126907.72   -37036.076     3744.701   -40780.777    734.02446   0.99007832 
   62500    296.59005   -532.76348    127043.04    -37057.97    3684.8397    -40742.81    735.48933   0.98902371 
   62600    289.60855   -723.55246    126976.49   -37071.319    3598.1013    -40669.42    735.89753   0.98954207 
   62700    297.66147   -216.61358    126787.34   -37081.483    3698.1509   -40779.634    736.06113   0.99101836 
   62800     292.6357   -439.33449    126268.98   -37114.828    3635.7107   -40750.539    736.04235   0.99508666 
   62900    292.83821   -595.24126    126713.23   -37005.033    3638.2267   -40643.259    738.66096   0.99159797 
   63000    298.39637   -382.86963    127055.39   -36950.892    3707.2814   -40658.174    741.20865   0.98892759 
   63100    301.22947   -643.98504    127101.42   -36930.579    3742.4798   -40673.059    743.20322   0.98856942 
   63200    294.47688   -588.38363    127025.89   -36976.948    3658.5855   -40635.534    744.54307   0.98915724 
   63300    287.95863   -387.82754    127145.54   -37014.684    3577.6027   -40592.287    746.10462   0.98822638 
   63400    299.45835   -556.74423    127200.17   -36901.027    3720.4754   -40621.502    747.15077   0.98780199 
   63500     291.4589    -634.5621    127121.05   -37013.986    3621.0901   -40635.076    747.65785   0.98841677 
   63600    293.03031   -440.61403    127023.92   -37014.276    3640.6133   -40654.889    747.99882   0.98917262 
   63700    294.15671   -553.05544    126890.07   -37028.162    3654.6078    -40682.77    748.02621   0.99021606 
   63800    291.34761   -332.43876    126986.71   -37148.913    3619.7074    -40768.62     749.3292   0.98946246 
   63900    293.21263   -578.90385    126759.14   -37143.353    3642.8785   -40786.232    749.46261   0.99123885 
   64000    289.29925   -562.72758    126716.28   -37127.851    3594.2586    -40722.11    751.08082   0.99157407 
   64100     296.2274   -325.36277    126772.06   -37015.625    3680.3341   -40695.959    752.78086   0.99113777 
   64200    296.36276   -517.65609    126713.93   -37007.069    3682.0157   -40689.085    753.89881   0.99159251 
   64300    295.30549   -526.25197    126672.79   -36910.065    3668.8802   -40578.945    755.83386   0.99191454 
   64400    293.80744   -538.43222    126745.42   -36907.407    3650.2684   -40557.675    757.59156   0.99134612 
   64500    300.78343   -398.48999    126797.64   -36892.669    3736.9382   -40629.607    759.15983   0.99093782 
   64600    299.07342   -364.73671    127231.43   -36951.267    3715.6931    -40666.96    761.67739   0.98755926 
   64700    291.76993   -664.89968    127251.24   -37004.712    3624.9544   -40629.666    762.00225   0.98740556 
   64800    296.55448   -361.51863    127214.09   -37020.837    3684.3976   -40705.235    763.19031   0.98769388 
   64900    294.75261   -740.50395     127473.9   -36978.385    3662.0113   -40640.396    765.41031   0.98568081 
   65000    299.16071   -682.66871    126977.39   -36973.404    3716.7776   -40690.182    765.01535   0.98953507 
   65100    295.72405   -248.09679    127011.75   -37015.081    3674.0804   -40689.161    766.01307   0.98926733 
   65200    297.59312   -366.98894    126828.72   -37004.875    3697.3017   -40702.177    767.20107   0.99069501 
   65300    295.13715   -461.55439     126991.5   -37003.301    3666.7888    -40670.09    768.91561   0.98942511 
   65400    300.94405   -486.25261     126892.7   -36942.481    3738.9337   -40681.415    769.88499   0.99019546 
   65500    292.34879   -488.35388    126949.52   -36996.146    3632.1461   -40628.292    770.87252   0.98975228 
   65600    295.03661   -596.56688    127217.34   -37041.769    3665.5397   -40707.309    772.52006   0.98766869 
   65700     292.1988   -641.02078    126780.91   -37134.486    3630.2826   -40764.769    772.45342   0.99106861 
   65800    288.31671   -282.63285    126723.46   -37121.549    3582.0515   -40703.601    772.44555   0.99151792 
   65900     292.3484   -395.79285    126782.36   -37069.736    3632.1413   -40701.878    773.28604   0.99105725 
   66000    296.40079   -622.56235     126653.1   -36931.304    3682.4882   -40613.793    773.93126   0.99206871 
   66100    302.34397    -701.2399       126976   -36841.979    3756.3264   -40598.305    775.97861   0.98954586 
   66200    299.67967   -513.43182    126782.58   -36779.093    3723.2251   -40502.318    776.54303   0.99105559 
   66300    295.47543   -198.81581    126897.24   -36858.613    3670.9916   -40529.605    779.39593   0.99016007 
   66400    294.04504    -507.5572    127048.38   -36924.919    3653.2203   -40578.139    781.43079   0.98898213 
   66500    292.57997   -375.20128     127037.4   -36964.098    3635.0183   -40599.117    782.70995   0.98906759 
   66600    292.36887   -427.52027    127221.84   -36974.203    3632.3956   -40606.598    784.90056   0.98763371 
   66700    295.11579   -169.00264     127420.3   -36987.001    3666.5234   -40653.524    786.98597   0.98609545 
   66800    293.79672   -751.11902    127105.78   -36913.533    3650.1352   -40563.668    787.56397    0.9885355 
[...]
   84700    293.11999   -805.69151    126700.62   -37171.742    3641.7276    -40813.47    996.17953   0.99169665 
   84800    293.71482   -503.33364    126687.91   -37126.182    3649.1177     -40775.3    996.63718   0.99179611 
   84900     289.6429   -282.81224    126838.55   -37094.409    3598.5281   -40692.937    998.60775   0.99061826 
   85000    298.49078   -400.04312    126945.22   -37023.823    3708.4543   -40732.278    1002.0682   0.98978581 
   85100    297.36427   -496.32228    126978.06   -37031.099    3694.4586   -40725.558    1002.7714   0.98952981 
   85200    292.76879   -508.76596    126995.52   -37051.121    3637.3642   -40688.486    1003.2236   0.98939381 
   85300    291.56826   -481.67221    127149.83   -37080.099    3622.4489   -40702.548    1005.1128   0.98819308 
   85400    287.77215   -379.58938    126848.32   -37048.961    3575.2859   -40624.247    1004.8534   0.99054192 
   85500    289.81286   -374.13816    126906.01   -37012.065    3600.6396   -40612.705    1007.1674   0.99009166 
   85600    292.56135   -632.29268    126826.11   -36994.261     3634.787   -40629.048    1007.6873   0.99071537 
   85700     293.8673   -498.56402    126747.29   -37048.116    3651.0122   -40699.128    1008.2298   0.99133151 
   85800    297.27905   -717.23322    126565.15   -37057.289    3693.3998   -40750.689    1009.4046   0.99275813 
   85900    296.80585   -553.95466    126817.19   -36924.409    3687.5207    -40611.93    1012.5946   0.99078509 
   86000    298.75144   -572.14274    126774.69   -36985.706    3711.6928   -40697.398    1014.0059   0.99111722 
   86100     294.2216    -230.4812    126567.43    -37009.91     3655.414   -40665.323    1014.1122   0.99274021 
   86200    297.96539   -472.44007    126760.94    -36947.25    3701.9269   -40649.177     1017.288   0.99122475 
   86300    299.02152   -572.15397    126316.94   -37010.936    3715.0483   -40725.984    1015.5688   0.99470887 
   86400    292.55552   -397.10301    126769.22   -37018.482    3634.7146   -40653.197    1019.7872   0.99115997 
   86500    292.73439    -609.7653    126726.74   -37007.952    3636.9368   -40644.889    1021.9435   0.99149228 
   86600    295.89705   -596.77804    126795.72   -36911.659    3676.2298   -40587.889    1023.5496   0.99095288 
   86700    292.73917   -365.76206    126758.61   -36858.416    3636.9962   -40495.412    1024.9464   0.99124299 
   86800     299.1343   -311.52813    126957.48   -36952.643    3716.4495   -40669.092    1026.8503   0.98969024 
   86900    295.29053   -564.37496    126989.39   -36919.401    3668.6943   -40588.095     1029.633   0.98944158 
   87000    294.62855   -743.62128    126789.83   -36932.061    3660.4699   -40592.531    1029.9234   0.99099885 
   87100    299.70379   -754.04916     126419.2   -36981.404    3723.5248   -40704.929    1029.8498   0.99390424 
   87200     295.2715   -286.24387    126469.59   -37018.362    3668.4579    -40686.82    1030.6858   0.99350823 
   87300    292.98334   -333.70543    126451.76   -37017.911    3640.0298   -40657.941    1033.1546   0.99364833 
   87400    291.72043    -496.4978    126610.98   -37027.747    3624.3394   -40652.087     1034.701    0.9923988 
   87500    297.22344   -131.21993    126696.29   -37048.311    3692.7089    -40741.02    1036.4965    0.9917305 
   87600    295.52748   -471.68182    127000.92   -37053.367    3671.6382   -40725.006    1038.0704   0.98935176 
   87700    289.90979   -493.11379     126932.1   -37071.268    3601.8439   -40673.112    1038.1419   0.98988816 
   87800    298.89485   -739.29898     126653.9   -37035.824    3713.4745   -40749.298    1037.9834   0.99206247 
   87900    292.74945   -681.36339    126785.16   -37066.408     3637.124   -40703.532    1039.7263   0.99103542 
   88000    291.74177   -304.66939    126952.68   -37080.283    3624.6046   -40704.887    1041.9279   0.98972767 
   88100    292.60228   -316.38802    127488.68   -36967.522    3635.2955   -40602.818    1046.7174   0.98556655 
   88200    296.93931    -542.6662    127259.81   -36919.597    3689.1788   -40608.776    1046.8746   0.98733906 
   88300    297.16133   -466.31697    127208.44   -36983.407    3691.9373   -40675.345    1048.6033   0.98773776 
   88400    292.81982   -572.33967    127432.54   -37117.521    3637.9983    -40755.52     1051.353   0.98600077 
   88500    292.99165   -498.66922    127593.45   -37025.645    3640.1331   -40665.778    1052.0524   0.98475728 
   88600    294.68638   -500.72446    127467.44   -36955.916    3661.1884   -40617.105     1051.617   0.98573079 
   88700    301.45055   -516.23792    127310.28   -36911.236    3745.2266   -40656.462    1051.6097   0.98694763 
   88800    298.90418   -264.55762    127668.13   -36835.559    3713.5904   -40549.149    1054.9722   0.98418123 
   88900    295.19197   -655.18443    127981.85   -36888.427    3667.4699   -40555.896    1057.6233   0.98176878 
   89000    298.63173    -656.6527    128098.27   -36874.235    3710.2055    -40584.44    1058.9023   0.98087651 
   89100    294.23943   -590.41081     128070.5   -37004.113    3655.6355   -40659.748    1060.4238   0.98108914 
   89200    296.03992   -536.75012    127532.67   -37054.593    3678.0048   -40732.598    1058.6187   0.98522659 
   89300     293.0667   -464.00992    127358.75   -37093.277    3641.0654   -40734.342    1059.2378   0.98657201 
   89400    291.13094   -584.16652    127210.59   -37136.353    3617.0155   -40753.369    1058.8936   0.98772103 
   89500    289.82524   -1065.2767    127100.85   -37177.035    3600.7935   -40777.829    1059.8939   0.98857385 
   89600    290.86839   -479.38806    126913.28   -37250.796    3613.7536    -40864.55    1058.7582   0.99003494 
   89700    287.13024    -452.3076    126845.95   -37193.596    3567.3107   -40760.907    1058.5273   0.99056047 
   89800    288.17812   -354.00116    127101.37   -37126.675    3580.3296   -40707.005    1062.0788   0.98856985 
   89900    287.31115   -698.88331     127075.4   -37217.874    3569.5584   -40787.432    1062.0235   0.98877184 
   90000    294.83519   -628.35578    127057.93   -37100.152    3663.0372    -40763.19    1062.8995    0.9889078 
   90100    292.98223   -419.23396    127179.46   -37101.084     3640.016     -40741.1    1065.7657   0.98796281 
   90200    288.80485   -500.18792    127162.36   -37159.052    3588.1162   -40747.168    1068.1464    0.9880957 
   90300     291.2207   -484.76285    126610.78   -37194.594    3618.1307   -40812.725    1066.3554    0.9924003 
   90400    291.50411   -259.79636    126817.35   -37197.599    3621.6518    -40819.25    1067.9524   0.99078384 
   90500     293.6865   -395.78396    127093.28    -37144.95    3648.7659   -40793.716    1071.2133   0.98863278 
   90600    296.22491   -595.58448    126992.67   -37019.272    3680.3031   -40699.575    1069.3163   0.98941597 
   90700    294.89081   -552.11588    127160.72   -36988.457    3663.7282   -40652.185    1071.8656   0.98810842 
   90800    291.07143    -576.7574    126928.91    -37023.55    3616.2762   -40639.826    1071.7927   0.98991299 
   90900    289.65938   -318.60436    126611.44   -37148.047    3598.7328    -40746.78    1070.3239   0.99239517 
   91000    291.65519   -726.27215    126457.15   -37195.572    3623.5288   -40819.101    1072.0271   0.99360595 
   91100    291.35106   -407.24809    126753.75   -37161.553    3619.7503   -40781.304    1075.3792   0.99128097 
   91200    293.09666   -356.22798    126901.84    -37112.84    3641.4377   -40754.278     1076.305   0.99012418 
   91300    296.48895     -501.006    126535.41   -37003.116    3683.5836   -40686.699     1075.886   0.99299148 
   91400    297.26572   -351.07854    127015.79   -36964.817    3693.2342   -40658.052    1079.3407   0.98923592 
   91500    295.91899   -383.24981    127074.82   -36964.274    3676.5024   -40640.776    1081.3845    0.9887764 
   91600    292.14154   -524.83106    127032.15   -37016.375    3629.5712   -40645.946    1081.7725   0.98910848 
   91700    295.23335   -522.54011    127186.31   -37088.129     3667.984   -40756.113    1084.2304   0.98790962 
   91800    295.72626   -581.00848    126948.62   -37009.862    3674.1079    -40683.97    1083.0896   0.98975929 
   91900    291.08013    -332.1584    127207.99   -37007.606    3616.3842    -40623.99    1085.1953   0.98774126 
   92000    294.39478   -641.93581    126971.04   -37008.817    3657.5656   -40666.382    1084.7618   0.98958453 
   92100     290.2793   -412.27749    127219.85    -37091.26    3606.4348   -40697.695     1087.724   0.98764914 
   92200    297.23958    -619.2855    127273.41   -36997.753    3692.9094   -40690.663    1088.6244   0.98723355 
   92300    297.63148   -510.28584    127017.78   -36896.655    3697.7784   -40594.433    1088.7484    0.9892204 
   92400    295.08673   -605.66241    126942.06   -36902.914    3666.1624   -40569.076    1089.2554    0.9898105 
   92500    294.56874   -312.99074    127040.25    -36939.27    3659.7268   -40598.996    1090.9559   0.98904546 
   92600    294.49448   -524.52591    126844.35   -36943.744    3658.8043   -40602.548    1091.3876   0.99057291 
   92700    302.34678   -452.07603    126691.74   -36927.616    3756.3614   -40683.977    1092.8334   0.99176617 
   92800    291.49887   -259.11112    126782.08   -36982.251    3621.5868   -40603.838    1095.1072   0.99105943 
   92900    295.57581   -496.71338    126582.74   -36923.043    3672.2387   -40595.281    1095.1956   0.99262019 
   93000    296.73286   -777.60172    126232.48   -36974.525    3686.6138   -40661.139    1094.1471   0.99537444 
   93100      293.815   -384.53006     126338.9   -36881.389    3650.3623   -40531.752    1096.1258   0.99453593 
   93200     299.2053   -398.24588    126731.42   -36893.306    3717.3315   -40610.637    1099.2291   0.99145564 
   93300    297.32521   -477.90113    127000.16   -36929.817    3693.9733    -40623.79    1102.1711   0.98935766 
   93400    294.42489   -414.69704    127239.57   -36992.554    3657.9396   -40650.493    1104.1382   0.98749612 
   93500    287.78823   -617.00859    127246.22   -37042.835    3575.4856    -40618.32    1104.6415    0.9874445 
   93600    290.76369   -707.72366    126806.77   -37134.443    3612.4528   -40746.895    1103.0158   0.99086653 
   93700    289.71031   -845.85568    126784.11   -37109.932    3599.3657   -40709.298     1104.062   0.99104359 
   93800    299.14732   -594.38931    126617.72   -37056.573    3716.6112   -40773.185    1103.6867   0.99234591 
   93900      289.545   -373.26999    126797.33   -37037.127    3597.3118   -40634.438     1106.245   0.99094028 
   94000    293.73696    -195.9303    126445.98   -37076.756    3649.3928   -40726.148    1105.5416   0.99369371 
   94100    291.00252   -368.57222    126836.55    -37063.07      3615.42    -40678.49    1108.3419   0.99063388 
   94200     291.0194   -417.95537    126843.59   -37034.777    3615.6298   -40650.407    1109.7506   0.99057888 
   94300    297.15292   -393.64033    126957.43   -36966.306    3691.8327   -40658.139    1112.3765   0.98969063 
   94400    294.88862    -263.9818    127039.69   -36939.716     3663.701   -40603.417    1112.6911   0.98904983 
   94500    297.21084   -468.48965    127029.66   -36881.127    3692.5523   -40573.679    1114.1109   0.98912786 
   94600    298.69044   -530.54531    127002.99   -36929.682    3710.9349   -40640.617    1114.3438    0.9893356 
   94700    288.56717   -377.16691    126929.99   -36977.811    3585.1632   -40562.974      1114.64   0.98990457 
   94800    303.20471   -584.49915    126862.02   -36951.197    3767.0202   -40718.217    1115.0068   0.99043497 
   94900    293.71469   -448.91369    126793.76   -36949.025    3649.1161   -40598.141    1116.2561   0.99096819 
   95000    297.55029   -416.86433    126671.55   -36956.807    3696.7696   -40653.577    1117.0971   0.99192421 
   95100    297.07416   -555.65784    126526.53   -36944.891    3690.8541   -40635.745    1117.2589   0.99306113 
   95200    293.94546   -368.92078    126563.71   -36933.748    3651.9832   -40585.731    1117.9988   0.99276944 
   95300    303.71267   -460.20636    126859.27   -36778.045    3773.3312   -40551.377    1121.2371   0.99045645 
   95400    299.87709   -937.77286    126296.41   -36892.414    3725.6779   -40618.092    1120.3319   0.99487059 
   95500    300.95259   -242.08248    126780.46   -36883.599    3739.0399   -40622.639    1125.0318   0.99107216 
   95600    301.20627   -474.09857    126936.16   -36898.783    3742.1916   -40640.974    1127.9505   0.98985645 
   95700    295.25546   -563.11575    126647.38   -36976.781    3668.2586    -40645.04    1126.5928   0.99211352 
   95800    293.49965   -360.19448     126763.4   -37035.845    3646.4444    -40682.29    1128.6691   0.99120554 
   95900    290.78146   -711.78055     126861.1   -36995.169    3612.6736   -40607.842    1130.7282   0.99044216 
   96000    292.35009     -131.341    126774.25   -37083.462    3632.1623   -40715.624    1132.1928   0.99112067 
   96100    294.72976   -482.26258    127130.91   -37020.387    3661.7273   -40682.114    1135.3144   0.98834013 
   96200    291.87204     -453.603    127509.57   -37062.919    3626.2229   -40689.142    1138.4743   0.98540507 
   96300     291.7527    -366.1285    127447.17   -37003.216    3624.7402   -40627.956    1140.8547   0.98588757 
   96400    299.49173    -569.9052    127521.71   -36984.051    3720.8901   -40704.941    1142.7649   0.98531125 
   96500    296.26744    -738.3731    127394.93   -37045.484    3680.8314   -40726.316    1143.4826   0.98629186 
   96600    294.69278   -660.02988    126828.67   -37073.202    3661.2679    -40734.47    1141.5181   0.99069541 
   96700    291.35018   -764.09088    126772.33    -37192.05    3619.7394   -40811.789    1142.4907   0.99113567 
   96800    292.97637   -619.44623     126805.7   -37251.033    3639.9432   -40890.976    1143.7803   0.99087484 
   96900    284.02302   -555.35598    127275.54   -37144.139    3528.7066   -40672.845    1148.8174   0.98721704 
   97000     289.4308   -576.24759    126980.85   -37148.227    3595.8929   -40744.119    1147.0486   0.98950807 
   97100    293.17802   -445.55415    126979.71   -37134.953    3642.4484   -40777.402    1148.9554   0.98951701 
   97200    294.41853   -312.99928    127424.87   -37157.198    3657.8606   -40815.059    1152.1252   0.98606009 
   97300    292.55499   -585.33134    127379.73   -37161.778    3634.7079   -40796.486    1152.6532   0.98640955 
   97400     289.2147    -559.9266    127081.86   -37167.734    3593.2082   -40760.943    1152.6185   0.98872161 
   97500    295.06387   -777.37748    127147.73   -37033.576    3665.8783   -40699.454    1154.0737   0.98820938 
   97600    291.74668    -790.4102       126839   -37139.082    3624.6656   -40763.748    1153.9349   0.99061475 
   97700    298.27027   -83.490278    126633.86   -37071.779    3705.7147   -40777.493    1153.0066   0.99221945 
   97800    299.64787   -488.22464    126988.31    -37022.82      3722.83    -40745.65    1157.2224   0.98944997 
   97900    295.12129   -422.72895    127059.03   -36960.515    3666.5917   -40627.107    1159.2855   0.98889922 
   98000    293.05447    -441.5583    127070.55   -37006.077    3640.9135   -40646.991     1159.265   0.98880962 
   98100    288.36245   -271.78428    127294.66   -37092.054    3582.6197   -40674.674    1160.1197   0.98706877 
   98200    297.43467   -692.03146    127318.02   -37033.604    3695.3332   -40728.937    1161.4627   0.98688764 
   98300    293.83312   -529.03543    127048.85   -37083.309    3650.5875   -40733.896    1161.1267   0.98897849 
   98400    288.71396   -451.84474    127087.28   -37073.283     3586.987    -40660.27     1162.406   0.98867942 
   98500    290.77918   -431.86735    126854.66    -37059.41    3612.6453   -40672.055    1162.1215   0.99049239 
   98600    291.53987   -566.75672    126856.68   -37108.829    3622.0961   -40730.925    1163.7781   0.99047665 
   98700    289.05783   -687.02999    126602.63   -37150.554    3591.2592   -40741.814    1164.2147   0.99246419 
   98800     287.5624   -512.29959    126729.46   -37110.172    3572.6799   -40682.852    1166.0903   0.99147099 
   98900    293.42059   -291.07694    126869.39   -37099.354    3645.4622   -40744.816    1168.6745   0.99037744 
   99000     289.0739   -522.69847    126872.22   -37133.797    3591.4588   -40725.256    1168.7507   0.99035532 
   99100    293.32549   -299.48335    126970.81   -37068.915    3644.2807   -40713.195    1168.8209   0.98958637 
   99200    291.03347   -653.77874    127044.33   -37061.661    3615.8046   -40677.466    1169.3362   0.98901371 
   99300    296.07657   -462.61136    126936.67   -37011.132    3678.4601   -40689.593    1169.4988   0.98985251 
   99400    295.34037   -436.54508    126839.09   -36962.524    3669.3135   -40631.837    1168.3522   0.99061398 
   99500    299.99116   -428.52744     126878.3    -36789.89    3727.0951   -40516.985    1169.1502   0.99030788 
   99600    296.46579   -757.48532    126893.18   -36832.841    3683.2958   -40516.137    1170.0957   0.99019178 
   99700    296.91516   -627.85443    126719.97   -36838.751    3688.8788    -40527.63    1169.7299   0.99154518 
   99800    298.05656   -326.81423    126826.46   -36836.857    3703.0596   -40539.917    1170.8151   0.99071267 
   99900    292.80448   -449.25624    126564.72   -36949.936    3637.8076   -40587.744    1171.4921   0.99276152 
  100000    292.91109   -309.83654    126576.49    -36965.09    3639.1322   -40604.223    1171.1186   0.99266914 
  100100      298.174    -407.7105    126593.15   -36886.377    3704.5186   -40590.896    1173.2517   0.99253855 
  100200     306.1618   -657.61543    126246.43   -36884.446    3803.7592   -40688.206    1171.5488   0.99526442 
  100300     297.0715   -690.90623    126275.97   -36866.688    3690.8212   -40557.509    1173.2484    0.9950316 
  100400    298.30597    -552.9944    126619.15   -36893.517    3706.1582   -40599.676    1176.6476   0.99233474 
  100500    300.37629   -370.00848     127029.6    -36799.69    3731.8799   -40531.569      1180.44   0.98912834 
  100600    302.31135   -419.20208    126780.19   -36917.315    3755.9212   -40673.236    1179.9357    0.9910742 
  100630    294.81673   -354.46784    126802.88    -36885.57    3662.8079   -40548.378    1180.0403   0.99089687 
Loop time of 112.351 on 6 procs for 100000 steps with 4169 atoms

Performance: 384.511 ns/day, 0.062 hours/ns, 890.071 timesteps/s
98.8% CPU use with 6 MPI tasks x no OpenMP threads

MPI task timing breakdown:
Section |  min time  |  avg time  |  max time  |%varavg| %total
---------------------------------------------------------------
Pair    | 89.583     | 90.606     | 91.846     |   8.9 | 80.65
Neigh   | 6.5043     | 6.5172     | 6.5485     |   0.6 |  5.80
Comm    | 11.184     | 12.416     | 13.44      |  23.9 | 11.05
Output  | 0.16871    | 0.16997    | 0.17575    |   0.6 |  0.15
Modify  | 1.9261     | 1.9458     | 1.9758     |   1.3 |  1.73
Other   |            | 0.6959     |            |       |  0.62

Nlocal:        694.833 ave         704 max         688 min
Histogram: 1 2 0 1 0 0 0 0 0 2
Nghost:        1507.50 ave        1521 max        1499 min
Histogram: 2 1 1 0 0 0 0 0 1 1
Neighs:        0.00000 ave           0 max           0 min
Histogram: 6 0 0 0 0 0 0 0 0 0
FullNghs:      19866.7 ave       20170 max       19604 min
Histogram: 2 0 0 1 0 1 0 0 0 2

Total # of neighbors = 119200
Ave neighs/atom = 28.591988
Neighbor list builds = 7037
Dangerous builds = 0

undump              1
unfix               2
unfix               3
unfix               4


################################################
#######         Run Simulation         #########
################################################

reset_timestep      0
log                 log.run_${NAME}
log                 log.run_liquid_295K_500atm_ML
