LAMMPS data file via write_data, version 29 Oct 2020, timestep = 800000

4175 atoms
1 atom types

-0.11448838616806967 50.11448838616629 xlo xhi
-0.11448838616806967 50.11448838616629 ylo yhi
-0.11448838616806967 50.11448838616629 zlo zhi

Masses

1 18.015

Atoms # atomic

4147 1 1.8126669665272832 2.6685767964059828 2.6597022778128605 0 1 1
2044 1 41.02987955187463 24.8229411427788 2.3234575325868594 -1 -1 0
2457 1 12.768161480728867 1.7471916737977031 1.3653004422079684 1 1 0
2084 1 22.39640004852951 1.2285847027986192 5.041013692020816 -1 0 1
2192 1 18.38640919913388 23.348848926455847 0.3690044624914384 -1 0 -1
2403 1 23.96040811133203 2.663867684714954 1.5629223898918045 1 0 0
3382 1 28.111332183561696 2.590749557690637 1.6086482369930895 1 1 0
1522 1 33.3969957817009 22.795495263158376 3.1392088641999396 0 0 1
3965 1 30.80096614012718 0.6968705456392548 0.012060152982249106 1 1 1
3280 1 32.72449311491761 4.780562233900048 1.3952099207850195 1 1 1
1417 1 44.67596949288226 6.278238592584429 0.5516225960758 0 0 1
2904 1 38.65276629656773 12.282228270146595 0.6572672911552603 0 1 0
3358 1 39.5317301383518 1.252087419218177 2.4814413223339553 -1 0 0
3009 1 45.36294956205787 1.9967343402711109 2.3830818202628663 -1 0 1
1086 1 4.541747985177548 2.7719187064260122 3.375566699233304 0 0 1
2486 1 6.450654797112225 4.2915212779842316 1.9058671341704247 0 1 1
1251 1 9.358054516517234 4.545474969599725 2.518351714831497 1 0 1
2642 1 14.925538770025232 3.3249105715188754 1.6102437947999415 0 0 1
4033 1 40.55145002904261 3.507691325360466 1.4753297176558466 1 0 0
2060 1 17.324168353410332 2.808612731912163 0.5032883085565761 0 1 1
1600 1 19.394314300999156 3.918780717942905 1.823433193564421 1 0 1
2939 1 25.90297307156678 -0.08142259093677509 0.2827361350246385 0 1 0
682 1 30.698934442457322 3.694659244342733 2.904446019046162 1 0 0
1619 1 23.90574030502948 19.520753950022073 0.8079437929278276 0 0 1
3842 1 39.93566641301386 19.674591113510083 0.09619375008828748 0 0 1
3084 1 44.73120383761891 4.4486090746024205 2.7818995612916706 -1 0 1
1131 1 48.178972447272315 5.113372273221636 2.0585526300002615 -1 0 0
3496 1 0.8386076145512885 5.365674273007506 2.869847872864885 1 1 1
2003 1 2.8974966944054876 6.933092772688999 2.1340304953833322 0 0 1
1260 1 6.447664497143795 7.324764887842153 3.000900822510308 0 0 1
2844 1 3.8755184588004012 7.7182865185380365 4.701304980752926 0 0 0
1765 1 11.091959485618332 6.90599603282825 1.6996873276344524 0 0 1
634 1 19.717713654255473 6.643895203004117 1.8648109138585678 0 0 0
1127 1 16.94365710519199 7.184607486972889 1.6391152311180122 0 -1 1
1084 1 23.06377556061762 6.255896342515298 2.254172700810974 0 0 0
79 1 24.376434081064964 16.691897785128827 0.7216198743468833 0 0 0
2439 1 25.787350182365863 7.167467907914082 1.7592229975655744 -1 1 0
3867 1 30.50524709602762 8.52478234928056 2.503486804685845 1 1 1
2031 1 26.07645679256863 24.948978347689124 11.627892883584508 -1 0 1
3301 1 34.80147009521146 7.699074899822469 0.9111874197225465 0 1 0
2346 1 37.09665093423956 8.303092850177354 2.086667568414546 -1 0 1
372 1 37.885535023368035 5.848561073597685 3.0481679407620494 0 0 1
772 1 40.882923162507986 6.240463428145058 3.5199689337260667 1 0 0
1054 1 42.874676824881256 7.995939445510556 2.384736144266841 -1 1 0
3048 1 0.39000268584898357 8.001193990680026 0.7801157583653892 0 1 1
3572 1 1.0892361592566155 10.978424639035774 1.6184728257480938 1 1 1
2088 1 14.150654758221052 10.335467650029031 0.3405689304897676 -1 1 1
658 1 33.4842922021772 2.3623336701031734 7.792334638263295 -1 0 0
231 1 48.42579107353367 24.586533829957066 0.9520137807505076 0 -1 0
568 1 10.135533734030695 24.445650101157405 5.974604189681134 0 -1 0
609 1 8.855313829659185 8.746467427221534 2.41390281280425 1 1 1
2931 1 16.849738167118424 24.579457051931758 3.7974536398279066 -1 0 1
1491 1 12.859992893231112 10.714035235905218 2.802352831946252 -1 0 1
3199 1 10.44280937737701 12.05268200913997 2.4677775200477856 1 1 1
769 1 42.42325258401251 24.283261789389275 15.03427941238894 -1 0 0
2849 1 16.95054782814089 9.92902098413133 1.308477972355108 0 1 2
716 1 21.188427920102136 10.236306784619618 1.901727607949777 1 0 0
2053 1 45.14957576896963 24.992668183624012 5.35805649581907 -1 0 1
2458 1 29.841472194683924 9.84693836732112 4.85965474181434 -1 1 1
1633 1 27.350111598905244 -0.05538990855166925 13.624108631552229 0 0 0
1774 1 34.2915410860405 11.62400081213889 2.416608199161254 -1 0 1
3043 1 34.73311615168408 9.612877884442941 3.8763155617558755 -1 1 1
3890 1 36.1973361708465 1.4317849015829638 8.559557863969303 -1 1 0
2437 1 42.14766641822759 12.274659017635287 3.0164984138238053 0 1 0
2396 1 45.680074753668336 9.539630176354818 2.3621722895576753 0 1 0
1624 1 43.25440554705637 10.070290714723283 4.366329333842555 0 0 1
3525 1 48.91015901026683 12.525333748607508 2.2237220976436087 -1 1 0
14 1 27.964637575840765 5.696636444155921 1.7753999664456241 0 1 0
1687 1 6.2324869535172605 11.804304326592295 0.9113880229296565 1 0 0
1851 1 10.477446770249985 14.516466944321527 4.101421311271122 1 0 1
4010 1 14.659447833057555 14.427645718115992 2.0665689614231084 0 0 1
2775 1 13.342741610021381 0.030174896017690855 5.680407037837012 0 0 1
2766 1 23.603266861242226 11.110919543817086 1.421742484749284 -1 1 0
565 1 24.433104596522153 12.9404507059483 3.504693158280826 0 1 0
1893 1 28.689150640028743 11.998095163125328 2.654155481900352 1 0 1
152 1 31.532854580996794 11.602691898069661 2.616070065369292 0 0 1
2336 1 35.773708874934314 13.415472585443453 4.147185380881554 0 1 0
3523 1 38.10160842748035 12.475119517017838 3.289024652580732 0 2 1
2839 1 33.25831067539955 0.8775160512146205 1.1290460566368608 0 1 1
1860 1 46.71396752871931 17.614112712230046 0.25240657250665577 -1 -1 1
2781 1 46.04420141101955 12.062261268421034 0.9999199799965686 -1 0 0
918 1 47.84704016440414 14.90962550867035 0.7532383041899711 -1 0 0
3300 1 2.627141978069108 18.056603743411944 1.5333678796991648 0 1 1
1317 1 7.225692132907836 2.3094774641573963 0.060276179617047815 0 1 0
3857 1 7.728505905785652 15.907272285548991 0.10382375761329454 0 0 0
2704 1 10.113751176111963 15.869819465035334 1.4369458049213855 0 1 1
955 1 33.39514974678535 21.389805161141712 0.03808226641781587 0 0 0
1596 1 17.166036320271363 16.54583694301798 2.0934254992182852 1 0 1
3828 1 20.12616782094574 14.942313657835662 1.5657051060304672 0 1 0
2805 1 20.313068270701667 17.753361392943514 3.054078535066744 -1 1 0
1252 1 13.775893290565305 24.179449958429295 16.103694531002773 1 0 0
199 1 29.429275968338565 24.346907954655983 14.571049408928355 1 1 0
4129 1 29.292017809912565 14.836568277410604 2.830350675262259 0 1 1
2889 1 21.452761640990527 22.152020682512305 16.103923247253853 0 0 -1
3804 1 31.966654992004102 14.622742560960729 3.561035575099342 0 1 2
3780 1 32.614435366061954 15.034628914846007 0.9792952377515165 0 1 1
1459 1 38.09537128395806 16.08343966454011 2.9809780903807854 0 0 1
2962 1 20.31778496111861 1.2885034615802928 2.9160794818622655 0 0 0
1799 1 42.55237052342096 16.138755116347753 1.6184922152555303 0 0 0
260 1 5.341891391612483 1.0532038637459076 14.06773287724291 0 0 0
1562 1 44.716836428716064 17.807889304449912 2.5192049190305346 0 0 1
1352 1 0.052937783595886245 18.587632677502807 2.20701896007609 1 0 0
121 1 20.895036122647376 0.14787375577862955 14.075056912132917 0 0 0
633 1 10.14027456407079 18.442323992117863 2.2209565456833733 1 0 -1
1148 1 26.214807716725385 0.3707451736890234 5.423833558139566 -1 1 0
776 1 13.958912457463839 19.40530666041046 1.2885981878944637 1 0 0
4142 1 16.73067968317091 19.104679527398567 1.2275143746225372 0 0 1
1361 1 18.432998125194 21.181397505482632 2.4912643508905963 0 0 0
2525 1 21.05678075208113 19.62842218764052 1.269579382880963 1 1 -1
2300 1 1.2144414847377454 1.2685645278153628 0.18459167073199362 1 0 0
2829 1 27.723266280961024 18.826268677269503 2.5729415921077736 0 1 1
3167 1 39.70005566874756 0.7651668234214875 12.13737512856948 0 1 1
3445 1 37.96629568849201 4.087700181542795 0.5270871085932756 0 1 1
3537 1 37.50545651002497 18.854062229928576 3.321369015102814 0 0 1
580 1 35.875232162584616 20.629383398933612 1.3541222076838715 0 -1 1
4053 1 39.425290916556 20.75945482461652 2.6739900916097183 0 1 0
322 1 45.76740877023705 22.312310972949145 8.945157537140638 0 -1 1
2494 1 42.212992160184974 21.944289541804885 2.0191138108569247 0 0 0
3781 1 43.870368570819224 19.966031156234294 0.8617640861285805 -1 -1 1
1925 1 46.82067291592709 20.783825824268245 1.5154435767753769 0 -1 1
3680 1 0.697531553873079 21.65336798170284 1.3540927054419551 0 1 1
3657 1 1.9059047917571506 23.19580916801747 3.164066540452361 1 -1 1
1822 1 29.154169094001904 7.503240284816984 0.2624645032533854 0 0 1
3353 1 5.084968252210418 23.199940443453187 1.8782392928912333 1 0 0
1922 1 9.524047714072982 22.552925452541597 1.1560464693296262 0 -1 0
3552 1 14.213884675627536 22.197652425693505 1.309267364423899 1 0 0
1351 1 24.84296946162923 20.070357613419006 16.37300274735063 0 0 1
1639 1 11.23650234059287 10.476643115671504 16.540234670208307 0 0 0
2747 1 21.472648998714583 22.24835588217938 2.586354282604346 -1 0 0
2576 1 29.108623953880308 24.510160912065047 1.8567652061284463 1 0 0
1038 1 25.956434222240468 20.97301464894625 2.247319876800834 0 0 1
926 1 40.30651945767142 16.717550311942702 0.3488376628919574 0 -1 1
3816 1 30.2033674566834 23.678050842641973 4.847953576636355 0 0 0
1320 1 49.34760264143078 0.3788010948796685 10.22233961646671 0 1 0
2500 1 47.78654925481811 23.555301252321275 14.50810171834371 -1 0 -1
151 1 37.34259170849637 22.826803293968236 2.2337205744512194 0 -1 0
3356 1 43.65805151037945 22.838216767531737 12.71538947681334 0 0 0
434 1 42.08872978330416 24.08794708224756 10.65968234224967 1 0 0
1721 1 47.12038646013452 0.7581720789191999 8.620193951294532 -1 1 1
221 1 30.832150476175553 21.928143565043772 1.5064379871043236 0 0 0
3872 1 47.679239647342214 24.689708408356548 3.850924912528249 -1 0 1
3067 1 27.908301934033933 3.4665173071902973 15.220969282862276 1 1 0
1912 1 35.23808749686181 24.41749974264592 1.7454107554249416 0 0 1
2546 1 8.298590085900308 1.9202467150385623 6.665256632254895 0 1 -1
1119 1 11.572054115268687 1.0897627844446562 3.755291512465173 0 1 0
1194 1 14.61828454456758 1.2970440296726322 7.534758444749223 0 0 1
2361 1 44.90529780119317 0.42881016629503577 16.38381206359294 0 0 0
3695 1 15.892263541849601 1.0423177516101498 3.663892926713606 0 0 1
1033 1 18.266130476932208 0.862815962206785 5.032628116645438 0 0 0
4032 1 22.216590051324108 3.6339367493887944 6.2694245988592145 0 1 1
749 1 48.056306755861556 23.24947387250173 10.415724104505959 0 -1 1
2571 1 26.769880264491615 23.113653385154237 0.8739147225376859 0 1 0
587 1 31.490730975191706 0.8745594745138631 6.62237067595256 0 0 -1
3846 1 37.57789304835744 1.8718616382913993 5.795077599015892 0 1 1
1182 1 40.48000242502591 2.088420123295062 5.1714971413743225 -1 1 0
1727 1 1.4120776323562694 23.699637789103328 13.233949155585357 1 -1 0
1790 1 12.069102818520772 24.01872970549797 1.433036851371016 0 0 1
1849 1 45.25211931593881 0.7092921774213411 4.814301351688658 0 1 0
2975 1 48.13687152587441 2.5261613241030414 1.8903182388044888 0 1 0
1921 1 50.009913689096926 1.327332432011052 3.811200427662928 -1 0 1
1615 1 4.054013667457857 3.4406713599771734 5.875476701468072 0 0 1
813 1 2.5295096805467514 5.54981100870313 5.578715209298879 1 0 0
299 1 6.707660426793456 4.208344183367569 6.773015272776176 1 0 0
1392 1 9.960760752197286 3.011449190043507 4.64370586211714 0 0 0
2749 1 11.706316146299457 4.101072060463598 6.649760559113379 1 1 1
2325 1 15.858058161028163 4.077621312336828 4.079383497990565 0 1 0
1155 1 14.514126693719346 3.8151414976381623 6.682886280528867 0 1 1
902 1 18.564529853486643 3.689885284534265 4.512993866952608 0 0 0
1218 1 19.231125499037983 4.4841995923039635 7.297864371023823 1 -1 0
2006 1 23.980907370476135 4.3043886831219265 4.2816267591982315 0 0 1
1110 1 26.530076619056015 3.219720275859397 4.349076722640345 0 0 1
1007 1 29.735529446393535 6.0805760268442866 3.9864499912880715 0 0 0
1010 1 30.81401443957726 0.7898217997701845 3.8270163185663084 0 0 1
3683 1 32.94587765395787 7.142188542906956 3.0571463667689396 0 1 1
3117 1 33.59098708210892 6.009054701565144 5.533328143611151 0 -1 0
651 1 34.69629109778837 2.7948512028146903 2.36875619782239 0 1 1
940 1 37.14865444256577 5.317477834921617 5.706716483754533 -1 0 0
549 1 39.6889775004047 4.271646047754852 6.780770033280757 0 0 0
4030 1 42.22383749525277 3.909625413070277 3.8782953393396 0 1 0
481 1 43.768391058966714 4.316377438890656 6.354704432167958 0 1 0
2081 1 46.479730878473724 2.974288755322794 6.4316649500016085 0 1 1
1158 1 49.263991710012476 2.5796407119043887 6.1955613784496535 -1 1 0
2575 1 49.51719010563352 5.227085232361716 5.391107028786891 1 0 0
1303 1 2.8487350895455283 11.212775156474336 3.514667684769965 0 0 1
2037 1 6.9687025209009565 6.848415118357623 5.726738686526915 1 1 1
2434 1 9.427551395384976 8.160002960501265 6.298312335870268 -1 1 0
3096 1 12.892832742101781 8.201830539392635 3.6861678809298235 0 -1 1
1424 1 11.814351987528276 6.837379759509489 5.808229947256481 1 1 1
3685 1 15.369964850288312 6.884544103400953 3.816682877250656 0 0 1
3686 1 19.849550790060043 10.179439041633723 5.912087873527659 1 1 0
4000 1 21.31392966064745 8.183615698972842 4.038754257172918 0 1 0
2292 1 27.799387224807877 8.060747541729839 6.620937048039489 0 1 1
3990 1 27.91057950340448 5.299402359290502 5.934627981798623 -1 1 1
4172 1 32.72071014415533 9.539535737304728 5.846137750270443 0 0 1
2035 1 40.97321276836229 6.923753692921531 6.180577889215556 0 0 1
1688 1 35.60124553821165 7.602830804042268 7.032764330224634 0 1 1
1091 1 46.81243574413867 5.340238586429372 4.412202130652474 0 1 1
3630 1 48.52423625206794 9.454840469115117 2.8667096090813713 0 0 1
2147 1 2.759125400955633 13.856342674027562 3.930834586210267 1 1 0
137 1 1.8415595327216856 9.741452568251107 5.771850917419491 1 0 0
1803 1 6.70766553977753 11.140937082906811 5.135637830276687 0 0 0
2790 1 5.271701253017929 10.192382028888535 2.9253684111443987 0 1 0
706 1 9.26126093066616 10.432660635467963 4.818508711897756 0 0 0
669 1 16.85873309913034 8.315843814928456 5.65592817925217 1 0 0
1766 1 13.751998363581622 12.004897992448202 6.445913320620144 0 0 0
2209 1 17.530799243642857 10.46891130686796 3.9286613255692417 0 1 0
287 1 23.793569702147835 8.606616270277474 5.213642556689204 1 0 -1
3068 1 26.52888526659854 8.880595025231337 4.120357604326992 1 1 1
69 1 28.81471897601319 9.911626989995229 8.33057402624896 1 0 -1
175 1 31.887227315932 12.322734570294312 5.476591629515007 1 0 1
520 1 36.35443584357359 10.105966949625513 6.358328075815325 -1 -1 0
794 1 38.21113074776078 10.104000355236344 4.241277993668953 -1 0 0
3692 1 40.72311054642425 9.968059618588871 5.823583720209522 0 0 1
1558 1 45.95675877893364 8.060399222824017 4.8884318028065055 -1 1 0
2027 1 48.13943080590607 11.81220256953989 4.984638366909442 0 -1 1
3041 1 49.326357454519126 11.194400752368812 7.387469624603028 0 1 0
3992 1 3.3510471649505678 15.292842678540632 1.8104672753897713 1 0 1
1487 1 6.514215460235823 13.731098189799713 4.31857374634178 1 0 1
247 1 5.9377509539890285 14.430889498335958 1.723798034192424 1 0 0
1514 1 10.949937894954575 12.334057079709972 5.885499654200119 1 0 0
3733 1 15.087310263989366 12.523058383350453 3.8961872136223343 0 1 0
1172 1 14.19891761781966 15.765105617492766 6.563823298532061 1 0 1
2047 1 17.78206520235843 13.151894921373282 5.02727988045117 -1 0 2
462 1 16.545077026420724 15.532279464167406 4.549361408291062 0 -1 -1
2409 1 20.28642438461328 12.679661697512307 3.506443134392137 0 0 0
1559 1 22.468062361973214 12.419016213416102 5.371098790881985 0 0 1
3539 1 22.42241191136379 15.151866784299209 6.3367187507284966 0 0 0
1326 1 26.571592217823728 11.781361352609581 4.397040301986283 0 0 1
2653 1 32.83422142329607 15.86199228940185 5.892360830540367 0 0 0
3347 1 36.01968725343294 12.736894151729759 6.839570334680941 0 0 0
2987 1 40.9372767387424 16.290119266723067 4.182504751191968 -1 1 1
3286 1 40.26540383721005 13.376340747436844 4.46209145590603 -1 0 0
2463 1 44.40595890280541 13.796290000065817 2.7108692008670014 -1 1 0
2149 1 46.037167365793636 13.652053183780076 5.0019738223142305 0 1 0
2600 1 0.9344137929594418 13.58464239515806 7.005296662390914 0 1 0
2537 1 13.027026879863648 15.748839633645458 3.9097104696841427 1 1 0
1474 1 17.066021689994425 17.670800568944298 6.270160910517437 0 0 1
2143 1 22.5927750629781 17.079500745743008 4.485408864567105 0 0 0
3193 1 24.687025457869282 15.615411915153663 3.1473962340586836 0 1 0
3003 1 27.038506404265004 16.527424664907716 3.925808434645817 0 0 0
1291 1 35.30798545116713 16.042882406905 4.228326380712331 -1 -1 0
1816 1 34.67098334700981 18.09524161905619 2.402047200928512 0 0 0
1588 1 39.51052055491659 17.935234050211136 5.917052299383941 1 0 0
2998 1 45.42274251079305 17.689262788932314 5.398481410877069 -1 1 0
1878 1 48.94146259418863 16.236044922052542 2.845842138197349 -1 0 1
3863 1 47.36106157877127 15.75819078611632 5.36133682778636 0 0 1
1031 1 2.527993919525739 21.038967883006176 4.923676512602281 0 0 1
1722 1 49.88386199370737 18.65253127310997 6.5279632632544935 0 -1 1
48 1 4.020033742907706 19.354815817865912 3.450435712124943 0 1 0
2451 1 7.791136643047687 19.112438721795346 3.5500693675920214 2 0 -1
2641 1 7.81085406596472 21.73837733091802 4.597680509335167 0 1 1
3404 1 12.633387219319289 18.919368785886483 3.5392943967828856 0 1 1
3607 1 12.189455652010665 21.060593694576582 5.049407405061684 1 0 1
336 1 16.068934121649786 22.20659093025572 3.3119719267920766 0 -1 1
1271 1 15.007946807621494 21.63055397551194 5.930782957437803 0 0 1
3328 1 18.78812605162614 19.520593197164533 4.652472656471803 1 0 0
3598 1 23.034315996363368 19.77120630295776 5.565446533105951 -1 0 0
2793 1 29.587520788336743 21.036659472761787 5.94414821121228 0 1 0
542 1 32.4617380065221 18.5258417042465 4.5419949106496995 0 0 0
2711 1 30.340482284350237 19.868660867781326 3.1911248706166626 0 0 0
3847 1 40.46812748292424 20.43432179006859 5.1980169991926894 0 0 1
22 1 44.05338641350025 22.653603012259385 4.344957400556992 -1 0 0
393 1 45.7742332419603 20.368386470031588 6.454912989543143 0 0 1
302 1 49.90177372730901 20.467303754399424 4.274904724777669 -1 0 0
3293 1 50.11136796383714 23.741908810519508 4.82143527111615 0 0 1
262 1 5.9167336951754 20.517947780560878 1.6454315042869487 0 0 -1
820 1 5.657420917618876 23.63474278240093 4.756261658254535 0 0 1
1098 1 10.209348561877814 22.48299858372532 4.090720729241998 0 0 0
1408 1 24.186633247775003 21.839835579216118 4.149814385073797 1 1 1
1343 1 25.518043211265816 23.501432864939037 6.0093098655890005 0 0 0
2666 1 32.19041061621021 18.476156919709936 0.8622900632196713 0 0 0
3012 1 37.43494628935344 12.48047479775244 15.799092074897612 0 0 0
3017 1 19.531390435334124 24.251229910711004 16.387030118598823 1 1 1
3344 1 1.4666878853883152 0.27441821308128245 15.744957758539673 0 1 1
2921 1 35.05458729529967 16.091115699395466 0.3305436387289877 0 0 0
632 1 15.292232907478013 17.029282145887187 15.726245955364329 0 0 0
2932 1 47.11808502565022 21.663688222032235 4.345374161470768 -1 0 0
1 1 49.70898158613485 8.418869749442653 15.954263172926378 0 0 0
3633 1 2.9790160370505308 1.3929508978385186 7.4690649718792335 1 1 1
2720 1 5.392111150909657 2.4060616831003765 9.194488530702877 1 0 0
455 1 8.353082543180129 1.8511100319682865 9.49422692679862 1 0 0
898 1 13.836187980779762 0.7782848746567694 10.092161512357567 1 0 0
263 1 17.099421011236593 0.49683219313631366 7.788554411575116 -1 0 0
2611 1 3.356987297179683 10.952804522949616 15.881563204868343 -1 1 0
3113 1 25.719411088305566 1.6256203904406288 11.370334775603652 0 1 0
2272 1 29.224791966600073 1.1817692406389009 8.352925166919348 0 1 0
389 1 44.768965590928175 22.67957764364918 16.307921352476942 0 0 0
4144 1 47.37173053926695 24.4995721594581 7.158169482709041 0 0 1
1144 1 35.04711195978256 3.463358551779288 5.334561424883952 0 1 0
473 1 41.11843200422231 11.511362931544074 0.684166031110387 0 -1 -1
3377 1 40.362272506046054 0.6105903107669938 9.24030708483803 -1 0 0
89 1 36.914898671355026 0.4074728393004998 10.983462983041433 -1 0 0
2999 1 42.309462354489845 1.8325798050062814 7.756762092424231 0 1 1
1655 1 44.80046124725555 1.8936847847605867 9.613170029350519 0 0 1
713 1 24.334562748202412 0.6025667666200201 3.1588075142726524 0 0 0
1223 1 0.5190308017102723 2.3519021862707987 8.611093092255567 0 0 0
3133 1 2.7973375953567206 3.3752399221359 10.181357562439567 1 0 1
10 1 5.958518908038449 5.677955989000301 9.298954901115028 1 0 0
1092 1 10.671107952104501 3.6390876649719903 9.104327357782363 1 -1 1
1708 1 19.05715554791108 2.2126234992216776 8.84905396692195 0 0 1
2382 1 23.642492222426558 3.00909073243663 8.390444311781794 1 1 0
2392 1 25.826608622132103 1.022139012667961 8.518537691615531 0 1 0
282 1 29.59467251254677 3.9930947900099376 7.874823777760402 -1 1 0
1791 1 32.32314904229167 4.931660875973105 8.29226923939249 0 0 0
3760 1 38.666740283044795 2.783881503962926 9.124776620742042 0 1 1
1167 1 41.47728547421993 4.822209380841329 8.900687515165123 -1 -1 0
2271 1 46.25509216574886 4.509646712970724 8.97068048557366 0 1 0
2388 1 49.19095456387361 4.674706463491537 9.24578673588882 -1 1 0
1698 1 2.2936037034071894 7.336667489373718 7.761908673592272 1 0 1
2776 1 5.043430453506341 7.761618439053611 7.519537732138368 0 1 0
3561 1 9.460294114586558 9.77898838230055 8.741850691259653 0 1 0
2128 1 13.314602770864925 7.499100446610843 7.9625598204027295 1 1 0
4073 1 15.260789615919615 5.647532277143877 8.547050630072698 -1 1 1
435 1 17.688688162676417 6.727749754823375 8.093415874352136 0 0 0
2055 1 21.24204157895576 6.509435096561469 8.36356176541356 1 1 0
3362 1 19.886431791274184 8.763243503873738 8.286766061592012 0 1 0
1772 1 24.94121353102737 6.034745125850735 6.066707055740741 1 0 1
3751 1 23.822498375053136 5.755030532688628 8.835067166054689 1 0 1
3105 1 26.348203149539348 7.119991712485171 8.908170895773171 0 1 0
3623 1 31.129518089527636 8.834176413449917 9.312513194987579 -1 0 0
756 1 32.25771415969491 4.790170625354307 11.516388188749845 0 0 1
2428 1 31.087041562787398 7.191205070386672 6.733020361726935 0 0 0
332 1 34.520111941069835 6.240586652714748 9.92970482134582 0 0 0
4164 1 43.66738737601781 7.103510645101015 6.4737718006915435 0 1 1
405 1 45.869619277783116 8.967355339675164 9.27315235404746 0 1 0
3702 1 49.51718749555445 7.021545466661282 7.552619911555655 0 0 0
1556 1 47.458041997586996 8.894090091649778 7.079894895988537 -1 0 0
1979 1 2.7249348423168755 11.390337917319837 7.8487627408942275 0 0 1
2638 1 5.5833610436934045 10.647444319052687 7.77567562968163 1 1 0
2359 1 9.894665928752431 12.30134824442036 8.465457697488679 1 1 0
2985 1 14.820171514010674 9.430092871105757 6.985019634842492 0 0 1
3661 1 15.978248068567645 9.44860169754633 9.306560725583225 -1 1 1
360 1 21.15555320365649 11.367878487214885 8.958687515400545 0 -1 0
2856 1 23.331108810262762 10.60853217384958 7.282261374717847 -1 1 0
2363 1 29.71462199533991 12.166553543738884 7.133445387013437 0 2 1
2847 1 32.76872105433248 12.427120785732257 10.708758745835162 -1 1 1
303 1 33.31186146935249 10.532420782567668 8.489237280570913 0 0 1
823 1 35.180061989686635 9.170216644696238 9.893475275432095 -1 0 0
589 1 37.882047504119406 10.092637516248963 9.847661558719208 1 0 0
1551 1 43.998773010327206 10.282188982451055 7.128179891303189 -1 0 1
2995 1 38.59164088273763 8.668777747855742 7.723908052853375 -1 0 0
2919 1 41.753727987623854 10.181657119760438 8.640357980708906 0 1 0
2788 1 1.9899706787708369 13.457025272968075 10.225068094654473 1 0 0
1938 1 0.22511577489497842 14.241566945330566 4.207254682234486 2 0 1
397 1 3.6233045900061818 14.843204574271741 8.22192127576615 0 -1 0
2239 1 8.423445093121629 15.180645267378948 5.799052045731372 1 1 0
2647 1 8.274441138795924 14.555170015943801 8.614413255710677 0 0 0
1668 1 14.82847819210543 13.825932627969584 8.398227505293466 0 -1 1
4107 1 16.748666354736937 12.455239654290532 9.387498033463828 -1 1 0
1286 1 18.799584656230152 12.488278928421177 7.566293760326509 0 0 1
2627 1 20.113638071340556 14.727087821031878 7.846264967234075 0 0 0
1602 1 25.63334326001656 11.70684510926472 8.344692207401318 0 -1 0
1452 1 27.35219215732274 13.00677968271432 6.761499901885138 -1 0 1
1013 1 30.548395927055495 16.760603437337114 7.190993040610998 -1 -1 0
1975 1 31.09219369403026 14.135290968423032 9.315271311115229 1 0 1
4072 1 33.76424394885989 13.90483740681711 7.8210404241485065 -1 1 1
1190 1 38.273237917607396 13.854428966379178 7.87684068377527 0 0 1
3351 1 40.647294069900774 12.67715601870843 7.121508679776 -1 0 0
304 1 42.9400021089725 14.167657812369127 7.974392458128287 0 0 0
4050 1 45.25784846053016 12.775898880414932 7.369108990670874 0 0 1
3215 1 47.61059064125215 12.63709376658331 9.03656333589747 -1 0 1
1801 1 0.47701756744256685 16.41378339254687 8.216784755036945 1 0 1
2241 1 4.479942185732394 15.106302900441637 5.637549796044327 2 1 0
1473 1 5.510984559754851 17.80272027930465 5.271015245857656 1 -1 2
1503 1 8.809886092446979 17.87625642566578 5.943473939340318 -1 -1 1
3883 1 12.739201394153108 17.56884309409609 8.062615741963526 1 0 0
248 1 18.471555303667966 16.904083733145686 8.527138852693176 0 0 0
1829 1 23.502179363306578 15.755883050286819 8.869280655322505 0 -1 1
2100 1 27.95704590634409 16.050963327177254 6.605492580648011 0 0 1
795 1 26.099052270997603 17.156081847391707 8.485102947471507 0 -1 0
3868 1 38.194119498383934 16.71308456164909 8.089945483160239 0 1 1
3352 1 35.89212755631415 17.67017514615885 6.819911017836309 0 0 0
1834 1 42.11815809039284 18.80440647776856 7.646231204653137 0 0 0
3631 1 43.2104074210815 16.36310503739897 6.171233029927079 0 0 1
1828 1 44.83139778608255 17.297952346280002 8.81501766156773 -1 0 1
896 1 47.54542754660827 17.502300932820763 9.691878594530273 0 0 1
1016 1 48.14779169909976 15.514230515489842 7.76213644030814 -1 -1 0
3764 1 1.9046084293198136 19.80078127122005 7.268515789773191 1 0 1
131 1 6.714205601064951 18.839528829393522 7.7484099871255205 1 0 0
2585 1 7.671313107777006 21.372206549989514 7.381670643612877 0 0 -1
4071 1 10.971317573077986 19.297041215024844 6.860309604553795 0 0 0
2984 1 10.183415858419266 21.181926009887647 8.582832749586176 1 1 1
1918 1 15.056068352792805 19.234828774411124 7.480048186860682 0 0 1
71 1 19.642014188991457 19.212081867645885 8.73043641299715 1 0 0
2021 1 20.51591825230149 20.277884827186128 6.376449858393439 1 -1 0
2456 1 25.28894713280656 19.599549214493265 7.303797172126983 0 0 1
4074 1 26.892493759975803 21.700300191558554 7.5865655002498595 0 0 1
2657 1 31.66446391370798 19.53517262611132 6.817320491832654 -1 -1 1
1418 1 29.577675858171418 21.2175497275981 9.100016625872557 0 0 0
1977 1 33.98084886899455 21.156252011268347 5.235499621206559 0 -1 0
1941 1 33.41223219087827 22.44435236201724 8.034076513287394 0 0 0
3941 1 36.488383923898 19.92806725921942 5.6470607481170685 0 0 1
3184 1 38.494604389888806 21.25756583397919 6.832961605533024 -1 0 2
1852 1 42.10148714966722 21.23371144572076 9.622163475358997 0 0 1
3038 1 42.76136105532626 21.577458944944734 6.596764366446551 0 1 0
47 1 47.958299266385374 19.655066090581876 8.103021204456313 1 0 0
2698 1 3.5362098696465485 23.64111033789551 6.211105928424364 1 -1 0
2118 1 1.4697844326758966 22.641652926076944 8.487350303291551 1 0 0
2846 1 5.566174952390952 22.978069400240816 8.268714186967536 1 1 0
1847 1 11.15791926347257 23.719630213983997 8.344076907115458 -1 0 1
2594 1 13.72863604345502 23.905132564123083 9.539129421081944 -1 0 0
2286 1 15.619453694385589 23.712858328508744 7.787188297941882 0 1 1
410 1 18.0214697071578 23.002477123598702 9.061583320876812 0 0 0
158 1 20.253084039432757 22.883866132156825 7.1560498766683445 1 0 1
805 1 23.943942295302545 24.634925259504552 8.441599405015369 0 0 1
3462 1 32.685937214748485 5.753829086154284 15.91847104677792 0 0 0
150 1 26.999065357636365 24.647557385714958 8.762142510222809 0 0 0
2615 1 5.494289413757372 0.03570034037990147 11.116109956912078 1 1 0
3930 1 38.27003991875332 23.708324365815283 6.6273160138953875 0 0 1
2217 1 40.13051447408634 5.34264696285804 16.226998027353325 0 0 0
4106 1 5.0653930810470085 5.82192918243366 0.1946635032091787 2 0 1
54 1 49.37186839629394 22.331711468406176 7.198688059633737 0 1 0
1226 1 28.021281660170086 10.40817274121173 0.2863994045887676 -1 1 0
665 1 7.816433955021723 3.68780535627133 11.397026721095449 0 0 0
1369 1 12.2644014520524 2.847964142638623 10.783081055885665 1 0 1
965 1 16.50051725370054 1.0085843882615575 10.978115073537042 1 0 1
2507 1 21.60449473066387 1.618880643696429 9.548991142020387 -1 1 0
4054 1 19.594118388099478 2.4277726923263634 13.808942838658423 0 1 0
292 1 23.064113335705937 1.6866818852193293 11.835118814047776 0 1 0
3135 1 43.91330012746992 1.1026708601717827 0.2778288001715636 -1 1 1
3020 1 29.151404806446394 1.9777149428820109 13.113189032243985 0 1 0
2041 1 30.582173094399852 0.993859446280398 10.945014826490103 0 0 1
3032 1 32.98231872925627 2.2573637212436233 10.454332465043969 0 1 0
2752 1 34.8708324934742 1.8731346156678588 12.327734574206467 0 1 0
2568 1 37.984689529290335 14.818041496038548 0.2766685237440472 0 1 0
1187 1 40.77971095026499 3.680710786700497 11.467146787509227 0 0 0
561 1 44.91184758512319 1.3483690925487335 12.132959548526985 -1 1 0
491 1 47.12933746783626 21.341119633579737 15.933133556963295 -1 0 0
976 1 1.2342437525107792 2.725332547899429 12.490191400052469 1 0 0
265 1 7.534495218924167 6.9409475432019345 10.934260249910055 0 0 0
830 1 10.257464272651086 5.924717732536936 10.745835590977789 1 0 0
2479 1 13.116339970950118 6.630742710119243 12.122305265906805 0 1 1
3864 1 14.389607124701431 4.574624466983136 10.941567688532137 0 1 0
3878 1 16.307694910330884 4.475182262070167 12.569245350215914 1 0 1