
# Set production fixes - Nose/Hoover
#
fix                 2 all nvt temp ${TEMP} ${TEMP} ${TDAMP}
fix                 2 all nvt temp 225 ${TEMP} ${TDAMP}
fix                 2 all nvt temp 225 225 ${TDAMP}
fix                 2 all nvt temp 225 225 1000.0

# compute order parameter
compute             2 all orientorder/atom nnn NULL cutoff 3.5
compute             3 all stress/atom NULL
compute        p all reduce sum c_3[1] c_3[2] c_3[3]
variable       press equal -(c_p[1]+c_p[2]+c_p[3])/(3*180000.0)


# Run 0.5ns simulation
thermo              200
thermo_style        custom step temp press vol etotal ke pe c_1[4] density v_press
dump		        1 all custom 400 prod.${NAME}.dump id type x y z vx vy vz c_2[*] c_3[*]
dump		        1 all custom 400 prod.slab_225K_1atm.dump id type x y z vx vy vz c_2[*] c_3[*]
run                 100000
Neighbor list info ...
  update every 1 steps, delay 0 steps, check yes
  max neighbors/atom: 2000, page size: 100000
  master list distance cutoff = 6.0032907
  ghost atom cutoff = 6.0032907
  binsize = 3.0016454, bins = 17 17 34
  2 neighbor lists, perpetual/occasional/extra = 1 1 0
  (1) pair sw, perpetual
      attributes: full, newton on
      pair build: full/bin/atomonly
      stencil: full/bin/3d
      bin: standard
  (2) compute orientorder/atom, occasional, copy from (1)
      attributes: full, newton on
      pair build: copy
      stencil: none
      bin: none
Per MPI rank memory allocation (min/avg/max) = 7.458 | 7.469 | 7.475 Mbytes
Step Temp Press Volume TotEng KinEng PotEng c_1[4] Density v_press 
       0    223.93816   -244.79403    250045.08   -55239.366    3885.6171   -59124.984    113.47351    0.6965258   -340.05302 
     200    229.51736   -79.621545    250045.08   -55291.521    3982.4234   -59273.945     114.1227    0.6965258   -110.60542 
     400    229.32119   -127.57374    250045.08   -55397.161    3979.0196    -59376.18    114.29227    0.6965258    -177.2177 
     600     222.5291   -135.28744    250045.08   -55450.772    3861.1681    -59311.94    114.42789    0.6965258    -187.9331 
     800    226.95374   -172.78222    250045.08   -55478.883    3937.9414   -59416.825    114.92563    0.6965258   -240.01858 
    1000    226.26203   -400.47301    250045.08   -55533.195    3925.9393   -59459.134    115.46103    0.6965258   -556.31281 
    1200    219.17325   -4.6357933    250045.08    -55605.74    3802.9398    -59408.68    115.79086    0.6965258   -6.4397628 
    1400    225.35794   -149.10231    250045.08   -55645.366    3910.2522   -59555.618    116.02686    0.6965258   -207.12388 
    1600    222.58147   -24.020449    250045.08   -55692.836    3862.0769   -59554.913    116.24166    0.6965258    -33.36775 
    1800    221.70204   -83.068607    250045.08   -55779.384    3846.8176   -59626.201    116.69735    0.6965258   -115.39387 
    2000    221.43607   -197.03194    250045.08   -55747.438    3842.2027    -59589.64    117.47099    0.6965258   -273.70482 
    2200    227.63318    226.96485    250045.08   -55663.775    3949.7304   -59613.505     117.7014    0.6965258    315.28581 
    2400    225.64642   -66.609024    250045.08   -55628.036    3915.2577   -59543.293    117.71657    0.6965258   -92.529216 
    2600    228.08322   -124.79202    250045.08   -55613.059    3957.5393   -59570.599    117.79155    0.6965258   -173.35351 
    2800    225.37208    -127.4126    250045.08   -55638.091    3910.4975   -59548.588    117.69768    0.6965258   -176.99386 
    3000    221.31228   -39.353525    250045.08   -55715.048    3840.0548   -59555.103    118.07464    0.6965258    -54.66753 
    3200    221.11112   -71.808549    250045.08   -55737.631    3836.5643   -59574.195    118.51728    0.6965258   -99.752081 
    3400    223.19253   -150.87001    250045.08   -55626.377    3872.6795   -59499.057    118.83063    0.6965258   -209.57947 
    3600    227.39409   -274.89899    250045.08    -55564.96     3945.582   -59510.541    119.15836    0.6965258   -381.87301 
    3800    223.52491   -136.10823    250045.08   -55520.421    3878.4467   -59398.868    119.23016    0.6965258   -189.07329 
    4000    225.33686   -229.64808    250045.08   -55474.203    3909.8865   -59384.089    119.69337    0.6965258   -319.01319 
    4200     226.4606   -117.68471    250045.08    -55409.51    3929.3847   -59338.895    120.49961    0.6965258   -163.48046 
    4400    228.03141   -71.750653    250045.08   -55326.695    3956.6403   -59283.335    120.99788    0.6965258   -99.671655 
    4600    226.46361   -276.76459    250045.08   -55300.236    3929.4371   -59229.673    121.49441    0.6965258   -384.46459 
    4800    222.87294   -218.64373    250045.08    -55394.86    3867.1343   -59261.994    121.94088    0.6965258   -303.72661 
    5000    224.24965    17.873366    250045.08   -55474.591    3891.0219   -59365.613    122.79507    0.6965258    24.828596 
    5200    222.94138    17.316403    250045.08   -55528.413    3868.3217   -59396.735    123.55654    0.6965258    24.054897 
    5400    225.40746    54.092953    250045.08   -55580.217    3911.1113   -59491.328    123.95414    0.6965258     75.14265 
    5600    224.47107   -106.99853    250045.08   -55617.629    3894.8638   -59512.492     124.7502    0.6965258   -148.63587 
    5800    221.35315   -21.517583    250045.08   -55659.865    3840.7639   -59500.629    125.06787    0.6965258   -29.890921 
    6000    223.23889   -148.00929    250045.08   -55660.637    3873.4839   -59534.121    125.51612    0.6965258   -205.60552 
    6200    226.38949   -61.961846    250045.08   -55556.813    3928.1509   -59484.964    125.61621    0.6965258   -86.073638 
    6400     225.0276   -124.02278    250045.08   -55512.486    3904.5204   -59417.007    125.81747    0.6965258   -172.28493 
    6600    225.16785   -61.413022    250045.08   -55504.866    3906.9538   -59411.819    126.43857    0.6965258   -85.311245 
    6800    224.78145   -122.16578    250045.08   -55485.916    3900.2493   -59386.165    126.56219    0.6965258    -169.7053 
    7000    229.31491    3.5626785    250045.08   -55393.976    3978.9108   -59372.887    127.52859    0.6965258    4.9490568 
    7200     227.5824   -220.90978    250045.08   -55342.131    3948.8495    -59290.98     127.7454    0.6965258   -306.87447 
    7400    226.41457    -97.39302    250045.08   -55366.301     3928.586   -59294.887    128.96078    0.6965258   -135.29248 
    7600    222.82864   -195.36099    250045.08    -55456.32    3866.3655   -59322.685    129.71167    0.6965258   -271.38364 
    7800    223.62337   -27.121206    250045.08   -55496.703    3880.1551   -59376.858    130.34953    0.6965258   -37.675134 
    8000    221.65296   -28.796887    250045.08   -55474.764     3845.966    -59320.73     130.3521    0.6965258   -40.002888 
    8200    225.47407    -130.7847    250045.08   -55417.098    3912.2672   -59329.365    130.80196    0.6965258   -181.67817 
    8400    225.76818   -159.41635    250045.08   -55375.813    3917.3703   -59293.184    131.34959    0.6965258   -221.45152 
    8600    228.12391   -106.64477    250045.08   -55307.178    3958.2454   -59265.423     131.5438    0.6965258   -148.14444 
    8800    229.88693    76.025621    250045.08   -55245.596    3988.8359   -59234.432    131.45325    0.6965258    105.61018 
    9000    227.21075    -178.2806    250045.08    -55275.84    3942.4007    -59218.24    132.06688    0.6965258    -247.6566 
    9200    227.64563   -233.42164    250045.08   -55399.508    3949.9466   -59349.454    131.85033    0.6965258   -324.25518 
    9400    219.78809   -254.20877    250045.08    -55460.86     3813.608   -59274.468    132.51558    0.6965258    -353.1314 
    9600     224.2203   -113.08594    250045.08   -55483.077    3890.5126   -59373.589    132.97731    0.6965258   -157.09213 
    9800    222.69066   -372.36886    250045.08   -55475.957    3863.9714   -59339.929    133.26519    0.6965258   -517.27223 
   10000    227.64978   -81.109979    250045.08   -55396.978    3950.0186   -59346.997    134.08159    0.6965258   -112.67306 
   10200    227.28257    98.778922    250045.08   -55329.548    3943.6469   -59273.194     134.8159    0.6965258    137.21769 
   10400     225.3871   -150.94713    250045.08   -55332.038    3910.7581   -59242.796    135.01622    0.6965258    -209.6866 
   10600    223.50432    -114.3387    250045.08   -55372.047    3878.0894   -59250.137    135.47761    0.6965258   -158.83239 
   10800    221.69805   -63.901198    250045.08   -55487.516    3846.7483   -59334.265    136.04743    0.6965258   -88.767668 
   11000    223.13449   -229.43049    250045.08   -55507.623    3871.6724   -59379.295      136.686    0.6965258   -318.71091 
   11200    225.38815    37.697909    250045.08   -55451.933    3910.7764   -59362.709    137.47098    0.6965258    52.367648 
   11400    226.39897   -115.69028    250045.08   -55392.482    3928.3153   -59320.797    137.83209    0.6965258   -160.70992 
   11600    229.10918   -91.632591    250045.08   -55376.536    3975.3411   -59351.877    138.72412    0.6965258   -127.29044 
   11800    227.12074   -29.654098    250045.08   -55444.163    3940.8391   -59385.002    139.26286    0.6965258   -41.193674 
   12000    224.63569   -180.95331    250045.08   -55524.587    3897.7201   -59422.307    139.64091    0.6965258   -251.36936 
   12200    221.59562    180.01652    250045.08   -55504.182    3844.9711   -59349.153    140.27764    0.6965258    250.06803 
   12400    224.15216    49.349056    250045.08   -55466.866    3889.3304   -59356.196     140.5421    0.6965258    68.552715 
   12600    225.60529   -190.61502    250045.08   -55427.758    3914.5439   -59342.302    140.73818    0.6965258   -264.79082 
   12800    226.61081    15.895603    250045.08   -55373.842     3931.991   -59305.833    141.30634    0.6965258    22.081208 
   13000    225.23903      394.541    250045.08   -55263.489    3908.1889   -59171.678     141.4058    0.6965258    548.07243 
   13200    230.26392   -289.07713    250045.08   -55253.896    3995.3773   -59249.273    142.25095    0.6965258   -401.56842 
   13400    222.92004    -118.3561    250045.08   -55348.509    3867.9515   -59216.461    142.75163    0.6965258   -164.41311 
   13600    221.33072   -46.061231    250045.08   -55409.899    3840.3747   -59250.274    143.53928    0.6965258   -63.985468 
   13800    222.04966   -123.42255    250045.08   -55453.065    3852.8493   -59305.914    143.83303    0.6965258   -171.45113 
   14000     219.8214   -230.61552    250045.08   -55460.188    3814.1861   -59274.374    144.20487    0.6965258   -320.35709 
   14200    224.49212    81.814336    250045.08   -55357.007    3895.2291   -59252.236    144.58733    0.6965258    113.65151 
   14400    226.12554   -193.85556    250045.08   -55315.888     3923.571   -59239.459    144.71761    0.6965258   -269.29239 
   14600    225.88907   -251.67844    250045.08   -55319.253    3919.4679   -59238.721    145.74957    0.6965258   -349.61642 
   14800    226.07372   -95.422551    250045.08   -55340.047    3922.6719   -59262.719    145.89999    0.6965258   -132.55522 
   15000    225.43031   -17.264779    250045.08   -55364.511    3911.5079   -59276.019     146.2847    0.6965258   -23.983184 
   15200    225.77922   -11.199236    250045.08   -55352.589     3917.562   -59270.151    146.93092    0.6965258     -15.5573 
   15400    225.67473    79.043549    250045.08   -55285.925    3915.7489   -59201.673    147.70769    0.6965258     109.8025 
   15600    225.30782   -83.733426    250045.08   -55259.618    3909.3825   -59169.001    148.12807    0.6965258    -116.3174 
   15800    226.82716   -83.743494    250045.08   -55268.332    3935.7451   -59204.077    148.16994    0.6965258   -116.33138 
   16000    222.81921    90.664277    250045.08   -55352.869    3866.2019   -59219.071    148.66169    0.6965258    125.94531 
   16200    224.44411   -110.32271    250045.08   -55384.601    3894.3961   -59278.997    149.27175    0.6965258   -153.25362 
   16400    224.97849    58.859019    250045.08   -55359.701    3903.6682   -59263.369    149.17406    0.6965258    81.763379 
   16600    231.52947    48.130952    250045.08   -55262.748    4017.3362   -59280.084    149.04117    0.6965258    66.860599 
   16800    230.62357    45.223973    250045.08    -55250.09    4001.6177   -59251.707    149.52833    0.6965258    62.822401 
   17000    226.12242   -80.137918    250045.08   -55352.927    3923.5168   -59276.443    149.92033    0.6965258   -111.32273 
   17200    225.57744   -73.646972    250045.08   -55379.408    3914.0607   -59293.468    150.68964    0.6965258   -102.30591 
   17400    224.21505    35.235633    250045.08   -55389.702    3890.4215   -59280.124    150.93552    0.6965258    48.947204 
   17600    228.63086   -224.99003    250045.08    -55369.98    3967.0415   -59337.022    151.98856    0.6965258    -312.5425 
   17800    228.85649   -67.375426    250045.08   -55351.216    3970.9565   -59322.172    152.64118    0.6965258   -93.593855 
   18000    224.54524   -157.96769    250045.08   -55404.667    3896.1508   -59300.818    153.14164    0.6965258   -219.43913 
   18200    224.21573    85.392411    250045.08   -55483.262    3890.4334   -59373.695    153.93238    0.6965258    118.62196 
   18400    222.14787    54.406312    250045.08   -55484.398    3854.5533   -59338.951    154.56755    0.6965258    75.577948 
   18600    220.91032   -429.93325    250045.08   -55404.283    3833.0801   -59237.363    154.46928    0.6965258   -597.23719 
   18800    224.25365    26.281643    250045.08   -55333.914    3891.0913   -59225.005    155.25963    0.6965258    36.508864 
   19000    226.91022    122.24137    250045.08   -55350.954    3937.1862   -59288.141    155.87005    0.6965258     169.8103 
   19200     225.1188   -87.519722    250045.08    -55404.23    3906.1028   -59310.332     156.7256    0.6965258   -121.57709 
   19400    221.64967   -222.12487    250045.08   -55473.206    3845.9088   -59319.115    157.53383    0.6965258    -308.5624 
   19600     227.9112   -89.100508    250045.08   -55494.877    3954.5545   -59449.431    157.78784    0.6965258   -123.77302 
   19800    220.25011   -126.93845    250045.08   -55478.509    3821.6247   -59300.134    158.46924    0.6965258    -176.3352 
   20000    225.60707    70.066928    250045.08   -55334.184    3914.5749   -59248.759     159.1941    0.6965258    97.332726 
   20200    228.09159    211.80881    250045.08   -55320.399    3957.6846   -59278.083    158.90893    0.6965258    294.23195 
   20400    225.31775   -115.88443    250045.08   -55392.121    3909.5549   -59301.676    158.89083    0.6965258   -160.97963 
   20600    228.49098   -263.10413    250045.08   -55473.811    3964.6145   -59438.426    158.94417    0.6965258   -365.48829 
   20800      222.247   -283.42453    250045.08   -55497.863    3856.2733   -59354.137    158.81284    0.6965258   -393.71616 
   21000     223.1394    26.812017    250045.08    -55476.12    3871.7575   -59347.878    158.84937    0.6965258    37.245628 
   21200    225.08395    62.374758    250045.08   -55382.825    3905.4981   -59288.323    158.83064    0.6965258    86.647231 
   21400    229.52513   -193.69702    250045.08   -55324.035    3982.5583   -59306.594    159.38112    0.6965258   -269.07216 
   21600    229.14129   -33.364863    250045.08   -55353.144    3975.8981   -59329.042    160.13142    0.6965258   -46.348444 
   21800    229.55771   -104.15975    250045.08   -55406.477    3983.1236     -59389.6    160.82071    0.6965258    -144.6924 
   22000    228.21501   -69.663254    250045.08    -55450.86     3959.826   -59410.686    161.23987    0.6965258   -96.771968 
   22200    223.82903   -16.475742    250045.08   -55486.295    3883.7236   -59370.018    162.11511    0.6965258   -22.887101 
   22400     222.8511   -160.36671    250045.08   -55517.808    3866.7552   -59384.563    162.57218    0.6965258    -222.7717 
   22600    222.64994   -58.883623    250045.08   -55523.938    3863.2648   -59387.202    162.65317    0.6965258   -81.797557 
   22800     226.2691      16.3335    250045.08    -55442.46    3926.0619   -59368.522    163.29053    0.6965258    22.689508 
   23000    225.73981   -257.62922    250045.08   -55376.935    3916.8781   -59293.813    163.54835    0.6965258   -357.88289 
   23200    227.88241   -305.84772    250045.08   -55421.402    3954.0551   -59375.458    164.41795    0.6965258    -424.8651 
   23400    227.01836    100.88979    250045.08   -55495.638    3939.0626     -59434.7    164.89579    0.6965258    140.14998 
   23600    225.17656   -186.40631    250045.08   -55521.945    3907.1049    -59429.05    164.83063    0.6965258   -258.94435 
   23800    222.98279    10.405008    250045.08   -55496.772    3869.0403   -59365.812    165.50913    0.6965258    14.454006 
   24000    228.15675   -46.198557    250045.08   -55454.747    3958.8151   -59413.563    165.86076    0.6965258   -64.176233 
   24200    229.26423    -184.9147    250045.08   -55365.545    3978.0313   -59343.576    166.35752    0.6965258   -256.87228 
   24400    226.77022   -136.21355    250045.08   -55269.896     3934.757   -59204.653    166.40181    0.6965258   -189.21961 
   24600    223.69036    -223.7574    250045.08   -55310.726    3881.3174   -59192.044    166.89181    0.6965258   -310.83021 
   24800    222.96977   -192.61714    250045.08   -55393.957    3868.8144   -59262.772    167.50305    0.6965258   -267.57205 
   25000    226.74517   -51.250035    250045.08   -55455.887    3934.3224   -59390.209    167.97455    0.6965258    -71.19344 
   25200    220.82728   -84.462047    250045.08   -55491.428    3831.6393   -59323.067    168.24241    0.6965258   -117.32955 
   25400    221.94995   -169.03433    250045.08   -55505.235    3851.1191   -59356.354    168.81327    0.6965258   -234.81224 
   25600    227.05797    -79.10029    250045.08   -55449.553      3939.75   -59389.303    169.60408    0.6965258   -109.88132 
   25800    230.24771   -8.2869583    250045.08   -55333.694     3995.096    -59328.79    170.30651    0.6965258    -11.51174 
   26000    229.62666   -117.56184    250045.08   -55337.791    3984.3199   -59322.111     170.8847    0.6965258   -163.30977 
   26200     223.8284   -233.96021    250045.08    -55402.94    3883.7127   -59286.652    171.51515    0.6965258   -325.00333 
   26400    226.88969   -42.372166    250045.08   -55474.015    3936.8299   -59410.845    171.79489    0.6965258   -58.860843 
   26600    225.24947   -173.43311    250045.08   -55506.224    3908.3701   -59414.594    171.51161    0.6965258   -240.92276 
   26800    226.28818    21.869548    250045.08   -55501.753     3926.393   -59428.146    172.18789    0.6965258     30.37985 
   27000    226.46777    199.64149    250045.08   -55491.753    3929.5091   -59421.263    172.43604    0.6965258    277.32985 
   27200    227.06569    66.631923    250045.08   -55500.724    3939.8839   -59440.608    173.03336    0.6965258    92.561026 
   27400    225.39352   -82.590483    250045.08    -55535.07    3910.8695    -59445.94    173.93086    0.6965258   -114.72969 
   27600    222.76065    63.401169    250045.08   -55564.311    3865.1858   -59429.497    175.04527    0.6965258    88.073059 
   27800    225.06565    45.036037    250045.08    -55526.37    3905.1806   -59431.551    175.82168    0.6965258     62.56133 
   28000    227.73669   -161.92523    250045.08   -55425.519    3951.5265   -59377.045    176.21351    0.6965258    -224.9367 
   28200    226.69743   -144.74907    250045.08   -55399.961     3933.494   -59333.455    176.39416    0.6965258   -201.07663 
   28400    226.46597   -49.009342    250045.08   -55418.535    3929.4779   -59348.013    177.13364    0.6965258   -68.080806 
   28600    224.59257   -178.14763    250045.08   -55471.018    3896.9721    -59367.99    178.28849    0.6965258   -247.47188 
   28800    222.96196   -174.62396    250045.08   -55563.826    3868.6789   -59432.505    178.49387    0.6965258   -242.57701 
   29000    221.10047   -64.902876    250045.08   -55578.518    3836.3795   -59414.897    178.81975    0.6965258   -90.159139 
   29200    227.58852   -67.513038    250045.08   -55533.164    3948.9556    -59482.12    178.88757    0.6965258   -93.785018 
   29400    229.81096   -114.47298    250045.08   -55421.264    3987.5178   -59408.782    179.48217    0.6965258   -159.01892 
   29600    230.14911    250.40178    250045.08   -55429.976    3993.3851   -59423.361    179.68822    0.6965258    347.84296 
   29800     226.0874    130.45237    250045.08   -55521.983    3922.9092   -59444.892    179.98234    0.6965258    181.21652 
   30000    224.33371   -80.457447    250045.08   -55564.535    3892.4804   -59457.016    180.97922    0.6965258    -111.7666 
   30200    220.36502   -285.83031    250045.08   -55567.387    3823.6186   -59391.005    181.20692    0.6965258   -397.05814 
   30400    228.06146   -22.660715    250045.08   -55546.272    3957.1617   -59503.433    181.22942    0.6965258    -31.47889 
   30600    224.74739   -51.659708    250045.08   -55520.218    3899.6583   -59419.876    181.82703    0.6965258   -71.762533 
   30800    226.07985   -115.42998    250045.08   -55440.429    3922.7782   -59363.207    182.28895    0.6965258   -160.34833 
   31000    228.04292    20.472907    250045.08   -55407.644      3956.84   -59364.484    182.53711    0.6965258    28.439721 
   31200    223.58641    -137.3035    250045.08   -55460.758    3879.5139   -59340.272    182.64617    0.6965258   -190.73369 
   31400    222.34611   -168.40833    250045.08   -55553.972     3857.993   -59411.965     183.2806    0.6965258   -233.94263 
   31600    222.33483   -156.50978    250045.08   -55596.693    3857.7973    -59454.49    183.52569    0.6965258    -217.4139 
   31800    224.07218    31.268573    250045.08   -55564.792    3887.9425   -59452.735    183.80882    0.6965258    43.436405 
   32000    226.26957   -108.51687    250045.08   -55518.218    3926.0702   -59444.288    184.35781    0.6965258   -150.74506 
   32200     228.4921   -3.8849157    250045.08   -55468.893     3964.634   -59433.527    184.44078    0.6965258   -5.3966892 
   32400    223.17119   -14.033669    250045.08   -55443.917    3872.3093   -59316.227     185.0156    0.6965258   -19.494721 
   32600    223.57727   -34.900788    250045.08   -55402.269    3879.3552   -59281.624    185.98523    0.6965258   -48.482058 
   32800    229.67909   -147.32384    250045.08   -55319.447    3985.2297   -59304.677    186.30729    0.6965258   -204.65334 
   33000    227.81713    4.9921703    250045.08   -55332.781    3952.9223   -59285.703    186.96973    0.6965258    6.9348201 
   33200    223.33877    106.84262    250045.08   -55445.395     3875.217   -59320.612    186.99978    0.6965258    148.41929 
   33400    227.85429   -97.511824    250045.08   -55498.698    3953.5671   -59452.265    187.26241    0.6965258   -135.45751 
   33600    222.20103    20.215168    250045.08   -55523.936    3855.4757   -59379.412    187.72953    0.6965258    28.081685 
   33800    224.69908   -392.04459    250045.08     -55491.6    3898.8201    -59390.42    187.86927    0.6965258   -544.60456 
   34000    224.01459    38.380819    250045.08    -55394.46    3886.9433   -59281.403    188.49481    0.6965258    53.316305 
   34200    226.35158   -193.11482    250045.08   -55351.987    3927.4932    -59279.48    188.75617    0.6965258   -268.26339 
   34400    227.39541   -221.94866    250045.08   -55362.561    3945.6049   -59308.166    189.04237    0.6965258   -308.31761 
   34600    223.44972   -124.55965    250045.08   -55413.814     3877.142   -59290.956    189.94157    0.6965258   -173.03071 
   34800    220.27566   -178.46699    250045.08   -55442.407    3822.0681   -59264.475    189.90501    0.6965258   -247.91552 
   35000    225.51776   -121.94804    250045.08     -55429.8    3913.0253   -59342.826    190.35153    0.6965258   -169.40281 
   35200    225.06431    22.302097    250045.08   -55411.799    3905.1573   -59316.956    190.78682    0.6965258     30.98072 
   35400    222.12949   -237.48365    250045.08   -55407.188    3854.2344   -59261.422     192.2012    0.6965258   -329.89788 
   35600    224.19026   -44.491407    250045.08   -55382.805    3889.9915   -59272.796    192.11012    0.6965258   -61.804764 
   35800    228.10575     41.97832    250045.08   -55303.169    3957.9303     -59261.1    192.47258    0.6965258    58.313735 
   36000    225.91246    73.797026    250045.08   -55241.676    3919.8738    -59161.55    192.78005    0.6965258    102.51435 
   36200    229.30311   -176.22941    250045.08   -55277.529    3978.7059   -59256.235     193.2517    0.6965258   -244.80721 
   36400    228.25245   -108.03137    250045.08   -55381.411    3960.4756   -59341.886    193.93182    0.6965258   -150.07063 
   36600    228.00695   -7.8390607    250045.08   -55412.897     3956.216   -59369.113    194.32177    0.6965258   -10.889548 
   36800     224.2593    -260.5606    250045.08   -55423.359    3891.1893   -59314.548    194.81383    0.6965258   -361.95498 
   37000    225.12072   -165.38043    250045.08   -55400.725    3906.1362   -59306.861    195.59773    0.6965258   -229.73646 
   37200    224.56191    7.6686407    250045.08   -55373.507    3896.4401   -59269.947    195.98865    0.6965258    10.652811 
   37400    225.84631   -36.834564    250045.08   -55350.746     3918.726   -59269.472    196.28037    0.6965258   -51.168342 
   37600    227.03143   -84.090675    250045.08   -55381.333    3939.2894   -59320.622    196.82095    0.6965258   -116.81366 
   37800    224.09459   -235.01544    250045.08   -55468.661    3888.3314   -59356.993    197.13242    0.6965258   -326.46919 
   38000    225.49139    157.36773    250045.08   -55507.156    3912.5677   -59419.724    198.19373    0.6965258     218.6057 
   38200    222.07054   -155.62572    250045.08   -55531.062    3853.2115   -59384.274    198.62308    0.6965258   -216.18581 
   38400    221.95023   -170.26979    250045.08   -55560.931     3851.124   -59412.055    199.49549    0.6965258   -236.52847 
   38600    225.18256    78.550973    250045.08    -55552.23    3907.2092   -59459.439     199.0304    0.6965258    109.11825 
   38800    226.50354   -141.10158    250045.08   -55460.937    3930.1298   -59391.067    200.19967    0.6965258   -196.00975 
   39000    227.42784   -73.591071    250045.08   -55398.347    3946.1676   -59344.515    200.85317    0.6965258   -102.22825 
   39200     227.4378   -71.970056    250045.08   -55354.167    3946.3405   -59300.507    200.96791    0.6965258   -99.976437 
   39400     224.9066    42.319699    250045.08   -55333.326    3902.4209   -59235.747    201.66765    0.6965258    58.787959 
   39600    226.29409    163.43348    250045.08   -55442.762    3926.4956   -59369.258    201.59655    0.6965258    227.03187 
   39800     222.2439   -82.723873    250045.08   -55496.792    3856.2195   -59353.012    201.47225    0.6965258   -114.91499 
   40000    220.95005   -63.856179    250045.08   -55499.179    3833.7696   -59332.949    201.99793    0.6965258    -88.70513 
   40200     223.3431   -65.424107    250045.08   -55432.835    3875.2921   -59308.127     202.2678    0.6965258   -90.883202 
   40400     225.4487    -313.1634    250045.08   -55358.839     3911.827   -59270.666    202.36393    0.6965258    -435.0276 
   40600    227.26962    48.509847    250045.08   -55361.798    3943.4223    -59305.22    203.37533    0.6965258    67.386937 
   40800    226.23612   -111.85937    250045.08   -55413.042    3925.4897   -59338.532    203.41868    0.6965258   -155.38825 
   41000    226.20519   -45.856547    250045.08   -55455.775    3924.9531   -59380.729    203.42723    0.6965258   -63.701133 
   41200    223.67625   -58.656964    250045.08   -55509.652    3881.0726   -59390.724    203.56472    0.6965258   -81.482696 
   41400    223.77189    -153.2831    250045.08   -55507.991    3882.7321   -59390.724    203.72031    0.6965258   -212.93159 
   41600    223.89072   -106.61113    250045.08   -55420.567     3884.794   -59305.361    204.31295    0.6965258   -148.09772 
   41800    229.95058    270.32688    250045.08   -55336.917    3989.9404   -59326.857    204.70773    0.6965258     375.5217 
   42000    224.72602    -207.0226    250045.08   -55361.247    3899.2876   -59260.534    205.18361    0.6965258   -287.58324 
   42200    224.49357   -288.82284    250045.08   -55388.844    3895.2543   -59284.098    205.89943    0.6965258   -401.21517 
   42400    224.48778    -37.31175    250045.08   -55343.785    3895.1538   -59238.938    206.62911    0.6965258    -51.83122 
   42600    228.36674   -77.445536    250045.08    -55251.92    3962.4588   -59214.378    206.35749    0.6965258   -107.58264 
   42800    228.06323   -188.11921    250045.08   -55244.724    3957.1925   -59201.916    206.84299    0.6965258    -261.3238 
   43000    228.53751    49.703197    250045.08   -55285.051    3965.4218   -59250.473    206.93809    0.6965258    69.044667 
   43200    221.08736   -4.4889026    250045.08   -55333.024    3836.1521   -59169.176    207.44046    0.6965258   -6.2357112 
   43400    227.21665   -423.41075    250045.08   -55357.727    3942.5031    -59300.23    207.96896    0.6965258   -588.17654 
   43600    229.00259    186.97509    250045.08   -55383.676    3973.4916   -59357.168     208.5855    0.6965258    259.73446 
   43800    223.29306   -181.86765    250045.08   -55452.298    3874.4238   -59326.721    209.34328    0.6965258    -252.6395 
   44000    222.51096   -66.080685    250045.08   -55518.239    3860.8533   -59379.092     209.7615    0.6965258   -91.795279 
   44200    220.48596   -33.796813    250045.08   -55589.204     3825.717   -59414.921    210.88046    0.6965258   -46.948482 
   44400    219.98019   -131.33002    250045.08   -55597.057    3816.9412   -59413.998    210.88878    0.6965258   -182.43569 
   44600    221.90787   -100.18844    250045.08   -55474.124     3850.389   -59324.513    211.32231    0.6965258   -139.17571 
   44800    226.58884    9.8917349    250045.08   -55430.253    3931.6098   -59361.863    211.93811    0.6965258    13.740998 
   45000    227.52429   -322.07297    250045.08   -55404.655    3947.8412   -59352.497    212.03407    0.6965258   -447.40424 
   45200     226.4012   -207.33132    250045.08   -55396.396    3928.3541    -59324.75    212.33298    0.6965258    -288.0121 
   45400    225.50865   -184.57024    250045.08   -55411.827    3912.8671   -59324.694    212.21761    0.6965258   -256.39379 
   45600    221.83641    36.646636    250045.08   -55418.317    3849.1491   -59267.466    213.34275    0.6965258    50.907285 
   45800    221.86503    97.463267    250045.08   -55379.756    3849.6456   -59229.402    213.75979    0.6965258    135.39006 
   46000     232.0338   -133.43306    250045.08   -55308.139    4026.0869   -59334.226    213.79329    0.6965258   -185.35711 
   46200    227.10693   -9.1475133    250045.08    -55300.99    3940.5995    -59241.59    214.96133    0.6965258   -12.707171 
   46400    226.06173   -34.162289    250045.08    -55402.84    3922.4639   -59325.304    215.17062    0.6965258    -47.45618 
   46600    225.44349   -15.502936    250045.08   -55454.047    3911.7366   -59365.783    215.28042    0.6965258   -21.535738 
   46800    223.91477   -78.681649    250045.08   -55417.706    3885.2113   -59302.917     215.9381    0.6965258   -109.29977 
   47000    227.53214    37.393098    250045.08   -55355.841    3947.9773   -59303.819    216.30453    0.6965258    51.944223 
   47200     225.9713   -107.50789    250045.08    -55359.98    3920.8948   -59280.875     217.2335    0.6965258   -149.34344 
   47400    224.64541    28.187493    250045.08    -55445.45    3897.8889   -59343.339    217.30544    0.6965258    39.156356 
   47600    223.38763   -72.214384    250045.08   -55537.536    3876.0647   -59413.601    218.44852    0.6965258   -100.31584 
   47800    223.16067     -195.804    250045.08   -55508.205    3872.1267   -59380.331    218.85162    0.6965258   -271.99904 
   48000    226.79621    186.54757    250045.08    -55461.11     3935.208   -59396.318    219.62972    0.6965258    259.14057 
   48200     225.5385    46.525871    250045.08   -55452.818    3913.3851   -59366.203    220.56873    0.6965258    64.630919 
   48400    225.76466   -104.35567    250045.08   -55431.029    3917.3093   -59348.338    220.73656    0.6965258   -144.96457 
   48600    224.44707   -99.081298    250045.08    -55377.57    3894.4474   -59272.017    221.50647    0.6965258   -137.63773 
   48800    225.62722   -83.536083    250045.08   -55338.615    3914.9245    -59253.54    221.08809    0.6965258   -116.04326 
   49000    228.83777    -114.5267    250045.08   -55411.945    3970.6317   -59382.576    221.22592    0.6965258   -159.09354 
   49200    226.11421   -60.884529    250045.08   -55493.946    3923.3744   -59417.321    221.45286    0.6965258   -84.577095 
   49400    223.43224   -305.59075    250045.08   -55524.216    3876.8387   -59401.055    222.19947    0.6965258   -424.50813 
   49600    225.79087    109.01169    250045.08   -55548.091    3917.7641   -59465.855    222.52224    0.6965258    151.43243 
   49800    222.50238   -325.41587    250045.08   -55624.272    3860.7045   -59484.977    223.10922    0.6965258   -452.04798 
   50000    225.38642   -79.860348    250045.08     -55677.5    3910.7463   -59588.247     223.8588    0.6965258   -110.93715 
   50200     222.5366   -67.872181    250045.08   -55616.219    3861.2982   -59477.517    224.58596    0.6965258   -94.283917 
   50400    229.41671   -281.80615    250045.08   -55508.816    3980.6771   -59489.493    225.50612    0.6965258   -391.46801 
   50600     225.9054   -42.589967    250045.08   -55522.602    3919.7513   -59442.353    225.60309    0.6965258   -59.163399 
   50800    223.98902   -284.60152    250045.08   -55584.487    3886.4997   -59470.987    226.24024    0.6965258   -395.35117 
   51000    224.05592   -201.20809    250045.08   -55606.624    3887.6604   -59494.284    226.29593    0.6965258   -279.50607 
   51200    225.07655    35.360967    250045.08   -55548.538    3905.3697   -59453.908     226.6045    0.6965258    49.121311 
   51400      227.096   -192.76628    250045.08   -55454.628    3940.4097   -59395.038    227.65497    0.6965258   -267.77922 
   51600    228.29744    31.650304    250045.08   -55458.653    3961.2563    -59419.91    227.75067    0.6965258    43.966682 
   51800      228.104   -367.37367    250045.08   -55514.912    3957.8998   -59472.812    228.00976    0.6965258   -510.33322 
   52000    222.97091   -128.87919    250045.08   -55571.395    3868.8341   -59440.229    228.23576    0.6965258   -179.03116 
   52200    222.76427    21.132016    250045.08   -55568.979    3865.2486   -59434.227     229.1972    0.6965258    29.355315 
   52400    227.26885   -139.12073    250045.08   -55541.295    3943.4089   -59484.704    229.16517    0.6965258   -193.25808 
   52600    222.66171   -154.94576    250045.08   -55489.935    3863.4691   -59353.404    230.17329    0.6965258   -215.24126 
   52800    230.45253   -17.993305    250045.08   -55419.418      3998.65   -59418.068    230.42909    0.6965258   -24.995207 
   53000    229.60512    12.677884    250045.08   -55358.022    3983.9463   -59341.968    230.98829    0.6965258    17.611347 
   53200    227.58636   -152.75261    250045.08   -55402.836    3948.9181   -59351.755    231.69795    0.6965258   -212.19466 
   53400    224.75761    -302.3831    250045.08   -55501.274    3899.8357    -59401.11    231.75506    0.6965258   -420.05227 
   53600    225.50644    207.73383    250045.08   -55523.042    3912.8289   -59435.871    231.79372    0.6965258    288.57124 
   53800    224.48004   -151.55395    250045.08   -55498.481    3895.0195     -59393.5    232.00223    0.6965258   -210.52955 
   54000    227.46513   -58.538161    250045.08   -55398.622    3946.8146   -59345.436    232.64856    0.6965258   -81.317663 
   54200    227.16289    6.2997411    250045.08   -55360.948    3941.5705   -59302.518    232.64978    0.6965258    8.7512182 
   54400    228.59086   -68.025718    250045.08   -55383.441    3966.3475   -59349.789    232.40143    0.6965258   -94.497201 
   54600    225.23003    76.802631    250045.08   -55430.695    3908.0328   -59338.728    232.89686    0.6965258    106.68956 
   54800    222.74935   -189.59568    250045.08   -55487.643    3864.9897   -59352.632    233.33204    0.6965258   -263.37482 
   55000    221.30557   -52.943264    250045.08   -55593.716    3839.9382   -59433.654    233.91179    0.6965258    -73.54557 
   55200    223.37816   -163.37705    250045.08   -55615.639    3875.9004   -59491.539    233.40927    0.6965258   -226.95349 
   55400    225.88491   -216.10856    250045.08   -55565.308    3919.3957   -59484.704    233.83437    0.6965258    -300.2049 
   55600    222.40029    87.450554    250045.08   -55532.949    3858.9331   -59391.882    233.77749    0.6965258    121.48101 
   55800    228.68345   -321.63705    250045.08    -55491.61    3967.9541   -59459.564    234.09369    0.6965258   -446.79869 
   56000    226.87298   -32.790651    250045.08   -55477.241    3936.5401   -59413.782    234.51017    0.6965258   -45.550783 
   56200    224.27652     160.4027    250045.08   -55574.011    3891.4881   -59465.499    235.20234    0.6965258     222.8217 
   56400     221.9825   -173.20883    250045.08   -55629.516    3851.6839     -59481.2    236.10668    0.6965258    -240.6112 
   56600    222.60647   -57.181839    250045.08   -55595.415    3862.5107   -59457.925    236.29575    0.6965258   -79.433542 
   56800    226.44588   -31.218539    250045.08   -55527.441    3929.1293   -59456.571    236.55806    0.6965258     -43.3669 
   57000    227.23253   -159.34933    250045.08   -55515.016    3942.7788   -59457.795    237.06003    0.6965258   -221.35842 
   57200    224.97174   -23.344722    250045.08   -55538.438    3903.5512   -59441.989    236.99274    0.6965258   -32.429072 
   57400    226.50891   -144.72373    250045.08   -55590.332    3930.2229   -59520.555    237.99617    0.6965258   -201.04143 
   57600    225.93949     21.10946    250045.08   -55626.016    3920.3428   -59546.358    238.11332    0.6965258    29.323981 
   57800    223.59321   -64.506376    250045.08   -55612.922    3879.6318   -59492.554     238.5788    0.6965258   -89.608344 
   58000    223.83456   -156.80348    250045.08   -55568.406    3883.8196   -59452.225    238.44936    0.6965258   -217.82188 
   58200    226.48659    -102.0079    250045.08   -55514.405    3929.8358   -59444.241    239.40974    0.6965258   -141.70319 
   58400    229.18208     -399.009    250045.08    -55461.82     3976.606   -59438.426    240.40052    0.6965258    -554.2791 
   58600    227.62522    85.195708    250045.08   -55390.704    3949.5923   -59340.297    240.94322    0.6965258    118.34871 
   58800    225.46599   -62.826391    250045.08   -55461.911     3912.127   -59374.038    241.18759    0.6965258   -87.274611 
   59000    227.00753   -115.06346    250045.08   -55552.639    3938.8747   -59491.514    241.24018    0.6965258   -159.83918 
   59200    221.35494   -25.271892    250045.08   -55581.141    3840.7949   -59421.936    242.03462    0.6965258    -35.10618 
   59400     223.0156   -36.677596    250045.08   -55560.743    3869.6095   -59430.353    243.16019    0.6965258   -50.950291 
   59600     228.9876   -132.71336    250045.08   -55489.431    3973.2315   -59462.662    244.22072    0.6965258   -184.35736 
   59800    227.77778    -137.1966    250045.08   -55420.604    3952.2395   -59372.844    245.82819    0.6965258   -190.58519 
   60000    225.68849    71.513772    250045.08   -55421.394    3915.9876   -59337.382    246.34832    0.6965258    99.342595 
   60200    223.83951   -12.068509    250045.08   -55502.615    3883.9054    -59386.52    247.33803    0.6965258   -16.764841 
   60400    221.40388   -18.824932    250045.08   -55539.593    3841.6441   -59381.238    248.56101    0.6965258   -26.150453 
   60600    221.08702   -73.435866    250045.08   -55521.019    3836.1462   -59357.166    248.65691    0.6965258   -102.01265 
   60800    222.11582   -134.47596    250045.08   -55484.821    3853.9971   -59338.818    249.32657    0.6965258   -186.80584 
   61000     222.1979   -97.067392    250045.08   -55424.455    3855.4214   -59279.876    249.42277    0.6965258   -134.84013 
   61200    224.19588    41.048539    250045.08   -55401.805     3890.089   -59291.894     250.0144    0.6965258     57.02214 
   61400    227.14664   -44.802145    250045.08    -55482.58    3941.2884   -59423.869    250.39113    0.6965258   -62.236423 
   61600    221.91214   -127.96235    250045.08   -55554.878     3850.463   -59405.341     250.0112    0.6965258   -177.75753 
   61800    226.23416   -48.336531    250045.08   -55534.144    3925.4557     -59459.6    249.91638    0.6965258   -67.146177 
   62000    223.68139   -224.47079    250045.08   -55491.273    3881.1619   -59372.435    250.19371    0.6965258    -311.8212 
   62200    226.63392  -0.86520757    250045.08   -55424.774     3932.392   -59357.166    250.30138    0.6965258   -1.2018939 
   62400    227.52384   -252.79946    250045.08    -55353.37    3947.8334   -59301.204    250.84236    0.6965258   -351.17367 
   62600    226.65935   -152.76309    250045.08   -55332.935    3932.8333   -59265.768    251.12737    0.6965258   -212.20922 
   62800    225.30903    28.018955    250045.08   -55437.372    3909.4035   -59346.775    251.81291    0.6965258    38.922232 
   63000    223.33686   -102.32011    250045.08   -55509.926    3875.1839    -59385.11    251.61208    0.6965258   -142.13689 
   63200    224.77784    212.85591    250045.08   -55509.178    3900.1866   -59409.365    251.98521    0.6965258    295.68651 
   63400    227.35181   -167.06426    250045.08   -55453.781    3944.8483   -59398.629    252.65496    0.6965258   -232.07554 
   63600     230.7733   -108.33353    250045.08   -55409.387    4004.2157   -59413.603    253.09262    0.6965258   -150.49037 
   63800    224.81391    28.564754    250045.08   -55452.319    3900.8125   -59353.131    253.90581    0.6965258    39.680424 
   64000    225.13064    89.260884    250045.08   -55556.188    3906.3081   -59462.496    254.16804    0.6965258    123.99581 
   64200    222.44546   -55.300902    250045.08   -55580.273    3859.7169   -59439.989    254.84409    0.6965258   -76.820659 
   64400    225.07956    -302.3808    250045.08   -55517.977    3905.4219   -59423.399    255.88704    0.6965258   -420.04907 
   64600    227.64461   -3.5313289    250045.08   -55445.686    3949.9288   -59395.615    256.81759    0.6965258    -4.905508 
   64800    225.89115   -52.362945    250045.08   -55442.019     3919.504   -59361.523    257.54297    0.6965258   -72.739427 
   65000    227.24033    -321.4915    250045.08    -55461.54    3942.9141   -59404.455    259.09143    0.6965258   -446.59649 
   65200    223.71473    -132.7551    250045.08   -55496.289    3881.7404   -59378.029    259.84747    0.6965258   -184.41534 
   65400    225.38798   -59.366703    250045.08   -55557.533    3910.7733   -59468.307    260.31442    0.6965258   -82.468623 
   65600    224.87121   -84.576483    250045.08   -55608.334    3901.8069   -59510.141    260.49041    0.6965258   -117.48852 
   65800    221.18771   -192.78483    250045.08   -55595.565    3837.8932   -59433.459    261.21344    0.6965258   -267.80499 
   66000    225.48113   -115.07642    250045.08   -55492.708    3912.3897   -59405.098    261.36335    0.6965258   -159.85718 
   66200    226.44717   -37.717103    250045.08   -55449.996    3929.1517   -59379.148    262.07903    0.6965258   -52.394312 
   66400    226.80802   -358.74244    250045.08   -55461.862    3935.4129   -59397.275    262.44453    0.6965258   -498.34324 
   66600    226.95148  -0.52868852    250045.08   -55482.587    3937.9021   -59420.489    263.35562    0.6965258  -0.73442202 
   66800    221.68061   -210.91827    250045.08   -55528.825    3846.4456   -59375.271    263.65451    0.6965258   -292.99487 
   67000    222.45421   -74.842123    250045.08   -55573.888    3859.8688   -59433.757    264.26898    0.6965258   -103.96614 
   67200    226.40711   -124.92331    250045.08   -55525.302    3928.4566   -59453.759    264.89216    0.6965258   -173.53588 
   67400    224.09556    -105.5294    250045.08   -55436.832    3888.3482    -59325.18    265.62764    0.6965258   -146.59504 
   67600    224.80527   -185.93257    250045.08   -55400.745    3900.6625   -59301.407    265.19148    0.6965258   -258.28625 
   67800    229.34857   -76.122023    250045.08   -55396.018    3979.4948   -59375.513    265.44013    0.6965258    -105.7441 
   68000    225.74593   -213.51595    250045.08    -55470.76    3916.9844   -59387.744    265.78814    0.6965258    -296.6034 
   68200    225.34149     -96.5303    250045.08   -55521.533    3909.9668     -59431.5    266.18228    0.6965258   -134.09404 
   68400    226.02386   -143.27287    250045.08   -55530.845    3921.8067   -59452.651    266.06293    0.6965258   -199.02598 
   68600    227.51955    60.190308    250045.08   -55539.365    3947.7589   -59487.124    266.39066    0.6965258    83.612725 
   68800     221.5955    -80.01258    250045.08   -55552.273     3844.969   -59397.242    266.32091    0.6965258   -111.14862 
   69000    225.73043    58.591568    250045.08   -55521.738    3916.7154   -59438.453    266.42554    0.6965258    81.391853 
   69200    223.86978   -38.724142    250045.08    -55452.78    3884.4307    -59337.21     266.4741    0.6965258   -53.793229 
   69400     225.2533    199.29323    250045.08   -55417.289    3908.4365   -59325.725    267.44037    0.6965258    276.84607 
   69600    227.32947   -430.29252    250045.08   -55450.083    3944.4607   -59394.544     268.5911    0.6965258   -597.73628 
   69800    223.73136   -64.629514    250045.08   -55560.735     3882.029   -59442.764    268.73559    0.6965258     -89.7794 
   70000    224.68789    3.8320671    250045.08   -55578.261     3898.626   -59476.887    269.03737    0.6965258    5.3232751 
   70200    222.64961   -57.818771    250045.08   -55552.198    3863.2591   -59415.457    269.90935    0.6965258    -80.31833 
   70400     229.9363   -21.473935    250045.08   -55464.715    3989.6927   -59454.407    269.69262    0.6965258   -29.830288 
   70600    228.12279   -273.93526    250045.08   -55424.508    3958.2259   -59382.734     270.1766    0.6965258   -380.53425 
   70800    224.60522   -307.66901    250045.08   -55481.653    3897.1915   -59378.845    270.72499    0.6965258   -427.39513 
   71000    221.18165    -211.2029    250045.08   -55612.859    3837.7882   -59450.647    270.48876    0.6965258   -293.39026 
   71200     223.1897    90.036352    250045.08   -55615.749    3872.6304   -59488.379    270.83562    0.6965258    125.07304 
   71400     224.3768   -21.757516    250045.08   -55557.943    3893.2281   -59451.171    270.64016    0.6965258   -30.224222 
   71600    225.69148   -190.18793    250045.08   -55483.021    3916.0396    -59399.06    271.02776    0.6965258   -264.19754 
   71800    224.56851   -111.32506    250045.08   -55423.223    3896.5545   -59319.778    271.58756    0.6965258   -154.64602 
   72000    226.90871   -10.125052    250045.08    -55389.84    3937.1601       -59327    271.68015    0.6965258   -14.065108 
   72200    225.02947   -43.699444    250045.08   -55399.788    3904.5528    -59304.34    271.72474    0.6965258   -60.704617 
   72400    225.04229   -122.82365    250045.08    -55440.51    3904.7752   -59345.286     272.3867    0.6965258   -170.61917 
   72600    227.62983    13.204835    250045.08   -55475.147    3949.6724   -59424.819    273.21519    0.6965258    18.343356 
   72800    225.99509    126.80061    250045.08   -55484.913    3921.3075   -59406.221     273.7716    0.6965258    176.14372 
   73000    223.93458   -118.23828    250045.08   -55489.184    3885.5551   -59374.739    274.63657    0.6965258   -164.24945 
   73200    227.85117   -57.454115    250045.08   -55468.581    3953.5129   -59422.094    275.11787    0.6965258   -79.811772 
   73400    224.49194   -115.18267    250045.08   -55428.328    3895.2259   -59323.554    275.76552    0.6965258   -160.00478 
   73600    231.80477   -31.095628    250045.08   -55375.475     4022.113   -59397.588    276.47215    0.6965258    -43.19616 
   73800    226.41411    38.107111    250045.08   -55447.143    3928.5781   -59375.721    277.13251    0.6965258    52.936087 
   74000    226.27765    39.520575    250045.08    -55536.28    3926.2104    -59462.49    277.54459    0.6965258    54.899586 
   74200    224.93689   -148.11363    250045.08   -55564.683    3902.9465    -59467.63     278.2569    0.6965258   -205.75046 
   74400    222.45474   -377.74912    250045.08   -55567.847    3859.8779   -59427.724    279.38866    0.6965258   -524.74617 
   74600    222.49067    147.80744    250045.08   -55567.305    3860.5013   -59427.806    280.26775    0.6965258    205.32513 
   74800    223.62458   -12.624436    250045.08   -55616.323    3880.1762     -59496.5    280.36821    0.6965258     -17.5371 
   75000    221.43117   -129.31162    250045.08   -55662.738    3842.1177   -59504.855    280.91253    0.6965258   -179.63185 
   75200      223.104   -61.847868    250045.08   -55600.255    3871.1435   -59471.399    281.70095    0.6965258   -85.915307 
   75400    221.22812    -123.2105    250045.08   -55505.176    3838.5944    -59343.77    281.47238    0.6965258   -171.15655 
   75600    224.30362   -11.666807    250045.08   -55473.686    3891.9583   -59365.644    281.67933    0.6965258   -16.206821 
   75800    229.68065   -77.850895    250045.08   -55464.209    3985.2568   -59449.466    281.79094    0.6965258   -108.14574 
   76000    223.76041    41.120089    250045.08   -55502.748     3882.533   -59385.281    282.01876    0.6965258    57.121533 
   76200    221.49683   -391.98133    250045.08   -55552.464     3843.257    -59395.72    282.15369    0.6965258   -544.51669 
   76400    226.89913   -98.897665    250045.08   -55566.273    3936.9939   -59503.267    282.60144    0.6965258   -137.38264 
   76600    223.55811   -4.5505783    250045.08   -55502.837    3879.0228    -59381.86    283.29814    0.6965258   -6.3213873 
   76800    224.45287   -262.72732    250045.08   -55408.126    3894.5481   -59302.675     283.5518    0.6965258   -364.96485 
   77000     223.9936    118.18022    250045.08    -55383.87    3886.5791    -59270.45     284.0412    0.6965258    164.16879 
   77200    226.71371   -46.725979    250045.08     -55422.1    3933.7765   -59355.877    284.67984    0.6965258   -64.908896 
   77400    225.09931    146.86078    250045.08   -55512.658    3905.7647   -59418.423    285.07869    0.6965258    204.01009 
   77600    221.96182    -53.10556    250045.08   -55539.635    3851.3251    -59390.96    285.44758    0.6965258   -73.771022 
   77800    222.72484   -176.77421    250045.08   -55501.204    3864.5645   -59365.769    285.71587    0.6965258     -245.564 
   78000    224.18595    -187.8668    250045.08   -55447.279    3889.9166   -59337.195    285.93177    0.6965258   -260.97317 
   78200    227.60348    196.32181    250045.08   -55403.356    3949.2151   -59352.572    286.32626    0.6965258    272.71836 
   78400    228.35153   -48.586196    250045.08   -55441.969    3962.1948   -59404.164    286.68524    0.6965258   -67.492996 
   78600    226.54704   -198.13722    250045.08   -55548.084    3930.8847   -59478.968     287.3824    0.6965258   -275.24021 
   78800    225.11107   -212.79379    250045.08   -55562.292    3905.9686   -59468.261    287.74764    0.6965258   -295.60022 
   79000    223.50124    25.453346    250045.08   -55526.157    3878.0361   -59404.193    288.22026    0.6965258    35.358244 
   79200    223.53676   -228.25829    250045.08   -55453.186    3878.6523   -59331.838    288.58513    0.6965258   -317.08256 
   79400    229.53237    43.268777    250045.08   -55409.398     3982.684   -59392.082    288.92901    0.6965258    60.106361 
   79600    225.38051   -37.131805    250045.08   -55423.425    3910.6438   -59334.069    289.19034    0.6965258   -51.581252 
   79800    226.97337   -139.69698    250045.08   -55458.369     3938.282   -59396.651    289.31776    0.6965258   -194.05857 
   80000    224.35645    74.553843    250045.08   -55568.997     3892.875   -59461.872    289.21376    0.6965258    103.56568 
   80200    223.01656   -179.07792    250045.08   -55584.701    3869.6263   -59454.327     290.3835    0.6965258   -248.76419 
   80400    222.78925   -116.29343    250045.08    -55536.94    3865.6821   -59402.622    290.33238    0.6965258   -161.54779 
   80600    225.55636   -75.642649    250045.08    -55446.97    3913.6949   -59360.665    291.70146    0.6965258   -105.07818 
   80800    222.45177   -99.324615    250045.08   -55418.672    3859.8263   -59278.499    291.77634    0.6965258   -137.97573 
   81000    223.49633   -406.85209    250045.08   -55430.776    3877.9508   -59308.727    292.82263    0.6965258   -565.17424 
   81200    225.24266   -210.06217    250045.08   -55431.159     3908.252   -59339.411    293.35239    0.6965258   -291.80563 
   81400    227.08642    70.248441    250045.08   -55421.114    3940.2435   -59361.357    293.28979    0.6965258    97.584874 
   81600    226.59347    98.766467    250045.08   -55360.831    3931.6902   -59292.521    293.61696    0.6965258    137.20038 
   81800     226.5915   -173.90634    250045.08   -55322.467     3931.656   -59254.123    294.03202    0.6965258   -241.58014 
   82000    225.78564   -63.122943    250045.08    -55364.14    3917.6733   -59281.813    293.67255    0.6965258   -87.686563 
   82200    221.94019   -312.53221    250045.08   -55447.311    3850.9498   -59298.261    294.66882    0.6965258    -434.1508 
   82400    222.85914    -274.7924    250045.08   -55479.967    3866.8947   -59346.861     295.0349    0.6965258   -381.72493 
   82600     224.2282    149.28011    250045.08   -55466.913    3890.6497   -59357.563    295.42651    0.6965258    207.37088 
   82800    221.47751   -42.615216    250045.08   -55434.379    3842.9217   -59277.301    295.70929    0.6965258   -59.198474 
   83000    227.02042   -94.166546    250045.08   -55416.382    3939.0984   -59355.481    295.38809    0.6965258   -130.81045 
   83200    222.94874   -325.28243    250045.08   -55412.663    3868.4494   -59281.113    295.58639    0.6965258   -451.86262 
   83400    224.22724   -155.05777    250045.08   -55383.511    3890.6331   -59274.144    296.05192    0.6965258   -215.39686 
   83600    227.91927    71.400949    250045.08   -55315.818    3954.6946   -59270.512    296.99024    0.6965258    99.185868 
   83800    227.45015   -213.76786    250045.08   -55307.516    3946.5548   -59254.071    297.68182    0.6965258   -296.95334 
   84000    226.70908   -406.38047    250045.08   -55416.745    3933.6961   -59350.441    298.04248    0.6965258    -564.5191 
   84200    222.75954   -140.85675    250045.08   -55487.875    3865.1665   -59353.041    297.97948    0.6965258   -195.66965 
   84400    221.80026   -56.335332    250045.08   -55496.629    3848.5218   -59345.151    298.78878    0.6965258   -78.257626 
   84600    224.21012    64.733324    250045.08   -55503.135     3890.336   -59393.471    299.41255    0.6965258    89.923608 
   84800    225.73407   -177.73755    250045.08   -55511.133    3916.7785   -59427.911     299.5882    0.6965258   -246.90222 
   85000    223.34205   -110.06914    250045.08   -55444.934    3875.2739   -59320.208    299.38139    0.6965258   -152.90137 
   85200     228.9564   -37.846886    250045.08   -55387.865    3972.6901   -59360.555     299.7821    0.6965258   -52.574598 
   85400    222.72379   -62.438053    250045.08   -55424.434    3864.5463    -59288.98    300.35926    0.6965258   -86.735156 
   85600    222.11529   -341.24622    250045.08   -55522.308    3853.9881   -59376.296    300.88227    0.6965258   -474.03855 
   85800    222.08608   -316.46275    250045.08   -55526.751    3853.4811   -59380.232    301.31133    0.6965258   -439.61086 
   86000    222.28287   -47.633583    250045.08   -55486.369    3856.8957   -59343.265    301.18274    0.6965258   -66.169685 
   86200    223.30712   -149.41901    250045.08   -55455.641    3874.6678   -59330.309    301.31005    0.6965258   -207.56383 
   86400    228.73636    50.663704    250045.08   -55410.865    3968.8721   -59379.737      301.882    0.6965258    70.378945 
   86600    227.03758    -8.260713    250045.08   -55316.593    3939.3962   -59255.989    302.70045    0.6965258   -11.475282 
   86800    227.97734   -304.10807    250045.08   -55282.396    3955.7022   -59238.098    302.96774    0.6965258   -422.44848 
   87000    225.49323   -269.91309    250045.08   -55294.476    3912.5996   -59207.076    303.37841    0.6965258    -374.9469 
   87200    224.85296   -79.197425    250045.08   -55340.296    3901.4901   -59241.786     303.9931    0.6965258   -110.01626 
   87400    223.44108   -88.387113    250045.08   -55422.673    3876.9921   -59299.665    304.74258    0.6965258   -122.78202 
   87600    220.90328   -283.44942    250045.08   -55449.903    3832.9581   -59282.861      305.324    0.6965258   -393.75074 
   87800    224.27963   -51.953462    250045.08   -55429.546    3891.5422   -59321.088    306.19861    0.6965258   -72.170598 
   88000    226.18922    21.673666    250045.08   -55406.684     3924.676    -59331.36    305.80926    0.6965258    30.107742 
   88200    227.20771   -236.08593    250045.08   -55422.944     3942.348   -59365.292     305.3379    0.6965258   -327.95625 
   88400     221.5691    -52.18758    250045.08   -55518.088    3844.5109   -59362.599     306.3023    0.6965258   -72.495821 
   88600    221.79818     14.21555    250045.08   -55535.045    3848.4857   -59383.531    306.40035    0.6965258     19.74738 
   88800    224.17318   -117.97632    250045.08   -55441.731     3889.695   -59331.426    306.07776    0.6965258   -163.88554 
   89000    230.62358    -41.72623    250045.08   -55415.652    4001.6178    -59417.27    307.12254    0.6965258   -57.963548 
   89200    228.98834   -3.5527689    250045.08   -55445.135    3973.2443   -59418.379    308.01288    0.6965258    -4.935291 
   89400    224.42979   -96.834854    250045.08   -55522.117    3894.1476   -59416.265    308.50796    0.6965258   -134.51711 
   89600    222.91891   -150.61015    250045.08   -55557.219    3867.9318   -59425.151    309.89783    0.6965258   -209.21848 
   89800    221.65541   -150.52961    250045.08   -55537.272    3846.0085    -59383.28     310.2721    0.6965258   -209.10661 
   90000    225.27204   -6.7021807    250045.08   -55499.587    3908.7616   -59408.349    310.98205    0.6965258    -9.310263 
   90200    224.03333   -322.15569    250045.08   -55476.354    3887.2685   -59363.623     311.7472    0.6965258   -447.51914 
   90400    226.40553    127.35788    250045.08   -55424.728    3928.4292   -59353.157      312.012    0.6965258    176.91784 
   90600    228.25877    24.951488    250045.08   -55340.266    3960.5853   -59300.851    312.64402    0.6965258    34.661094 
   90800    230.30252   -3.8652169    250045.08   -55334.899     3996.047   -59330.946    313.64819    0.6965258   -5.3693249 
   91000    228.12886    71.733634    250045.08   -55461.453    3958.3313   -59419.784    314.01482    0.6965258    99.648013 
   91200    225.31222    30.529793    250045.08   -55516.985    3909.4588   -59426.444    314.31196    0.6965258    42.410136 
   91400    225.28762   -131.20474    250045.08   -55560.366     3909.032   -59469.398    314.59893    0.6965258   -182.26167 
   91600     226.8326    71.993309    250045.08   -55555.303    3935.8395   -59491.142    314.99882    0.6965258    100.00874 
   91800    226.03363   -15.833298    250045.08   -55486.725    3921.9762   -59408.701    315.48595    0.6965258   -21.994658 
   92000    225.39093   -101.28071    250045.08    -55409.76    3910.8245   -59320.584    316.03768    0.6965258   -140.69301 
   92200    225.61508   -77.385274    250045.08   -55401.269    3914.7139   -59315.983    315.80833    0.6965258   -107.49893 
   92400    229.33659   -41.663869    250045.08   -55454.403    3979.2868    -59433.69     316.1528    0.6965258   -57.876919 
   92600    226.98604      -211.45    250045.08   -55489.641    3938.5018   -59428.143    316.39215    0.6965258   -293.73352 
   92800    223.54153   -107.16984    250045.08   -55497.072    3878.7351   -59375.807    316.74606    0.6965258   -148.87384 
   93000    224.54566   -18.291488    250045.08   -55484.842    3896.1581       -59381    317.02839    0.6965258   -25.409426 
   93200     223.7221   -57.915065    250045.08   -55449.209    3881.8682   -59331.077    318.35143    0.6965258   -80.452096 
   93400    228.11773   -109.23423    250045.08   -55380.358    3958.1381   -59338.497    317.92276    0.6965258   -151.74157 
   93600    229.26161   -260.33096    250045.08   -55347.459    3977.9859   -59325.444    319.05342    0.6965258   -361.63598 
   93800    226.56194   -249.33189    250045.08   -55458.699     3931.143   -59389.842    319.24189    0.6965258   -346.35673 
   94000    222.13763    39.528147    250045.08   -55501.565    3854.3756   -59355.941    319.63397    0.6965258    54.910104 
   94200    226.96894   -12.856422    250045.08   -55482.883    3938.2051   -59421.088     319.8134    0.6965258   -17.859361 
   94400      226.091   -357.12759    250045.08   -55427.533    3922.9717   -59350.505    320.24058    0.6965258   -496.09999 
   94600     227.1681    57.513043    250045.08   -55350.442    3941.6608   -59292.103    320.30549    0.6965258    79.893631 
   94800    228.71146    -87.79438    250045.08   -55345.515    3968.4401   -59313.955    320.42353    0.6965258   -121.95863 
   95000    225.70154     -280.782    250045.08   -55405.603     3916.214   -59321.817    321.01868    0.6965258   -390.04532 
   95200    224.48389   -31.260717    250045.08   -55421.453    3895.0863   -59316.539    321.21387    0.6965258   -43.425492 
   95400    224.89593   -53.145417    250045.08   -55427.687    3902.2357   -59329.922    321.32017    0.6965258    -73.82639 
   95600    222.13839    -94.60273    250045.08   -55436.262    3854.3889   -59290.651    322.36449    0.6965258   -131.41637 
   95800    224.61495   -27.749877    250045.08   -55407.795    3897.3604   -59305.155    321.86709    0.6965258   -38.548446 
   96000    226.43469   -55.303148    250045.08    -55370.79    3928.9352   -59299.725    322.03794    0.6965258   -76.823778 
   96200    227.94313   -113.12154    250045.08   -55335.291    3955.1085   -59290.399    322.86458    0.6965258   -157.14159 
   96400    226.65903    80.577275    250045.08   -55326.689    3932.8278   -59259.517    323.42905    0.6965258    111.93306 
   96600    227.45385   -204.17921    250045.08   -55418.333    3946.6189   -59364.952    323.90278    0.6965258   -283.63337 
   96800    223.45396    -112.3389    250045.08    -55477.46    3877.2156   -59354.676    324.89482    0.6965258   -156.05438 
   97000     218.8401   -48.963526    250045.08   -55482.848    3797.1593   -59280.007    325.32276    0.6965258   -68.017161 
   97200     225.9872    -284.4083    250045.08   -55439.775    3921.1706   -59360.946    325.51636    0.6965258   -395.08275 
   97400    226.49054   -275.30149    250045.08   -55316.316    3929.9043    -59246.22    325.97144    0.6965258   -382.43213 
   97600    227.77119    118.09452    250045.08   -55281.804    3952.1251   -59233.929    326.18564    0.6965258    164.04974 
   97800    226.12255    15.957676    250045.08   -55338.689    3923.5191   -59262.208    325.75886    0.6965258    22.167436 
   98000    225.85298   -38.561958    250045.08   -55416.782    3918.8418   -59335.623    326.74026    0.6965258   -53.567933 
   98200     227.0904   -204.40679    250045.08   -55459.536    3940.3125   -59399.849    326.91343    0.6965258   -283.94951 
   98400    222.00799   -136.99063    250045.08   -55469.495    3852.1263   -59321.621    327.87718    0.6965258   -190.29907 
   98600    229.61385   -127.83723    250045.08   -55403.866    3984.0978   -59387.964    327.65848    0.6965258   -177.58373 
   98800    230.62346   -40.788314    250045.08   -55307.161    4001.6157   -59308.777    327.47138    0.6965258   -56.660652 
   99000    226.05926    2.8269223    250045.08   -55328.298     3922.421   -59250.719     327.9303    0.6965258    3.9269889 
   99200    227.75209   -200.98737    250045.08    -55383.05    3951.7938   -59334.844    328.40861    0.6965258   -279.19946 
   99400     227.8393    205.60483    250045.08   -55444.218     3953.307   -59397.525    328.06706    0.6965258    285.61376 
   99600    223.19658   -65.454638    250045.08   -55496.235    3872.7497   -59368.985    328.65903    0.6965258   -90.925613 
   99800    221.28497   -73.630847    250045.08   -55483.775    3839.5809   -59323.356    328.90652    0.6965258   -102.28351 
  100000    225.32108   -121.60269    250045.08   -55390.969    3909.6126   -59300.582    328.99757    0.6965258   -168.92308 
Loop time of 181.914 on 6 procs for 100000 steps with 5822 atoms

Performance: 237.475 ns/day, 0.101 hours/ns, 549.711 timesteps/s
99.4% CPU use with 6 MPI tasks x no OpenMP threads

MPI task timing breakdown:
Section |  min time  |  avg time  |  max time  |%varavg| %total
---------------------------------------------------------------
Pair    | 19.031     | 103.75     | 150.28     | 588.2 | 57.03
Neigh   | 1.4207     | 7.3823     | 10.718     | 155.2 |  4.06
Comm    | 14.016     | 63.636     | 153.88     | 800.3 | 34.98
Output  | 4.1572     | 4.1581     | 4.1614     |   0.1 |  2.29
Modify  | 1.9167     | 2.0072     | 2.0795     |   4.4 |  1.10
Other   |            | 0.9755     |            |       |  0.54

Nlocal:        970.333 ave        1359 max         189 min
Histogram: 2 0 0 0 0 0 0 0 0 4
Nghost:        1534.17 ave        1980 max        1052 min
Histogram: 2 0 0 0 0 2 0 0 0 2
Neighs:        0.00000 ave           0 max           0 min
Histogram: 6 0 0 0 0 0 0 0 0 0
FullNghs:      26626.7 ave       38565 max        4041 min
Histogram: 2 0 0 0 0 0 0 0 0 4

Total # of neighbors = 159760
Ave neighs/atom = 27.440742
Neighbor list builds = 5852
Dangerous builds = 0
Total wall time: 0:04:40
