
# Create simulation box of size 50 x 50 x 50 Angstrom
#
lattice	            sc 1
Lattice spacing in x,y,z = 1.0000000 1.0000000 1.0000000
region 	            all block 0 50 0 50 0 100 units box
create_box          1 all
Created orthogonal box = (0.0000000 0.0000000 0.0000000) to (50.000000 50.000000 100.00000)
  2 by 1 by 3 MPI processor grid

# fill box with 8100 randomly distributed atoms 0.0324 N/A^3
#
create_atoms        1 random 8100 63782 all
Created 8100 atoms
  create_atoms CPU = 0.001 seconds
mass                1 18.015

# Define potential
#
pair_style          sw
pair_coeff          * * ML_mW.sw mW
Reading sw potential file ML_mW.sw with DATE: 2019-02-27

# Run minimization
#
minimize            1.0e-8 1.0e-8 10000 1000
WARNING: Using 'neigh_modify every 1 delay 0 check yes' setting during minimization (../min.cpp:187)
Neighbor list info ...
  update every 1 steps, delay 0 steps, check yes
  max neighbors/atom: 2000, page size: 100000
  master list distance cutoff = 6.0032907
  ghost atom cutoff = 6.0032907
  binsize = 3.0016454, bins = 17 17 34
  1 neighbor lists, perpetual/occasional/extra = 1 0 0
  (1) pair sw, perpetual
      attributes: full, newton on
      pair build: full/bin/atomonly
      stencil: full/bin/3d
      bin: standard
Per MPI rank memory allocation (min/avg/max) = 4.254 | 4.256 | 4.258 Mbytes
Step Temp E_pair E_mol TotEng Press 
       0            0     11585155            0     11585155    4417861.6 
     716            0   -87149.218            0   -87149.218   -592.71766 
Loop time of 2.52544 on 6 procs for 716 steps with 8100 atoms

99.2% CPU use with 6 MPI tasks x no OpenMP threads

Minimization stats:
  Stopping criterion = max force evaluations
  Energy initial, next-to-last, final = 
       11585154.967081  -87148.7623913415  -87149.2179854623
  Force two-norm initial, final = 75990135.0 5.8482951
  Force max component initial, final = 29145356.0 0.73490545
  Final line search alpha, max atom move = 0.03760564 0.02763659
  Iterations, force evaluations = 716 1000

MPI task timing breakdown:
Section |  min time  |  avg time  |  max time  |%varavg| %total
---------------------------------------------------------------
Pair    | 1.6645     | 1.8649     | 2.3125     |  16.0 | 73.85
Neigh   | 0.055745   | 0.058258   | 0.062449   |   0.9 |  2.31
Comm    | 0.10668    | 0.55732    | 0.76084    |  29.5 | 22.07
Output  | 0          | 0          | 0          |   0.0 |  0.00
Modify  | 0          | 0          | 0          |   0.0 |  0.00
Other   |            | 0.04492    |            |       |  1.78

Nlocal:        1350.00 ave        1387 max        1323 min
Histogram: 2 1 0 0 1 0 0 0 1 1
Nghost:        2018.17 ave        2075 max        1966 min
Histogram: 1 1 0 1 0 0 1 1 0 1
Neighs:        0.00000 ave           0 max           0 min
Histogram: 6 0 0 0 0 0 0 0 0 0
FullNghs:      37681.0 ave       39457 max       36168 min
Histogram: 1 1 1 0 1 0 0 0 0 2

Total # of neighbors = 226086
Ave neighs/atom = 27.911852
Neighbor list builds = 32
Dangerous builds = 0

# Add velocity/set timestep
#
velocity            all create ${TEMP} 120598 rot yes dist gaussian
velocity            all create 225 120598 rot yes dist gaussian
timestep            5.0

# Define output
#
compute	            1 all msd
thermo	            100
thermo_style        custom step temp press vol etotal ke pe c_1[4] density

# Neighbor lists
#
neigh_modify        delay 0 every 1 check yes

# Set fixes
#
fix                 1 all momentum 10 linear 1 1 1 rescale
fix                 2 all nve
fix                 3 all temp/csvr ${TEMP} ${TEMP} 500.0 928347
fix                 3 all temp/csvr 225 ${TEMP} 500.0 928347
fix                 3 all temp/csvr 225 225 500.0 928347
fix                 4 all press/berendsen iso ${PRES} ${PRES} 1000.0 modulus 20000
fix                 4 all press/berendsen iso 1 ${PRES} 1000.0 modulus 20000
fix                 4 all press/berendsen iso 1 1 1000.0 modulus 20000

# Run 0.25 ns equilibration
#
dump                1 all custom 1000 eq.${NAME}.dump id type x y z vx vy vz
dump                1 all custom 1000 eq.slab_225K_1atm.dump id type x y z vx vy vz
run                 50000
Per MPI rank memory allocation (min/avg/max) = 3.505 | 3.510 | 3.519 Mbytes
Step Temp Press Volume TotEng KinEng PotEng c_1[4] Density 
     716          225    400.49229       250000   -81717.362    5431.8556   -87149.218 1.4054477e-33   0.96923332 
     800    150.72684   -97.522994    249841.98   -79788.365    3638.7841   -83427.149   0.30582009   0.96984633 
     900    180.96482   -133.66417    248876.72   -78508.015    4368.7768   -82876.792   0.69760286   0.97360787 
    1000    199.46896   -74.276676    248361.47   -77689.857    4815.4959   -82505.353    1.1699227   0.97562771 
    1100    211.57597   -57.108883    247794.89   -77230.969    5107.7783   -82338.748    1.6077156   0.97785847 
    1200    217.77992   -125.84493    247325.24   -76978.523    5257.5515   -82236.074    2.0971549   0.97971534 
    1300    223.58647   -136.44479    246632.16   -76767.515    5397.7309   -82165.246    2.5475331   0.98246852 
    1400    224.80591   -42.400007    246443.89   -76750.769    5427.1699   -82177.939    3.0213801   0.98321906 
    1500    227.93181    -66.22902    246118.56   -76709.548    5502.6341   -82212.182    3.5518074   0.98451874 
    1600    227.42284    -66.23194    245781.04    -76711.86    5490.3468   -82202.207    4.0661883   0.98587072 
    1700    226.40881    111.64111    245746.92   -76844.019    5465.8666   -82309.885    4.4462053   0.98600761 
    1800    225.31155   -79.760568    245349.27    -76865.47    5439.3769   -82304.847    4.8437994   0.98760568 
    1900    227.14345   -35.560709    245448.33    -76926.03    5483.6018   -82409.632    5.2296496   0.98720707 
    2000     228.1826    -62.22924    245621.08   -76905.026    5508.6886   -82413.715    5.6759279   0.98651274 
    2100    225.51443   -30.357548    245519.61   -77014.953    5444.2747   -82459.228    6.1629933   0.98692049 
    2200    226.71583   -83.470295    245349.21   -77131.836    5473.2785   -82605.114    6.5562259   0.98760592 
    2300    223.16483    115.23338    245148.67   -77115.112    5387.5518   -82502.664    7.0085709   0.98841381 
    2400    226.09829    98.898717    245374.56    -77190.95      5458.37    -82649.32    7.3414869   0.98750387 
    2500    223.65601    178.26301    245392.15   -77215.411    5399.4096   -82614.821    7.7387236   0.98743308 
    2600    227.16222   -75.900985    245624.57   -77171.913     5484.055   -82655.968    8.1832498   0.98649874 
    2700    230.11479   -69.829699    245396.16   -77136.814    5555.3347   -82692.149    8.5513052   0.98741695 
    2800    225.09427    98.391624    245367.55   -77311.543    5434.1315   -82745.675    8.8375005   0.98753209 
    2900    223.60917    57.912868    245483.84   -77228.119    5398.2787   -82626.397     9.112402    0.9870643 
    3000    227.37192   -7.9627161    245833.82   -77196.632    5489.1174    -82685.75    9.3844358   0.98565904 
    3100    227.09166    47.768873    245698.49   -77214.913    5482.3515   -82697.264    9.6803619   0.98620194 
    3200    227.15469    16.191748    245988.05   -77281.564    5483.8733   -82765.437    9.9561516   0.98504107 
    3300    224.17545   -115.34104    246109.34   -77303.952    5411.9497   -82715.901    10.309077    0.9845556 
    3400    226.43184    152.36567    246293.42   -77341.933    5466.4225   -82808.356    10.692723   0.98381973 
    3500    228.11395    59.240389    246344.84   -77320.138    5507.0312    -82827.17    10.978039   0.98361441 
    3600    229.55966   -67.635958    246215.32   -77303.598     5541.933   -82845.531     11.31096   0.98413183 
    3700    226.32745   -80.094885    246434.79   -77397.932    5463.9024   -82861.835    11.608733   0.98325536 
    3800    227.85682    131.03368    246641.54   -77332.769    5500.8237   -82833.593    11.832313   0.98243113 
    3900    223.11931    63.642432    246612.68   -77459.528    5386.4528    -82845.98     12.09137   0.98254612 
    4000    220.48455    91.028132    246736.65   -77562.163    5322.8456   -82885.009    12.320397   0.98205242 
    4100    222.72443   -79.129643     246865.2   -77491.657    5376.9197   -82868.576     12.64979   0.98154108 
    4200    226.88186    12.711765    246772.45   -77463.551    5477.2868   -82940.838    13.003846   0.98190999 
    4300    223.38869   -48.000108    246857.31   -77432.454    5392.9561   -82825.411    13.405656   0.98157245 
    4400    227.48847     89.17198    246633.42   -77427.586    5491.9312   -82919.517    13.592724   0.98246351 
    4500    227.11148   -22.370659    246571.95   -77389.518    5482.8301   -82872.348    13.920636    0.9827084 
    4600    224.91154    61.778026    246700.99   -77421.547    5429.7199   -82851.267    14.187191   0.98219438 
    4700    225.83271   -62.981704    246600.17   -77552.157    5451.9585   -83004.115    14.490809   0.98259594 
    4800    226.71946    68.628527    246560.07   -77559.145    5473.3661   -83032.511    14.660272   0.98275578 
    4900    225.46702    106.84505    246723.32   -77526.521    5443.1303   -82969.651    15.019123   0.98210549 
    5000    221.79212    59.646928    246650.39   -77599.798    5354.4124    -82954.21    15.322516   0.98239589 
    5100    225.18355    70.498681    247016.46   -77514.156    5436.2868   -82950.443    15.446046   0.98094001 
    5200    226.91749    62.258424    247058.87   -77603.665    5478.1468   -83081.812    15.686547   0.98077161 
    5300     221.4801   -29.576867    246861.39   -77715.285    5346.8797   -83062.164    16.040331   0.98155619 
    5400    225.94845   -66.874428    246785.74   -77588.573    5454.7527   -83043.326    16.226065   0.98185711 
    5500    226.37849    113.27854     246524.7   -77539.093    5465.1347   -83004.228    16.541584   0.98289675 
    5600     227.2986    62.440846    246755.47   -77449.822    5487.3476    -82937.17    16.752356   0.98197756 
    5700    226.40664    11.672136       246901   -77526.484    5465.8142   -82992.298    16.972755   0.98139875 
    5800    227.25601     31.45329    246913.67   -77476.547    5486.3192   -82962.867    17.218211   0.98134838 
    5900    225.43274   -44.588855    246837.36   -77570.297    5442.3028     -83012.6     17.36284   0.98165176 
    6000    222.06695    2.8293296    246718.32   -77688.107    5361.0472   -83049.154    17.695545   0.98212542 
    6100    226.03251  -0.84164519     246956.5   -77670.007     5456.782   -83126.789    18.065443    0.9811782 
    6200    222.71377    28.981169    247151.44   -77651.143    5376.6625   -83027.806    18.225666   0.98040429 
    6300    225.29398     11.75339     246926.3   -77679.331    5438.9527   -83118.283    18.431646   0.98129818 
    6400    224.88768   -135.34154    246725.85   -77652.535    5429.1441   -83081.679     18.58476   0.98209541 
    6500    226.61132    77.338369    246761.78   -77611.737    5470.7553   -83082.492    18.833797   0.98195242 
    6600    225.49604    19.052742    247245.81   -77697.144    5443.8309   -83140.975    19.201571   0.98003007 
    6700    223.93074   -74.068526    247232.29   -77725.102    5406.0421   -83131.144    19.329004   0.98008366 
    6800     224.3054    -34.70531    247481.11   -77770.804     5415.087   -83185.891    19.619765   0.97909827 
    6900    224.15409    39.031779    247466.16    -77775.64     5411.434   -83187.074    19.895452   0.97915745 
    7000    229.34228   -22.880018    247579.98   -77677.947    5536.6851   -83214.633    20.202093   0.97870727 
    7100     224.7148    84.321644     247853.3   -77790.463    5424.9704   -83215.434    20.357132   0.97762801 
    7200    224.78553   -36.401888    247680.79   -77815.252     5426.678    -83241.93    20.833092   0.97830892 
    7300    227.94928    73.894044    247652.99   -77862.236    5503.0558   -83365.292    21.167196   0.97841876 
    7400    224.00571     68.47616    247541.44    -77908.64    5407.8519   -83316.492    21.405885   0.97885964 
    7500    222.61911    9.8406489     247697.3   -77865.019    5374.3772   -83239.396    21.706705   0.97824372 
    7600    224.75346    16.487625    247679.18   -77786.435    5425.9039   -83212.338    21.921442    0.9783153 
    7700    222.24226    81.159602     247849.8   -77786.195    5365.2794   -83151.475    22.105054   0.97764182 
    7800    226.42216    64.148804    248153.01   -77804.756    5466.1887   -83270.945    22.309605   0.97644726 
    7900    222.78929   -16.733923    248056.75   -77929.905    5378.4855    -83308.39    22.512793   0.97682618 
    8000    222.37726    11.453735    248207.48   -78001.189    5368.5386   -83369.728    22.768824   0.97623301 
    8100    225.77278     71.71827    248093.27   -77900.115    5450.5118   -83350.627    22.998065   0.97668241 
    8200    226.27147    162.55834     248270.7   -77836.152    5462.5509   -83298.702    23.287683   0.97598439 
    8300    227.25538    40.882523       248186   -77769.899    5486.3042   -83256.203    23.410099   0.97631746 
    8400    223.45268    38.216023    248200.62   -77866.844    5394.5009   -83261.345     23.72371   0.97625996 
    8500     222.1071    124.03926    248157.49   -77963.433    5362.0164   -83325.449    23.917146   0.97642965 
    8600    222.85289    89.372337    248211.07   -77898.595     5380.021   -83278.616    23.994072   0.97621888 
    8700    225.37118   -36.984402    248446.93   -77779.465    5440.8164   -83220.281    24.169868   0.97529209 
    8800    228.19468    44.489956    248652.02   -77727.074    5508.9802   -83236.054    24.243098   0.97448767 
    8900    226.45225    4.2400131    248856.33   -77764.423    5466.9153   -83231.338    24.444108   0.97368762 
    9000    227.15964   -74.835446    248759.48   -77722.966    5483.9927   -83206.958    24.812643   0.97406672 
    9100    228.91794    22.531328    249136.46   -77710.969    5526.4408    -83237.41    25.213856   0.97259283 
    9200    223.26257   -76.346468    249335.32   -77790.044    5389.9114   -83179.956    25.393975   0.97181711 
    9300    226.03235   -41.646022    249217.69   -77768.476    5456.7781   -83225.255    25.683825    0.9722758 
    9400    226.25619   -87.305185    249128.15   -77778.772    5462.1821   -83240.954    25.857388   0.97262526 
    9500     225.3363   -95.662226    248902.03   -77869.835    5439.9745   -83309.809    25.987465   0.97350885 
    9600    224.04067    32.708246    249004.28   -77954.262     5408.696   -83362.958    26.273856   0.97310911 
    9700    227.05375    35.879204    249099.64   -77900.107    5481.4365   -83381.544    26.442022   0.97273658 
    9800    228.24306    -79.85363    248896.13   -77969.946    5510.1482   -83480.095    26.743556   0.97353192 
    9900    225.13678    76.218769    249169.85   -77921.167    5435.1577   -83356.325    27.079319   0.97246248 
   10000    225.04325   -13.617435    249154.86     -78065.7    5432.8999     -83498.6    27.296555     0.972521 
   10100    227.30161    98.243628    249479.18   -78026.284    5487.4201   -83513.704     27.48521   0.97125673 
   10200     226.4169   -9.2901174    249201.42   -78062.293    5466.0617   -83528.355    27.527177   0.97233927 
   10300    224.84401    73.475528    249266.96   -78065.476    5428.0898   -83493.566     27.76803   0.97208363 
   10400    226.90455   -140.52984    249258.37   -77990.527    5477.8344   -83468.362     28.02202   0.97211711 
   10500    228.75549    114.56479    249349.53   -77935.173    5522.5192   -83457.692    28.079657   0.97176174 
   10600    226.12224   -62.884379    249521.81   -77992.985    5458.9482   -83451.933    28.232356   0.97109079 
   10700    225.85277    157.20634    249572.74   -78027.342    5452.4428   -83479.785    28.514252    0.9708926 
   10800    225.43189    -106.1798    249425.04   -77984.115     5442.282   -83426.397    28.774773   0.97146755 
   10900    226.23409     67.67555    249452.72   -77923.928    5461.6486   -83385.577     28.95422   0.97135974 
   11000    225.42819    91.052892    249324.89   -77879.034    5442.1929   -83321.227     29.17175   0.97185778 
   11100    224.30436    127.61592     249330.4   -77915.333    5415.0618   -83330.395    29.379947    0.9718363 
   11200    226.82076   -45.848624    249141.13   -77983.043    5475.8115   -83458.855    29.623153   0.97257459 
   11300    227.07346   -59.563583     249287.4   -78011.917    5481.9122   -83493.829    29.776074   0.97200394 
   11400    225.82171   -38.010342    249438.42   -78026.929    5451.6931   -83478.622    29.938434   0.97141541 
   11500    222.92771    241.25187     249445.3   -78111.112    5381.8273   -83492.939    30.107824   0.97138865 
   11600    222.30926     97.25725    249897.55   -78138.051     5366.897   -83504.948    30.340041   0.96963066 
   11700    224.28655   -43.459218    249924.09   -78096.368    5414.6318       -83511    30.526805   0.96952773 
   11800     223.0278   -97.912252     249932.5   -78036.201    5384.2436   -83420.444    30.696636    0.9694951 
   11900    223.99663   -33.476509    249969.62   -78140.169    5407.6327   -83547.802    30.629801   0.96935113 
   12000    224.19868   -8.5267025    249859.01   -78097.621    5412.5104   -83510.131    30.695075   0.96978022 
   12100    223.60407    105.11796     250027.3    -78078.72    5398.1556   -83476.875    30.952024   0.96912747 
   12200    225.71745   -78.589414    249948.86   -78006.911    5449.1761   -83456.087    31.244544   0.96943164 
   12300    227.55282    19.635548    249564.04   -77954.722    5493.4847   -83448.207    31.353475   0.97092646 
   12400    229.29774    14.038698     249548.8   -77882.511    5535.6098   -83418.121    31.627991   0.97098576 
   12500     227.3996   -72.588717    249730.81   -77888.975    5489.7859   -83378.761    31.834212   0.97027806 
   12600    227.64522   -3.3209983    249727.52   -77963.876    5495.7154   -83459.592    31.941061   0.97029084 
   12700    228.75694    59.063174    249806.19   -77933.286    5522.5541    -83455.84    32.197272   0.96998528 
   12800    226.37236   -43.182773    249644.08   -78018.362    5464.9866   -83483.349    32.385341   0.97061515 
   12900    222.80811   -82.989111    249562.44   -78016.509      5378.94   -83395.449    32.445451   0.97093268 
   13000    223.24772   -59.731161    249300.36   -78160.024    5389.5528   -83549.577    32.646878   0.97195339 
   13100    224.72471    51.640465    249216.21    -78062.93    5425.2096    -83488.14    32.699466   0.97228159 
   13200    222.98594    135.02313    248996.11   -78032.265     5383.233   -83415.498    32.925198   0.97314103 
   13300    225.74263    4.6817616    249089.94   -77994.326    5449.7839    -83444.11    33.098966   0.97277446 
   13400    226.39252    58.556974     249237.7   -78000.054    5465.4732   -83465.527    33.451297   0.97219774 
   13500    224.91737   -109.72782    249393.82    -78031.69    5429.8607   -83461.551    33.677795   0.97158915 
   13600    224.74679    54.965382    249314.62   -78098.375    5425.7427   -83524.118     33.86488   0.97189781 
   13700    223.57855   -49.812195    249311.01   -78088.617    5397.5396   -83486.156    34.130116   0.97191187 
   13800    222.33484    37.483656    249198.27   -78136.302    5367.5144   -83503.817    34.455196   0.97235159 
   13900    223.28353    34.185566    249442.04   -78171.819    5390.4173   -83562.236    34.654993   0.97140133 
   14000    222.87111    60.993933    249672.52   -78217.355    5380.4609   -83597.816    34.738342   0.97050461 
   14100     223.6178    87.336865    249855.03   -78297.145    5398.4872   -83695.633    34.926326    0.9697957 
   14200    222.28131    85.627313    250141.79   -78162.212    5366.2222   -83528.435    35.025675   0.96868394 
   14300    223.21181    58.576851    250044.09   -78155.582    5388.6859   -83544.267    35.209024   0.96906241 
   14400    224.72957    4.9074927    250323.61   -78170.707     5425.327   -83596.034    35.376139   0.96798033 
   14500    221.98629     -132.925     250569.7   -78136.223       5359.1   -83495.323    35.547884   0.96702965 
   14600    229.46916    68.222577    250154.29   -78142.626    5539.7482   -83682.374    35.756652   0.96863554 
   14700    228.33811   -9.8749435    250170.83   -78018.478     5512.443   -83530.921     35.93421   0.96857149 
   14800    226.85513     59.23807    250128.22   -78103.407    5476.6414   -83580.048    36.158239   0.96873648 
   14900    225.65185   -178.91891    249997.37   -78125.467    5447.5924    -83573.06    36.168183   0.96924351 
   15000    224.95834   -53.516858    249987.27   -78160.726    5430.8499   -83591.576    36.399397   0.96928268 
   15100    225.00505   -86.480158    250180.27   -78197.598    5431.9775   -83629.576    36.493213   0.96853493 
   15200    222.91849    127.61127    250125.68   -78216.984    5381.6047   -83598.588    36.695724   0.96874631 
   15300    222.68513   -22.044354    249976.75   -78211.869     5375.971    -83587.84    36.774788   0.96932348 
   15400    226.20662    54.841934     250132.8   -78143.692    5460.9855   -83604.678    37.033952   0.96871873 
   15500    223.90167   -70.664604    249976.43   -78081.828    5405.3402   -83487.168    37.192787   0.96932472 
   15600    226.43568   -70.681658    249904.99   -78069.202    5466.5151   -83535.717    37.484139   0.96960181 
   15700    223.97456   -52.822336    250047.77   -78160.926       5407.1   -83568.026    37.690978   0.96904816 
   15800    223.59701   -122.18352    249873.77   -78164.731    5397.9852   -83562.716    38.045226   0.96972295 
   15900    223.61741   -177.19242    249825.26   -78090.525    5398.4778   -83489.003    38.244912   0.96991124 
   16000    218.51727    48.104677    249902.37    -78158.86    5275.3523   -83434.213    38.453178   0.96961197 
   16100    222.61946   -39.170027    249928.08   -78148.043    5374.3858   -83522.429    38.443314   0.96951221 
   16200    222.15874   -22.423072    249903.51   -78074.299    5363.2631   -83437.562    38.747734   0.96960756 
   16300    226.58613    81.611574    249626.05   -77962.938    5470.1473   -83433.085    39.082105   0.97068526 
   16400    226.52582    170.51107    249879.99   -77939.645    5468.6914   -83408.336    39.237769   0.96969882 
   16500    225.83706   -35.259289    249895.57   -77978.756    5452.0637    -83430.82     39.53766   0.96963836 
   16600    229.56855     1.950814    249905.99   -77963.275    5542.1477   -83505.423    39.673272   0.96959792 
   16700    227.40526   -91.917443    249909.49   -78028.347    5489.9225    -83518.27    39.945483   0.96958435 
   16800    225.99327    3.3277334    249975.81   -78120.524    5455.8348   -83576.359    40.062667   0.96932713 
   16900    224.88074   -13.111008    250147.87   -78077.248    5428.9765   -83506.224    40.268052   0.96866036 
   17000    226.93713    45.697714    249846.49    -78078.63     5478.621   -83557.251    40.457936   0.96982883 
   17100    223.82144    41.006377    249866.91   -78095.231    5403.4033   -83498.634    40.574884   0.96974957 
   17200    224.00339    60.466006    249522.39   -78013.608    5407.7959   -83421.404    40.702158   0.97108852 
   17300    226.04177    -89.64121    249194.21   -77928.673    5457.0055   -83385.679    40.850217    0.9723674 
   17400     229.5272   -58.040031    249158.78   -77960.282    5541.1495   -83501.431    41.066794    0.9725057 
   17500    224.48906   -86.058274    249153.66   -78001.485    5419.5208   -83421.006     41.33939   0.97252566 
   17600    223.93728   -51.043886    249089.76   -77987.001    5406.1999   -83393.201    41.543329   0.97277517 
   17700     222.6627    143.79134    249147.88   -78031.426    5375.4296   -83406.856    41.817257   0.97254823 
   17800    225.58401   -154.33612    249010.39   -77968.475    5445.9546   -83414.429    42.048629   0.97308524 
   17900    223.91021   -96.825139     249007.9   -78043.318    5405.5464   -83448.865    42.223096   0.97309496 
   18000    220.37058   -36.772025    249077.17   -78108.364    5320.0942   -83428.458    42.601681   0.97282433 
   18100    224.93154   -82.346026    248999.58   -78140.513     5430.203   -83570.716    42.509692   0.97312747 
   18200    227.81293   -15.334305    249111.24   -78073.434    5499.7643   -83573.199    42.777216   0.97269129 
   18300    225.81035   -64.059978    249304.56   -78098.263    5451.4187   -83549.682     42.96814   0.97193703 
   18400    222.57629   -9.8183643    249602.94   -78161.858    5373.3435   -83535.201    43.188212   0.97077516 
   18500    222.45323    27.660617    249411.35   -78119.005    5370.3726   -83489.378    43.497086   0.97152086 
   18600    225.20962    28.227117    249384.14   -78029.421    5436.9162   -83466.337    43.727733   0.97162687 
   18700    226.29469    41.801078     249190.9   -77963.035    5463.1115   -83426.146    43.894209   0.97238034 
   18800    225.48137    186.44458    249350.64   -77969.043    5443.4766    -83412.52    44.120829    0.9717574 
   18900    227.12486   0.52136783    249335.26   -78039.804    5483.1532   -83522.957    44.345096   0.97181734 
   19000    225.89343    73.882021    249337.33   -77990.612    5453.4244   -83444.036    44.449996   0.97180929 
   19100    222.60909    42.303921    249432.89   -78085.483    5374.1354   -83459.619    44.686715   0.97143697 
   19200    225.17597     5.317201    249232.09   -78018.845    5436.1039   -83454.949    44.769765   0.97221962 
   19300     225.3942   -10.820695    249295.39   -77934.705    5441.3722   -83376.078    45.026667   0.97197278 
   19400    225.73308    159.72696    249585.59   -77971.557    5449.5532    -83421.11    45.314815   0.97084263 
   19500    227.76707    8.5948999    249501.08   -77989.959    5498.6571   -83488.616    45.676303   0.97117148 
   19600    227.76068    43.187404    249533.01   -77936.703    5498.5029   -83435.206    45.899739   0.97104719 
   19700    225.88041    4.8995173    249608.73   -77920.175    5453.1102   -83373.285    46.284287   0.97075264 
   19800    227.73552   -55.869964    249858.25     -77904.2    5497.8954   -83402.096    46.558613   0.96978317 
   19900    226.92455   -33.729794    249756.94   -77964.041    5478.3174   -83442.358    46.724084   0.97017655 
   20000    229.53644    11.687968    249790.54   -77864.626    5541.3725   -83405.998    46.942866   0.97004605 
   20100    227.54294   -76.375672    249770.41   -77954.456    5493.2462   -83447.702    46.909655   0.97012422 
   20200    228.66362    26.461533    249776.62   -77911.086    5520.3013   -83431.387     47.19337   0.97010012 
   20300    226.07574   -6.4383937    249881.36   -77961.804    5457.8256   -83419.629    47.570898    0.9696935 
   20400    228.84354    23.507459    249923.02   -77983.146    5524.6447   -83507.791    47.723619   0.96953187 
   20500    227.21848   -49.134689    249871.74   -78002.777    5485.4132    -83488.19     47.88498   0.96973082 
   20600    226.26527   -24.002518     250045.9   -78038.298    5462.4012   -83500.699    48.065042   0.96905539 
   20700    224.43975    18.053217    249925.55   -78045.826    5418.3304   -83464.157    48.047651   0.96952204 
   20800    225.49794   -80.520697    249661.34   -78050.621    5443.8767   -83494.498    48.136212   0.97054805 
   20900    223.73295    4.3169361    249742.16   -78027.917     5401.267   -83429.184    48.517037   0.97023398 
   21000    224.81122    5.4154824    249809.14   -77959.552    5427.2982    -83386.85    48.863283   0.96997386 
   21100    224.86504   -21.213008    249585.12   -77979.153    5428.5975    -83407.75    49.074616   0.97084445 
   21200    226.93564    168.92304    249711.33    -78076.65     5478.585   -83555.236    49.434074   0.97035375 
   21300    222.82214     15.99175    249712.19   -78088.984    5379.2787   -83468.263    49.629265   0.97035044 
   21400    221.55945   -56.588753    249919.68   -78008.813    5348.7953   -83357.608    49.756714   0.96954481 
   21500    226.87084    33.512137    249971.98   -77943.589    5477.0207    -83420.61    49.994924   0.96934198 
   21600    222.87678   -91.239962    249925.97   -77996.664    5380.5977   -83377.261     50.13036   0.96952042 
   21700    222.05568    6.8246819    249860.67   -77975.638    5360.7752   -83336.414     50.23238   0.96977379 
   21800    224.87492    60.693306    249472.96   -77854.896    5428.8359   -83283.732    50.393226   0.97128095 
   21900    227.16944    33.370065     249385.8   -77851.446    5484.2293   -83335.675    50.499385   0.97162042 
   22000     226.8434   -109.28003    249305.17   -77865.261    5476.3583    -83341.62    50.740652   0.97193464 
   22100    225.98609   -76.783778    249329.63   -77904.862    5455.6614   -83360.524    50.978897   0.97183928 
   22200     228.9834    23.469498    249307.35   -77837.975    5528.0213   -83365.996    51.150559   0.97192613 
   22300    225.33455     12.32929    249593.54   -77839.039    5439.9321   -83278.971    51.484428    0.9708117 
   22400    227.75182    37.790319    249482.09   -77964.392     5498.289   -83462.681    51.614162   0.97124539 
   22500    224.80376   -9.3548874    249820.76   -78028.743    5427.1181   -83455.861    51.759202   0.96992872 
   22600     225.9889   -71.847944    249569.28    -77978.57    5455.7293   -83434.299     52.07632   0.97090608 
   22700    224.86899   -2.1352126    249455.92   -78010.009    5428.6929   -83438.702    52.235136   0.97134728 
   22800    222.59893   -88.165751    249464.48   -78063.204      5373.89   -83437.094    52.501646   0.97131396 
   22900    219.46284    61.735053    249246.44    -78138.47    5298.1799    -83436.65    52.798844   0.97216365 
   23000    224.72775    215.99906    249545.43   -78065.919     5425.283   -83491.202    52.916803   0.97099886 
   23100    224.48401   -51.635332    249920.19   -77993.569    5419.3989   -83412.968    53.138329   0.96954285 
   23200    226.19472    13.776138    249778.12   -77981.017     5460.698   -83441.715    53.430903    0.9700943 
   23300    224.70627    84.091798     249827.1   -78037.999    5424.7646   -83462.763    53.715941   0.96990412 
   23400    223.31431   -181.05665    249910.48   -78129.514    5391.1604   -83520.674    53.903476   0.96958051 
   23500    226.31631   -6.1563348    249602.61   -78037.926    5463.6335    -83501.56    53.916342   0.97077643 
   23600     227.6675   -61.632228    249606.51   -78118.232    5496.2534   -83614.486    54.202045   0.97076125 
   23700    225.61803    31.490267    249635.41   -78178.913    5446.7758   -83625.689    54.364737   0.97064889 
   23800    226.18399   -13.628525    249810.43   -78134.368    5460.4391   -83594.807    54.481705   0.96996882 
   23900    226.44744   -2.0338103    249909.38   -78078.113    5466.7991   -83544.912    54.680234   0.96958476 
   24000    225.80282    -80.16932    249774.74   -78115.894     5451.237   -83567.131    54.794689   0.97010744 
   24100    226.10574    67.546453    249826.85    -78123.77    5458.5501    -83582.32     54.92312   0.96990508 
   24200     224.1086    59.062789    249796.55   -78031.884    5410.3359    -83442.22    55.230374   0.97002274 
   24300    225.56318   -63.341427    249536.25   -78002.767    5445.4517   -83448.219    55.455245    0.9710346 
   24400    224.89094   -37.981074    249584.21   -77985.596    5429.2226   -83414.819      55.7908   0.97084801 
   24500    225.86668   -2.1688523    249552.54   -77945.439    5452.7786   -83398.217    56.081848   0.97097121 
   24600    224.63474    -15.54391    249108.46   -78015.277    5423.0377   -83438.315    56.272107   0.97270215 
   24700     228.1581   -110.83287    249413.22   -77941.819    5508.0971   -83449.916    56.660189   0.97151357 
   24800    225.80531   -2.3992861    249304.99   -77882.702    5451.2971   -83333.999    56.946408   0.97193533 
   24900    223.77888    91.687337    249250.39   -77994.853    5402.3759   -83397.229      56.9139   0.97214826 
   25000    223.82521    112.67405    249194.82   -78007.047    5403.4943   -83410.542    56.997785   0.97236505 
   25100    222.60501   -25.546197    249143.96   -78054.656    5374.0367   -83428.693    57.267509   0.97256355 
   25200    222.73022   -16.952473    249080.58   -77973.231    5377.0595   -83350.291    57.416606   0.97281103 
   25300    224.03386   -4.7487022    249141.29   -78032.973    5408.5314   -83441.504    57.529148   0.97257397 
   25400    221.00619   -16.238441    248869.02    -78051.52    5335.4387   -83386.958    57.862261   0.97363798 
   25500    224.85755   -1.0985796    248872.48    -77976.49    5428.4167   -83404.907    58.177552   0.97362444 
   25600    224.82703    36.190801    248779.32   -78042.045    5427.6798   -83469.725    58.346627   0.97398904 
   25700      224.725   -47.131256    249002.97   -78012.084    5425.2166   -83437.301     58.64208   0.97311422 
   25800    225.65639   -38.998984    249103.11   -78056.418     5447.702    -83504.12    58.831621   0.97272302 
   25900    222.31645    -57.59708    248985.73   -78194.519    5367.0706   -83561.589    58.950316   0.97318161 
   26000    224.90305    22.785496    249092.21   -78061.719    5429.5151   -83491.234    59.154675    0.9727656 
   26100    220.69135    55.547194    249005.45   -78089.155     5327.838   -83416.993    59.378947   0.97310454 
   26200    221.59036    -46.91371    248972.75   -78006.096    5349.5416   -83355.637    59.589102   0.97323233 
   26300    227.97878 -0.089889845    248892.44   -77888.352     5503.768    -83392.12    59.723528   0.97354635 
   26400    226.47127     -95.1149     248690.1   -78002.454    5467.3743   -83469.828     59.94723   0.97433848 
   26500    230.64727    6.8529357    248936.24   -77871.465    5568.1896   -83439.655    60.016125   0.97337507 
   26600    227.32669   0.39779886    249182.52   -77912.071    5488.0257   -83400.096    60.095834   0.97241302 
   26700    225.62157    62.564725     248985.3   -77923.558    5446.8613   -83370.419    60.339782   0.97318328 
   26800    225.33148   -61.683585    249172.67   -77875.202    5439.8582    -83315.06    60.638965   0.97245147 
   26900    224.88265    31.920631    249270.16    -77942.97    5429.0226   -83371.993    61.038703   0.97207115 
   27000    225.59956   -157.20326    249335.82   -77912.425      5446.33   -83358.755    61.302589   0.97181518 
   27100     221.2194    92.311295    249257.97    -77986.19    5340.5861   -83326.776     61.61119   0.97211868 
   27200    229.33954   -19.791664    249243.43   -77887.281    5536.6189   -83423.899    61.669463   0.97217538 
   27300    228.52823   -69.832885    249152.44   -77850.913    5517.0326   -83367.945    61.766339   0.97253043 
   27400    225.71503    91.591411    249176.02   -77856.555    5449.1176   -83305.672    61.895004    0.9724384 
   27500    225.56477    10.491869    249260.06   -77891.847    5445.4902   -83337.337     61.96645   0.97211053 
   27600    228.76533    53.020051    249117.28   -77845.082    5522.7566   -83367.839    62.105256    0.9726677 
   27700    225.36069    47.110749     249447.8   -77875.574    5440.5632   -83316.138    62.199136   0.97137891 
   27800    226.06994   -44.313796    249816.74   -77894.014    5457.6856     -83351.7    62.646532   0.96994431 
   27900    227.83591    118.18166     250070.3   -77910.533     5500.319   -83410.852    62.825613   0.96896084 
   28000    232.43976    47.925215    249876.51    -77765.08    5611.4632   -83376.543    62.958961   0.96971232 
   28100    222.85677    -88.89103    249621.52   -77887.685    5380.1148     -83267.8    63.107506   0.97070289 
   28200    223.82663    33.149211    249762.01   -77936.221    5403.5286    -83339.75    63.400697   0.97015687 
   28300    225.31264   -69.621325    249435.76   -77974.607    5439.4032   -83414.011    63.612413    0.9714258 
   28400    224.69382   -183.66988     249472.3   -77931.669    5424.4639   -83356.133    63.858221   0.97128349 
   28500    227.49627   -26.831288    249254.81    -77899.66    5492.1195   -83391.779    64.234442   0.97213099 
   28600     227.4716    88.666088    249345.02   -77964.865    5491.5239   -83456.389    64.399524   0.97177932 
   28700    223.24029   -66.001091    249686.72   -78050.069    5389.3735   -83439.442    64.540379   0.97044941 
   28800     225.8053    58.471165    249642.79   -78006.862     5451.297   -83458.159    64.514796   0.97062017 
   28900    223.42554    -80.61585    249427.07   -78004.274    5393.8457    -83398.12    64.613543   0.97145962 
   29000    221.32859    43.314214    249353.16   -78034.797     5343.222   -83378.019    64.882105   0.97174759 
   29100    227.08235    51.485187     249408.1   -77935.493    5482.1269    -83417.62    65.183949   0.97153352 
   29200      223.959    7.5610028     249160.1   -77959.566    5406.7242    -83366.29    65.393444   0.97250053 
   29300    226.29989    197.51362    249297.74   -77984.322     5463.237   -83447.559    65.617348    0.9719636 
   29400    223.90251     91.52149    249343.44   -77968.667    5405.3606   -83374.027    66.048332   0.97178547 
   29500    222.17337    -93.52153    249644.92   -78015.715    5363.6164   -83379.331    66.243835   0.97061192 
   29600    227.26076    145.68829       249554   -77982.345     5486.434   -83468.779    66.821433   0.97096554 
   29700    224.69637   -123.47074     249266.9   -77956.632    5424.5255   -83381.157    67.010995   0.97208387 
   29800    223.13374   -39.455576     249204.2   -77924.417    5386.8012   -83311.219    67.240107   0.97232842 
   29900    222.52124   -15.915444    249070.49   -77810.324    5372.0144   -83182.338    67.453515   0.97285044 
   30000    230.37985    83.497833    249106.45   -77803.529    5561.7338   -83365.263    67.843331      0.97271 
   30100    225.64699   -82.761625    248912.53   -77805.497     5447.475   -83252.972    68.034207   0.97346777 
   30200    225.09028    71.290424    249084.47   -77851.179    5434.0352   -83285.214     68.34516   0.97279582 
   30300    227.27247    19.392581    249188.92    -77816.15    5486.7166   -83302.867    68.661586   0.97238804 
   30400    226.38745    22.226334    249111.59   -77875.336    5465.3509   -83340.687     69.09687   0.97268991 
   30500    224.94138    55.120442    249109.95   -78015.767    5430.4405   -83446.207    69.472635   0.97269631 
   30600     223.1844    108.08828    249293.63   -78007.781    5388.0242   -83395.806    69.543527   0.97197964 
   30700    228.22214    76.619693    249573.57   -78003.675    5509.6433   -83513.318     69.79766   0.97088938 
   30800    225.73839     -60.3687    249725.25   -77979.665    5449.6816   -83429.346    70.291693   0.97029968 
   30900    225.92086   -106.96889    249599.91   -78001.549    5454.0866   -83455.636    70.435059   0.97078695 
   31000    222.69062   -10.235148    249578.08   -77997.645    5376.1037   -83373.748    70.434891   0.97087183 
   31100     223.5372   -71.435105    249476.04   -78023.216    5396.5413   -83419.757    70.754982   0.97126895 
   31200    222.94543   -176.41263    249271.36   -78141.733    5382.2551   -83523.988    70.920802   0.97206646 
   31300     223.5985   -14.739764    249605.86   -78012.023    5398.0212   -83410.044    71.035393   0.97076379 
   31400    222.64991    58.882076    249427.06   -78074.303    5375.1207   -83449.424    71.231145   0.97145968 
   31500    223.24022    232.65854    249455.52   -78012.288    5389.3716   -83401.659    71.401065   0.97134883 
   31600    224.75309    128.31269    249488.57   -77936.783    5425.8949   -83362.678    71.591315   0.97122015 
   31700    225.42072   -80.588049    249429.63   -77982.257    5442.0126    -83424.27    71.567149   0.97144967 
   31800    227.16174    29.813828    249386.73   -77971.361    5484.0435   -83455.404    71.959453   0.97161678 
   31900    225.18484    26.758571    249364.43   -77974.528    5436.3178   -83410.846    72.230875   0.97170365 
   32000     227.9251    150.14523    249697.32   -77888.887    5502.4721   -83391.359    72.610002   0.97040821 
   32100    224.13568    87.201152    249973.05   -77996.382    5410.9896   -83407.372    72.811253   0.96933783 
   32200    224.28291   -80.344521    249740.29   -77988.869    5414.5441   -83403.413    72.992865   0.97024125 
   32300    225.26957    45.559977    249942.51   -78029.535    5438.3634   -83467.898    73.215318   0.96945627 
   32400    225.82269   -60.172237    249810.43   -77984.702    5451.7166   -83436.419    73.317373   0.96996884 
   32500    221.75752    65.020822    249618.37   -78047.491     5353.577   -83401.069    73.568623   0.97071513 
   32600    223.11621   -108.13004    249815.05   -78056.941     5386.378   -83443.319    73.678154   0.96995087 
   32700    229.13698    90.459583    250022.66   -78010.061    5531.7289    -83541.79    74.103567   0.96914548 
   32800    224.46233    39.252623     250159.5   -78049.302    5418.8755   -83468.178    74.347705   0.96861534 
   32900    223.14251    135.21773    250504.26   -78140.037    5387.0129    -83527.05    74.645481   0.96728227 
   33000    224.02491   -51.700072    250622.35   -78120.137    5408.3154   -83528.452    74.862671   0.96682651 
   33100    221.43992   -65.162715    250375.98   -78170.148    5345.9096   -83516.058    75.008319   0.96777785 
   33200    225.15985    -6.251292    250565.55    -78048.11    5435.7148   -83483.824      75.1522   0.96704565 
   33300    226.34934    121.35779    250336.92   -78001.554    5464.4308   -83465.985    75.475685   0.96792885 
   33400    223.33164   -115.85953    249774.27   -78082.506    5391.5788   -83474.085    75.633772   0.97010924 
   33500    227.99753    160.89302    249565.98   -77950.608    5504.2206   -83454.829    75.750632    0.9709189 
   33600    225.53284    -28.83237    249625.58   -78023.146    5444.7192   -83467.865    75.837482    0.9706871 
   33700    224.60929   -2.8932468    249550.56   -78007.923    5422.4233   -83430.346    76.067572   0.97097893 
   33800    223.31055   -135.26599    249645.34   -78060.767    5391.0696   -83451.837    76.338492   0.97061026 
   33900    222.70437   -6.7473221    249587.42   -78015.689    5376.4355   -83392.124    76.322982   0.97083552 
   34000    225.91147  -0.15657832    249554.61    -77998.68      5453.86    -83452.54     76.40844   0.97096315 
   34100    223.74037    62.627922    249534.23   -78062.798    5401.4462   -83464.244    76.684221   0.97104245 
   34200    226.48176    -66.79621     249411.7   -78082.301    5467.6276   -83549.929    76.935138   0.97151949 
   34300    222.45141    44.310868    249390.88   -78082.686    5370.3286   -83453.014    77.486824    0.9716006 
   34400    227.28852   -54.891072    249349.07   -78029.967    5487.1041   -83517.071    77.675513   0.97176351 
   34500    226.58843   -96.663783    249181.19   -77829.207    5470.2029    -83299.41    77.869963   0.97241821 
   34600    225.08182   -5.9411721    249154.07    -77810.54    5433.8308    -83244.37     78.05381   0.97252408 
   34700    223.82103   -7.3249505    249090.16   -77988.957    5403.3934   -83392.351     78.03407   0.97277358 
   34800    221.53501   -8.3880847    249227.41   -77958.027    5348.2054   -83306.233    78.332665   0.97223787 
   34900    227.18785    95.933329    249212.34   -77904.544    5484.6737   -83389.218    78.383732   0.97229666 
   35000    224.65853    107.42692     249398.6   -78008.129    5423.6121   -83431.741     78.55967   0.97157053 
   35100    224.33043   -122.11963    249579.33   -77967.722    5415.6912   -83383.413    78.827859   0.97086699 
   35200    227.94661    62.858104    249568.84   -77839.448    5502.9914   -83342.439    79.113387   0.97090779 
   35300    228.24932     3.432239    249376.69   -77785.596    5510.2994   -83295.895    79.364852    0.9716559 
   35400    224.03039   -33.246005    249565.81   -77940.114    5408.4476   -83348.561    79.599565   0.97091958 
   35500    223.60511   -75.678736    249546.39    -77984.78    5398.1807   -83382.961    79.801778   0.97099512 
   35600    225.13952    16.097848    249666.28   -77972.636    5435.2239    -83407.86    79.996165   0.97052886 
   35700    224.84574   -68.896557     249548.7   -77968.238    5428.1315    -83396.37    80.101833   0.97098616 
   35800    224.65673    54.379343     249381.5   -77925.703    5423.5684   -83349.272    80.348046   0.97163713 
   35900    229.30045    60.140527    249395.72   -77889.274    5535.6752    -83424.95    80.649594   0.97158175 
   36000      226.715   -53.401836    249099.22   -77955.312    5473.2583    -83428.57    81.129105   0.97273821 
   36100    224.72999    10.730287    249443.89   -77971.099    5425.3372   -83396.436    81.130706   0.97139412 
   36200    224.42182   -17.766056     249241.3   -78009.067    5417.8975   -83426.964    81.253157   0.97218369 
   36300    223.73368    101.44851     249319.5   -78006.156    5401.2847   -83407.441    81.599158   0.97187878 
   36400    227.72698    7.3912238    249513.02   -77953.557    5497.6892   -83451.246    81.990749     0.971125 
   36500    227.83273    220.75847    249577.43   -77840.228    5500.2421    -83340.47    82.081318   0.97087436 
   36600    226.70991    122.84331    249736.38   -77913.453    5473.1355   -83386.588    82.276578   0.97025644 
   36700     226.6001    9.8223815    249646.85   -78001.263    5470.4845   -83471.748    82.527131   0.97060439 
   36800    227.28761   -235.19845    249742.82   -78046.857    5487.0821   -83533.939    82.748426   0.97023143 
   36900    224.54302     -64.9259    249564.92   -78065.253    5420.8234   -83486.077    82.927086   0.97092302 
   37000    224.49637   -18.779663     249635.3   -78076.369    5419.6971   -83496.066    83.215702   0.97064929 
   37100     222.3498   0.47711456     249660.7   -78046.362    5367.8757   -83414.238    83.423326   0.97055054 
   37200    225.47923    15.245856    249682.92   -78057.527     5443.425   -83500.952    83.896364   0.97046416 
   37300    224.39038   -107.90866    249405.16   -78012.885    5417.1384   -83430.023    83.837563   0.97154497 
   37400    225.14669    120.71044    249542.78   -78041.966     5435.397   -83477.363    84.118702   0.97100919 
   37500    221.08471    20.655337    249499.79    -78114.23    5337.3342   -83451.565    84.321056    0.9711765 
   37600    220.40745    55.358548    249697.12    -78037.68    5320.9843   -83358.664    84.498554   0.97040899 
   37700    221.97636     42.17564    249807.18   -77994.858    5358.8603   -83353.719    84.693786   0.96998145 
   37800    224.40823   -85.653173    249994.43   -78030.172    5417.5693   -83447.741    85.189927   0.96925493 
   37900     224.5161     23.77735     249971.1   -78036.947    5420.1735   -83457.121    85.327176   0.96934536 
   38000    222.94667    81.026261     250281.9   -78028.518    5382.2849   -83410.803    85.849024   0.96814166 
   38100    223.74906   -34.928841    250364.91   -78075.453    5401.6561   -83477.109    86.058891   0.96782066 
   38200    224.26636    133.73964    250747.24   -78053.019    5414.1444   -83467.164    86.228381   0.96634496 
   38300    222.79225    146.47699       250773   -78097.324     5378.557   -83475.881    86.492619   0.96624569 
   38400    224.22768    30.082138    251019.83   -78236.359    5413.2106    -83649.57    86.973689   0.96529558 
   38500    221.23649   -63.694946    250902.49   -78300.496    5340.9986   -83641.495    87.089499   0.96574701 
   38600      224.265    6.3818894    250883.25    -78198.34    5414.1115   -83612.452    87.261005   0.96582106 
   38700    228.39775   -29.189677     250795.2   -78119.553    5513.8826   -83633.436    87.550363   0.96616014 
   38800    222.78123   -12.295137    250921.11   -78130.991    5378.2909   -83509.282    88.235538   0.96567536 
   38900    226.22215    65.016124    250957.31   -78090.981    5461.3603   -83552.341     88.10852   0.96553604 
   39000    225.73717   -76.111059    250646.67   -78115.615    5449.6522   -83565.268    88.428393    0.9667327 
   39100    223.17153     13.91906    250516.12   -77992.062    5387.7135   -83379.775     88.74765   0.96723646 
   39200    225.24682   -20.848603    250247.31   -78021.484    5437.8143   -83459.298    89.262284   0.96827545 
   39300    222.96517    23.246056    249950.12   -77988.615    5382.7315   -83371.347    89.358829   0.96942674 
   39400    223.05567    141.15692    249956.88   -77956.632    5384.9165   -83341.548    89.564288   0.96940051 
   39500    224.66468   -39.528403    249775.29   -77985.285    5423.7604   -83409.045     89.65769   0.97010529 
   39600    227.85521    137.68023    249446.57   -77887.879    5500.7849   -83388.664    90.125528   0.97138369 
   39700    225.16319   -59.412872    249803.23   -77938.401    5435.7953   -83374.196    90.454324    0.9699968 
   39800    224.49411    87.395482    249804.62   -77980.963    5419.6427   -83400.606    90.396469    0.9699914 
   39900    223.98237    32.827187    249650.75   -78077.331    5407.2883   -83484.619    90.441864   0.97058923 
   40000    223.40572    6.1100146    249552.82   -78179.666    5393.3671   -83573.033    90.797482   0.97097013 
   40100    222.67238    31.148323    249448.86   -77998.595    5375.6633   -83374.259    90.988602   0.97137476 
   40200    224.68315   -8.1604486    249561.52   -78027.689    5424.2063   -83451.896    91.151014   0.97093625 
   40300    226.02995    86.852016    249554.41   -77988.299    5456.7203   -83445.019    91.372124   0.97096392 
   40400    226.30414    -180.6548    249229.76   -77973.282    5463.3396   -83436.621     91.72541   0.97222872 
   40500    222.81377     16.10977    249421.35   -78001.427    5379.0765   -83380.503    91.723176    0.9714819 
   40600    226.59791   -8.4663799    249329.46   -77926.069    5470.4318     -83396.5    91.957421   0.97183994 
   40700    226.08537   -33.347101    249189.53   -77975.671    5458.0581   -83433.729     91.84258   0.97238568 
   40800     225.5323   -19.056978    249169.06   -78009.546    5444.7062   -83454.253    92.202437   0.97246556 
   40900     224.8802   -13.538158    249246.38    -77961.26    5428.9634   -83390.224    92.322038   0.97216389 
   41000    226.26729    76.906119    249325.14   -78042.053    5462.4501   -83504.503     92.61407   0.97185679 
   41100    222.95218    39.153562    249530.67   -78075.315    5382.4179   -83457.733    92.787405    0.9710563 
   41200    223.33427   -163.58732    249645.82   -77989.325    5391.6422   -83380.968    92.866729   0.97060842 
   41300    223.92896   -116.32573    249335.28   -77996.533    5405.9991   -83402.532    92.893494   0.97181725 
   41400    223.01548   -84.876584    249102.85   -78053.533    5383.9461   -83437.479    93.089645   0.97272404 
   41500    223.95179    88.021198    249168.64   -77956.661    5406.5503   -83363.212    93.603329   0.97246719 
   41600    222.06782   -30.965469    249376.16   -78036.054    5361.0681   -83397.122     93.92942   0.97165794 
   41700    228.21927    44.238683    249444.19   -78008.684     5509.574   -83518.258    93.950983   0.97139297 
   41800    225.72942   -50.236868    249480.13   -78019.718    5449.4649   -83469.183    94.082044   0.97125303 
   41900    225.75607   -12.440336    249392.04    -77905.92    5450.1083   -83356.028    94.154197   0.97159608 
   42000    225.01402   -23.966461     249416.6   -77987.926     5432.194    -83420.12    94.413271   0.97150041 
   42100     226.1053    20.622603    249281.69   -77966.998    5458.5394   -83425.538    94.576152   0.97202619 
   42200    226.98266    -49.77089    249575.27   -77931.344    5479.7203   -83411.064    94.530323   0.97088276 
   42300    222.24409   -22.056946    249327.77   -77930.509    5365.3236   -83295.833    94.527546   0.97184653 
   42400      222.198   -41.362486    249205.27    -78118.08    5364.2109   -83482.291    94.825828   0.97232426 
   42500    225.34621   -32.351892    249042.61   -78017.657    5440.2137    -83457.87    95.004443   0.97295933 
   42600    222.93161    114.80612    249512.92   -78086.158    5381.9213   -83468.079    95.389099    0.9711254 
   42700    221.73956   -84.971322    249565.65   -78040.038    5353.1434   -83393.181    95.417863   0.97092021 
   42800    221.69484    9.8008655    249376.91   -78098.463    5352.0638   -83450.526    95.468159   0.97165504 
   42900    223.08841    7.2408538    249401.98   -78091.513    5385.7067   -83477.219    95.818468   0.97155735 
   43000    224.92394    35.136197    249386.91   -78078.493    5430.0195   -83508.513    95.749476   0.97161606 
   43100    223.57203    51.685336    249391.78   -78075.756    5397.3822   -83473.138    95.848197   0.97159708 
   43200    224.46263   -90.710473    249800.72   -78043.722    5418.8827   -83462.605    96.337449   0.97000652 
   43300    223.33962   -15.843048     249571.4   -78050.318    5391.7715   -83442.089    96.328497   0.97089784 
   43400     223.1957    88.650992    249408.08   -78150.539    5388.2969   -83538.836    96.534431    0.9715336 
   43500    222.17282   -107.86274    249436.53   -78085.679     5363.603   -83449.282    97.022175    0.9714228 
   43600    223.83398    -108.4013    249312.58   -78121.462    5403.7061   -83525.168    97.331416   0.97190573 
   43700    220.23659   -36.622211     249293.7   -78091.902    5316.8593   -83408.762    97.790236   0.97197937 
   43800    226.52138    156.76505    249005.19   -77992.354    5468.5842   -83460.938     97.67209   0.97310554 
   43900    224.70141   -64.525092    249044.79   -78034.643    5424.6472    -83459.29    97.975181   0.97295081 
   44000    221.79291   -46.497884     248818.2   -78118.237    5354.4313   -83472.668    98.384979   0.97383684 
   44100    226.24432    146.64084    248501.19   -77982.087    5461.8955   -83443.983    98.383453   0.97507914 
   44200    225.51207   -41.906823    248683.73   -77968.368    5444.2178   -83412.586    98.580223   0.97436343 
   44300    223.55164    7.5233938    248920.72   -78009.545    5396.8899   -83406.435    98.960298   0.97343575 
   44400    222.42581    34.378417    248882.26   -78065.788    5369.7106   -83435.498    99.150692   0.97358619 
   44500    221.67466    114.04767    248723.05    -78094.87    5351.5767   -83446.447     99.26898   0.97420938 
   44600    224.21163   -14.655052    248706.25   -78027.349    5412.8231   -83440.172     99.54602    0.9742752 
   44700    223.47264    66.789959    249013.81   -78144.254    5394.9827   -83539.237    99.931779   0.97307186 
   44800    223.17452   -20.174505    249200.88   -78149.738    5387.7857   -83537.524    99.932926    0.9723414 
   44900    226.34159   -2.3855145    249323.22    -78106.52    5464.2437   -83570.764     100.2402   0.97186427 
   45000    224.98588    42.452772    249481.92   -78080.496    5431.5146    -83512.01    100.54707   0.97124607 
   45100    224.22381    85.428066    249677.75   -78138.696    5413.1172   -83551.813    101.03204   0.97048428 
   45200    222.38723    62.700907    249849.61   -78126.769    5368.7792   -83495.548    101.08183   0.96981673 
   45300    228.17344    30.607467    250229.85   -78134.673    5508.4676    -83643.14    101.34798   0.96834302 
   45400    222.45831   -101.34511    250254.49   -78113.179    5370.4952   -83483.675    101.54699   0.96824767 
   45500    223.65266     57.44174    249952.75   -78097.636    5399.3287   -83496.964    101.49252   0.96941652 
   45600    223.27361    52.356716    250005.02   -78068.337    5390.1777   -83458.514    101.76356   0.96921387 
   45700    224.78532  -0.50501754    249983.96   -78051.048    5426.6728   -83477.721    102.06422    0.9692955 
   45800    227.57971    25.883919    249826.69   -77936.217    5494.1339   -83430.351     102.3516   0.96990569 
   45900    225.65346    11.520106    249719.53   -77965.257    5447.6311   -83412.889    102.73067   0.97032192 
   46000    222.96795    42.094123    249953.84   -78003.798    5382.7987   -83386.597    102.75656   0.96941232 
   46100    223.55305   -33.813239    249561.71   -78051.612    5396.9239   -83448.535    102.77539   0.97093554 
   46200    225.29135   -96.115668    249432.91    -78031.03    5438.8892   -83469.919    102.69071   0.97143689 
   46300    225.67769   -23.200706    249549.41   -77993.934    5448.2161    -83442.15    102.63884   0.97098339 
   46400    228.99222    30.755512    249661.85   -77993.933    5528.2342   -83522.167    102.88569   0.97054607 
   46500     227.4197    30.241848    249801.87   -78021.101     5490.271   -83511.372    103.11606   0.97000206 
   46600     227.0279    94.095165    249838.76   -77985.957    5480.8123   -83466.769    103.31417   0.96985885 
   46700    227.54739   -170.70013    249506.21   -78003.075    5493.3536   -83496.428     103.5161   0.97115151 
   46800    224.48156     10.60658    249784.15    -77901.35    5419.3398    -83320.69    103.55074   0.97007089 
   46900     225.8575   -110.98135    249700.88   -77938.566     5452.557   -83391.123    103.51506   0.97039438 
   47000    229.19687   -39.471801    249540.29   -77898.448    5533.1746   -83431.623    103.95224   0.97101887 
   47100    228.17414     43.18218    249470.17    -77989.84    5508.4843   -83498.324    104.17648    0.9712918 
   47200    227.21426   -3.0796875    249599.83   -77939.174    5485.3113   -83424.486    104.35109   0.97078725 
   47300    222.76144   -80.471737    249498.04    -78033.51    5377.8132   -83411.323    104.41624   0.97118331 
   47400     225.0893    82.964575    248943.39   -77941.652    5434.0114   -83375.664    104.51598   0.97334712 
   47500    229.54313    153.80707    249110.71    -77917.99    5541.5339   -83459.524    104.70858   0.97269336 
   47600    228.60869    57.523778     249528.7   -77949.748    5518.9752   -83468.723    105.25132   0.97106398 
   47700    226.81631    12.504623    249385.19   -78016.856    5475.7041    -83492.56    105.38006   0.97162277 
   47800    222.78239    82.712732    249499.29   -78051.505    5378.3189   -83429.824    105.56155   0.97117845 
   47900    224.46059    76.523918    249303.33    -78084.76    5418.8334   -83503.594    105.53227   0.97194183 
   48000    222.94327   -71.639803    249410.76   -78087.383    5382.2029   -83469.586    105.71612   0.97152315 
   48100    224.30306    -48.67753    249224.27   -78088.325    5415.0305   -83503.356    106.04163   0.97225014 
   48200    222.83752    97.773954    249175.26   -78073.904      5379.65   -83453.554    106.31737   0.97244135 
   48300    224.38221   -55.953775    249143.85   -78054.875    5416.9412   -83471.816    106.22654   0.97256395 
   48400    226.63098    34.651008    249389.22   -78024.188    5471.2302   -83495.419    106.61345   0.97160707 
   48500    223.44371    63.028053    249541.37   -78042.818    5394.2843   -83437.103    106.80639   0.97101467 
   48600    223.91591     49.46892    249256.17   -78132.256    5405.6839   -83537.939    106.95009    0.9721257 
   48700    223.86057   -61.588427    249279.12   -78074.685     5404.348   -83479.033    106.98008    0.9720362 
   48800    224.91086    140.59188    249228.82   -78153.883    5429.7037   -83583.587    107.39175   0.97223238 
   48900    225.17193    2.1228294    249290.03   -78153.259    5436.0063   -83589.266    107.42914   0.97199366 
   49000    224.97676    94.562122    249490.64   -78130.008    5431.2945   -83561.302    107.48526    0.9712121 
   49100       225.15   -93.584793    249688.25   -78161.457    5435.4768   -83596.934    107.76181   0.97044345 
   49200    222.99502   -29.103571    249669.25   -78260.052    5383.4522   -83643.504    108.18459   0.97051731 
   49300    224.43253    7.5872871    249700.71   -78277.092    5418.1561   -83695.249    108.56797   0.97039504 
   49400    223.50418   -68.937168    249870.43   -78170.778    5395.7442   -83566.522    108.96283   0.96973593 
   49500    221.82789    -26.98493    249755.97   -78176.039    5355.2759   -83531.315     109.1154   0.97018033 
   49600    226.05933     84.34459    249894.89   -78130.992    5457.4295   -83588.422     109.2234     0.969641 
   49700    223.57287     27.86627    250342.38   -78155.828    5397.4024    -83553.23    109.53228   0.96790773 
   49800    224.34743   -46.989951    250523.73   -78078.756    5416.1017   -83494.858    109.68706    0.9672071 
   49900    226.45071    126.45096    250675.23   -78081.123    5466.8781   -83548.001    110.03669   0.96662254 
   50000    223.50332   -7.6538455    250763.34   -78117.968    5395.7233   -83513.692    110.37424   0.96628292 
   50100     224.2378     15.87015    250810.96     -78213.3    5413.4549   -83626.755    110.46079   0.96609944 
   50200    221.39873   -72.713933    250707.84   -78133.337    5344.9152   -83478.252    110.61858   0.96649682 
   50300    224.16182     93.87217    250580.31   -78188.483    5411.6206   -83600.104    110.67019   0.96698871 
   50400    225.46486   -46.324381    250536.55   -78171.679     5443.078   -83614.757    110.94114    0.9671576 
   50500    224.98465   -47.147306    250460.55   -78196.307    5431.4852   -83627.792    111.27099   0.96745109 
   50600    223.85296   -81.383661    250143.39   -78182.865    5404.1642   -83587.029     111.1096   0.96867772 
   50700     225.3987    10.364003    250069.21   -78142.934    5441.4808   -83584.415    111.34958   0.96896509 
   50716    223.28758   -30.392586    250045.08   -78184.397    5390.5151   -83574.912    111.36501   0.96905857 
Loop time of 95.8947 on 6 procs for 50000 steps with 8100 atoms

Performance: 225.247 ns/day, 0.107 hours/ns, 521.405 timesteps/s
99.2% CPU use with 6 MPI tasks x no OpenMP threads

MPI task timing breakdown:
Section |  min time  |  avg time  |  max time  |%varavg| %total
---------------------------------------------------------------
Pair    | 72.836     | 75.123     | 78.201     |  20.7 | 78.34
Neigh   | 5.2786     | 5.3512     | 5.4263     |   2.3 |  5.58
Comm    | 10.008     | 13.078     | 15.439     |  50.4 | 13.64
Output  | 0.16832    | 0.16907    | 0.17226    |   0.3 |  0.18
Modify  | 1.6166     | 1.6406     | 1.6587     |   1.1 |  1.71
Other   |            | 0.5331     |            |       |  0.56

Nlocal:        1350.00 ave        1366 max        1338 min
Histogram: 1 0 2 0 1 0 1 0 0 1
Nghost:        2022.17 ave        2037 max        1998 min
Histogram: 1 0 0 0 0 2 1 0 0 2
Neighs:        0.00000 ave           0 max           0 min
Histogram: 6 0 0 0 0 0 0 0 0 0
FullNghs:      37975.0 ave       38565 max       37312 min
Histogram: 1 0 0 0 3 0 0 0 1 1

Total # of neighbors = 227850
Ave neighs/atom = 28.129630
Neighbor list builds = 2988
Dangerous builds = 0

undump              1
unfix               2
unfix               3
unfix               4

# Cut out the Slab
#
region		    top block INF INF INF INF 72 INF side in
delete_atoms	    region top
Deleted 2278 atoms, new total = 5822


################################################
#######         Run Simulation         #########
################################################

reset_timestep      0
log                 log.run_${NAME}
log                 log.run_slab_225K_1atm
