LAMMPS data file via write_data, version 29 Oct 2020, timestep = 800000

4175 atoms
1 atom types

-0.47128477486480946 50.471284774861196 xlo xhi
-0.47128477486480946 50.471284774861196 ylo yhi
-0.47128477486480946 50.471284774861196 zlo zhi

Masses

1 18.015

Atoms # atomic

2456 1 2.5667941078314698 2.4125567183223398 0.9552354270666545 1 1 0
2332 1 32.00273322773043 0.3056961948104654 11.132470654499551 0 1 0
1471 1 7.185505102972759 2.6229481384698086 2.2387483604700815 0 0 1
2806 1 11.73355456093937 0.8692498521309326 0.8269774861916324 0 1 0
419 1 13.709810392841021 1.3108932755513933 3.291734458134283 0 0 0
1889 1 16.309007522802307 0.22396883583533145 3.483481960012016 0 0 1
3705 1 38.06581612498023 -0.3289263208302824 6.026966883248321 0 1 1
1917 1 22.67650787738405 0.1781774291012288 2.135736429755746 0 1 1
32 1 21.670977892133116 2.790594653656765 1.4611428348248465 0 0 1
372 1 26.73340198277945 2.008216070417579 2.9978784438044426 0 0 0
596 1 29.086229107879557 0.32833828155832534 2.9316148178411114 0 0 0
535 1 27.26978155206819 -0.17871090916512355 12.816143393658315 0 0 0
489 1 36.640295750305896 3.1929418179006746 0.6427334397196771 0 0 0
2797 1 30.558000353870113 16.84092494857074 -0.0940187970905777 0 1 0
3884 1 39.6612754132026 1.8253088662645736 2.33709671017353 0 1 1
3668 1 41.943270653546975 0.501453869471237 0.41969481611085113 0 1 1
1983 1 45.10185873707526 0.284400246388158 0.8320587030573292 0 0 1
1819 1 5.688204570515399 19.444300334445426 -0.08466586727126307 0 0 1
1449 1 6.306632662003137 5.207812051483943 1.6384785761321257 0 0 1
331 1 11.067387742863538 4.537449046481418 0.261642694073406 0 0 0
965 1 13.759064661761977 4.172849572049822 3.187585266927763 0 0 1
1412 1 14.272907874642506 5.0382142133859205 0.4825830950547664 1 0 1
3202 1 18.842263919586678 5.739123630415755 0.18410324052371363 0 1 0
2274 1 19.04291902568464 3.505077415995575 2.181896653090571 0 1 0
1531 1 23.700670222362508 4.737924672454129 1.5832339605045038 0 0 1
1937 1 26.006608593769883 3.490188158188573 0.8396144577203672 0 0 1
1760 1 30.783688546123216 3.2840843497199907 0.27360534883454446 0 0 1
576 1 35.07925049673591 5.3099412313712895 1.8991273642214392 0 0 0
1655 1 38.19794070792341 5.713452803709458 1.3423564062774866 0 0 1
35 1 40.276498955308966 4.52686860445008 2.672923615878338 0 0 0
2612 1 42.61935464650627 5.677878484549927 3.8883620999190445 0 0 0
478 1 42.266937825524906 8.710684769260501 0.49593264274952253 -1 0 0
187 1 46.81302856181759 4.944955846161499 3.7005937343649418 0 0 0
2401 1 4.079070091499254 0.3041202271188099 -0.2553331526430803 0 1 0
1514 1 48.20062166985295 2.8559153749885753 2.8861461726833544 0 0 1
2398 1 0.4432719226520113 6.729623966397834 0.23900997161184911 1 1 0
2458 1 7.588540410986507 7.477502578614948 0.8305314153698091 0 1 0
2502 1 10.604626784886438 7.408794128736566 0.448282632480426 0 1 0
83 1 11.278311135343703 9.023067479655293 2.62620447146785 1 0 0
678 1 16.36077032764881 6.971772894367758 0.9515736924242397 0 0 0
396 1 20.37505746653451 7.675918457092504 0.9093354844811332 0 0 0
930 1 22.813770208748817 6.93737924828304 0.28874216634341154 0 0 0
3941 1 27.39099879979237 7.937749819631723 0.2901056568437612 0 1 1
424 1 31.43858096844816 9.002376774108033 1.8932549657669733 0 0 0
1914 1 33.5243319836562 7.554704231462438 1.0723332891872925 0 0 1
1729 1 37.96106326346431 8.30793101474325 2.1401229552447902 0 0 1
425 1 43.813835511138635 7.708505844444566 2.3859595707573105 0 0 0
3540 1 45.763302886594516 5.875707554954097 1.1930886045114026 0 1 1
705 1 34.87579365137499 0.6887822662197067 8.522883355563536 0 0 0
2330 1 50.09647931039369 10.9875290183147 0.7722382973968542 -1 0 0
2056 1 4.718233280676485 10.332338727796818 1.393033384019784 1 0 1
1958 1 7.04540572455952 9.458408079507498 2.5198846480876567 0 0 1
998 1 9.294312645714998 10.985318429500417 2.217728478951211 0 0 0
3942 1 13.816017322926943 10.262839880454235 2.176077759131925 0 0 1
2568 1 37.388874686186 -0.43004315676040505 14.043807265628791 0 1 0
77 1 21.181803809230498 12.626921425405248 2.3641522280688294 0 0 0
697 1 23.39192100380728 24.4369589991849 3.1314709054030883 0 0 0
666 1 24.96213314006417 9.054971378471702 1.391313788120285 0 0 0
56 1 26.418101698570972 11.52791315623846 2.0200301418441087 1 0 0
1543 1 48.779429742520875 3.121884710313323 0.1528894201101103 -1 0 1
462 1 35.37276305085817 9.27050861042203 1.5415838267166704 0 0 0
589 1 39.86318940365966 9.91906577299264 1.274175073841458 0 0 0
1967 1 40.63007370681353 11.597498784442362 3.330480562418593 0 0 1
583 1 46.26088453300382 11.249216055465151 3.0822491829367595 0 0 0
1946 1 48.20453180698689 9.575936959836328 1.6275075475751652 0 0 1
346 1 0.6430072211885429 12.341077115930164 2.708895802683715 1 0 0
3076 1 5.795184527892875 15.098282471627646 0.5381932251489787 0 0 0
2039 1 23.136746136395942 10.630760926655618 -0.44977150878832006 0 0 1
4130 1 10.386853377125552 15.312684292112364 2.7177876578789246 1 0 1
3518 1 14.846369076679098 14.899275952620348 1.2357709896230695 0 0 1
2732 1 17.25337058382757 14.128974563848077 0.21620929405158862 0 0 0
985 1 24.797406394442408 12.941141736603251 0.2496172942246463 0 0 1
39 1 22.92423363612014 14.641230892971064 1.5338134582681668 -1 0 0
3125 1 28.71125054658745 15.041054728402033 0.6876042938552385 0 1 1
2636 1 29.325915146599947 12.60249141455437 1.5510392244591489 0 0 0
3851 1 34.21122508218042 14.87029522621075 1.7926067754816302 0 1 1
2072 1 37.29537433124251 15.239163845650364 2.409159382779233 0 0 1
1628 1 38.61841122486605 14.507058294118266 0.0286492360499917 0 0 1
4091 1 42.533575467845495 13.269621324933388 1.9898120135961999 0 1 1
1701 1 44.84124590951379 12.039614254194626 1.057250551534315 0 0 1
609 1 46.57846205145394 14.042037850794399 0.32702457701394316 0 0 0
2446 1 46.96208315237878 15.585826138385915 2.6877026369485044 0 0 0
1553 1 3.008415632534914 16.054355494192915 0.8259483190963866 1 0 1
2405 1 3.9266202134894526 18.509077820740636 1.7289061496912597 1 0 0
429 1 7.8827758237780525 17.836067682820154 0.3428827666036236 0 0 0
155 1 14.232545777158842 17.36256387158357 0.8536625500383206 0 0 0
1753 1 19.216213038663795 16.50937314567438 0.11812373509616692 0 0 1
60 1 18.615644150163757 17.593302705590517 2.4953030633028765 0 0 0
4083 1 21.761095893891483 16.57224955052654 0.2082630394154794 0 0 1
1283 1 22.5893963998582 19.075906757958244 1.3560046569199036 0 0 1
2150 1 24.25616174233708 24.982855745976185 10.104586640253585 0 0 0
3810 1 27.161385102493846 16.286540592193393 2.866637231812317 0 1 1
231 1 30.65443047917471 10.751494759493498 -0.01891448154481601 0 0 0
1808 1 32.17718615385809 17.01707106336019 2.0618549657684517 0 0 1
2536 1 36.8537950350067 17.773478793906442 2.368113989117229 -1 0 0
1876 1 41.40356175437657 15.277618283088676 0.546623657313458 0 0 1
3551 1 40.86323949586205 18.314003912000608 0.5848348405403114 0 0 1
3894 1 43.686243644760765 18.756474210396323 1.2597472387621356 0 0 1
1887 1 49.53237398606508 16.862175355974703 2.7734370732347187 0 0 1
3323 1 40.84091920646398 24.871813463467163 8.89307381141821 -1 0 0
1494 1 2.065390501298741 20.54161167403936 1.5273870908668328 1 0 1
1704 1 41.729530722554045 3.4924181892813255 -0.019283622614389873 0 0 1
431 1 6.29880452430429 22.036340446657125 0.02233478941681527 0 0 0
1773 1 12.10598361730689 21.27658018707601 0.48012991721908627 0 0 1
334 1 20.745674341652265 20.817645025649608 0.8759576611239455 0 0 0
1734 1 26.540273702677194 18.595141809807583 1.538876153789304 0 0 1
1416 1 28.93074605510725 18.97703254385607 0.05651479907026624 0 0 1
1140 1 31.24924449398972 21.360959071154742 0.5419551026321845 0 0 0
922 1 8.577117730156196 3.0437461048864245 -0.1808880082548674 0 0 0
2316 1 44.062941657985434 21.254087581531003 2.032443809178613 -1 0 0
2250 1 46.94326114869993 20.773556268463174 1.9596950811806049 -1 0 0
2914 1 49.116816840642514 18.819033491774245 0.7813621084906766 0 0 1
7 1 -0.3071812787150896 23.90421992680542 2.836032555367469 1 0 0
529 1 9.696416989223794 11.956283183787457 -0.23029732787831292 0 0 0
2026 1 8.198776410650547 23.135920390272723 1.876752321099215 0 0 1
136 1 10.675710935366466 23.543287991845684 0.8909060469724246 0 0 0
1528 1 30.065828324854 0.8440308421476821 0.21015134610585628 0 0 1
1693 1 17.26206558280079 22.008865479122427 2.5026484222184795 0 0 1
78 1 19.986960560686843 22.164317374878873 3.094647501170943 0 0 0
406 1 4.289824248568915 4.447440595094673 -0.3028845396498359 0 0 0
543 1 25.195611180048118 22.784737762882706 1.5961435655435765 0 0 0
905 1 15.684874297301583 21.595565758513356 16.465752841860017 0 0 0
2750 1 5.630324542268539 0.01013188237572571 6.6968206219921225 0 1 0
151 1 29.166692735988644 23.785316752744162 0.10203654187045719 0 0 0
216 1 5.377272314822484 12.541437745170173 0.02399922426421741 0 0 0
849 1 32.93856880546481 23.259328727128857 1.911136180831892 0 0 0
433 1 37.34175331315089 22.740562663858835 1.2750181657619888 0 0 0
458 1 39.946871285306884 22.925323835443585 1.7432027262789203 -1 0 0
262 1 42.98644002718149 22.96031588954061 0.35390361249160407 0 0 0
2118 1 48.15685949684753 23.404845650168554 1.9385065116915596 0 0 0
175 1 2.6968729806630662 1.4365271233403762 3.3350192154457576 1 0 0
1414 1 5.301745122600954 1.4576663276060156 4.260092877138893 0 0 1
2315 1 11.47428152155622 1.3719282457122264 4.855535463464358 0 1 0
2233 1 8.924138557140262 3.1445771641673845 4.304127413797353 0 1 0
244 1 20.502312306826795 10.450232366472278 0.5021539660965386 0 0 0
578 1 18.638288873027946 1.409487967657733 3.995632740773682 0 0 0
654 1 24.85994134748714 0.24373426965079326 4.113126127547287 0 0 0
4025 1 33.186426766633886 0.44285855383732775 3.175650084777815 0 1 1
3652 1 30.99968462011603 1.6884745440413527 4.209736624676382 0 0 1
75 1 35.77203963112758 1.928026940577833 3.2271678685274607 0 0 0
2076 1 36.881794296068165 13.436045603401265 15.361181161898552 0 0 0
4150 1 37.17216743755259 2.2668153984346384 5.496571538559159 0 1 1
2655 1 40.801814534506676 0.1448904335173108 6.146894222514048 0 1 0
2395 1 44.289212059444324 1.0032096036885656 3.3489887189710945 0 1 0
1820 1 48.121926408617696 0.43430118499187553 4.8314865824761695 0 0 1
1473 1 1.5133447580550474 2.817462284881124 5.23647751962642 1 0 1
2299 1 2.7977159424195874 5.086703014098629 6.674426920434037 0 1 0
4142 1 5.651969028781487 6.1105186993334355 4.125245592748425 0 1 1
289 1 5.841947377231212 4.019761640007358 5.700529806606516 0 0 0
256 1 8.798521544086011 3.5527143177815983 7.085664679842527 1 0 0
2126 1 11.226723880236902 4.49063387942006 3.062101301228952 0 1 0
1771 1 14.972197589754172 5.898524431912454 4.728999216744657 0 0 1
321 1 17.491882479780767 4.841763499931302 6.172587728304232 0 0 0
3521 1 19.73056047839738 5.2528750131443696 4.448594071904921 0 1 1
158 1 22.227332525543012 4.808349646767167 5.686160671232242 0 0 0
518 1 24.28845448424555 5.527625717706325 4.060722999545902 0 0 0
184 1 26.69096308521278 4.257848717651221 4.652064598203939 0 0 0
3766 1 29.35218486579207 5.269623330641868 4.235760656667176 0 1 1
51 1 31.402018649576682 4.171473831172759 2.978675139170022 0 0 0
378 1 34.13522603294297 4.010553526620194 4.081418393010327 0 0 0
269 1 39.526844427816485 4.200409505234301 5.269046164155483 0 0 0
3808 1 44.46282132443933 3.7353584575614818 4.515034891294461 0 1 1
575 1 43.51915607865064 3.469740138273285 7.309484486886045 0 0 0
190 1 50.21821125395125 4.212865417747959 4.15342071877936 0 0 0
316 1 0.44306304075605274 6.695637398072844 3.0192560571011247 0 0 0
328 1 2.9121515223725574 6.918608390788315 4.395210588505907 0 0 0
1649 1 7.010370498026514 8.425054610329154 5.023774461817977 1 0 1
3780 1 9.420047878451435 8.196761668569101 6.201750089794821 1 1 1
618 1 11.136451511856645 6.774177045356438 4.489375109900421 0 0 0
4138 1 13.174473048134761 6.80837188534006 6.44271456680682 0 1 1
1626 1 15.433029239528057 8.11485140651582 3.1915373170715213 0 0 1
594 1 17.62431349359573 8.914993447035414 4.419638056112654 0 0 0
3640 1 20.04661692045254 7.936685273548305 3.6787472638600622 1 0 1
3661 1 24.41035413315788 8.329220374893259 3.8921158461725405 0 1 1
1780 1 22.113352830149417 8.995988268312798 5.0131874461294235 0 0 1
1836 1 29.110897871560653 7.632206654362802 2.5252167579089893 0 0 1
645 1 32.41586033234448 7.581388170481613 6.255119499333332 0 0 0
1767 1 34.61116603475726 5.913323592841133 5.946178574793674 0 0 1
1266 1 37.516869036082454 5.990020125469443 6.0151980361297035 0 0 0
137 1 37.961037269080904 8.464256559265749 5.102895642493421 0 0 0
304 1 41.602350721671314 6.476328165027171 6.270449117623355 0 0 0
322 1 45.274672776322376 8.216952292632005 6.710337052538219 0 0 0
332 1 47.694577104818705 7.079457709743259 5.271230508956493 0 0 0
2040 1 49.544454985891875 8.389027011113631 3.7932649015536777 0 0 1
412 1 3.1247854036970897 11.050408694543355 3.51188232784047 0 0 0
536 1 2.9067307785565943 9.329639542023978 5.656735771078573 1 0 0
3229 1 14.361829261221667 11.8595574074567 4.3081108634731065 0 0 0
587 1 17.38125155635553 11.799137973320075 4.2836109867790615 0 0 0
440 1 22.468548944762922 11.676167540476358 4.91492119135633 0 0 0
661 1 26.078357343195094 9.866023631668297 5.704971328869594 0 0 0
3509 1 28.785389490911744 8.83737672958361 5.002514304898445 0 0 1
599 1 30.241981950362124 11.491396101338578 5.308105751273461 0 0 0
1786 1 32.150477774699425 9.731965938142075 4.567012619488526 0 0 1
505 1 34.785626199243765 10.784057909857696 3.8536367119603794 0 0 0
808 1 36.57000834424687 10.759334770600764 5.8348111922405 0 0 0
253 1 40.23924949139797 8.978826612050032 6.506431476093233 0 0 0
2140 1 41.99175613051082 10.77228507284013 5.4783549008180685 0 0 0
43 1 44.28572629113552 9.40211231767506 4.2596499933339675 0 0 0
2311 1 49.48783275306418 10.149121242328553 5.892923021541276 -1 0 0
3856 1 2.125117124405627 15.355102494185408 4.825979643307872 1 0 1
3095 1 4.26067180851453 13.3272637221488 4.6463908644614955 1 0 0
4021 1 6.410187481178478 14.345287561925012 3.211197272407331 0 0 1
791 1 8.625694026678486 13.00677471731708 3.9629665741846907 0 0 1
1724 1 14.68455592449225 14.570959513454602 4.0078852658415 0 0 1
1446 1 18.66333284333212 13.475827393895191 2.7047731282295904 0 0 1
89 1 24.77165054312219 15.36094942043139 3.674020866012703 0 0 0
1894 1 25.008493791668972 12.568831772590844 4.682725277675552 0 0 1
663 1 30.850606555723434 13.452474630792894 3.6729866759571577 0 0 0
1557 1 33.65769644820081 13.449741075272097 3.917281043361861 0 0 1
2217 1 33.92261337842692 14.685633345084533 6.246621991202537 0 0 0
76 1 38.55890870735823 12.597893013233753 5.30905212215079 0 0 0
1892 1 38.179544029547756 15.254289096277656 5.008887091123503 0 0 1
140 1 42.62529755581025 15.170968222432819 3.9594062324180257 0 0 0
3706 1 42.99177917183489 13.378671499767082 6.256269777053393 0 0 1
2452 1 47.378316657604145 13.397781686930957 4.378877449387048 0 0 0
2037 1 49.887671048710246 12.679047984982287 4.930377833050346 0 0 1
1798 1 0.8853538919574611 15.078332444487517 2.2723937735049367 1 0 1
549 1 2.8034619479169596 17.833086462506685 5.5585772466399765 0 0 0
3245 1 6.906089277276888 16.744995459578977 4.349562203880007 0 0 1
109 1 9.020359760582052 17.674313399619894 2.7083486326816644 0 0 0
120 1 12.378658854884684 15.972335668856608 4.592241615083797 1 0 0
1988 1 13.710885106256102 18.354326992246033 3.6030229728572225 0 0 1
2624 1 16.090781112386658 16.189560978610135 5.672857894968421 0 0 0
46 1 15.880364542011872 18.931299956640366 5.731039101189584 1 0 0
200 1 18.5929678137814 15.58020759339787 4.379459459069618 1 0 0
2404 1 21.46110589633831 18.086279943543026 3.83303617664647 0 0 0
3885 1 23.224940759022726 16.70086486300434 5.8006932642737725 0 0 1
727 1 30.795499546194705 16.05879085697619 4.3281627462663765 0 0 0
524 1 28.707584316179357 17.73784565886572 4.481188749547324 0 0 0
2413 1 40.33178344971738 16.65730416097526 4.70689613400983 -1 0 0
122 1 39.408437474372064 18.46206715823414 2.949666819297501 0 0 0
700 1 44.63561731943071 17.102040829921844 3.2992878099317413 0 0 0
864 1 45.68925867293106 18.189489650781592 5.630656572686219 -1 0 0
3687 1 49.48974298302376 18.439178082251395 5.158216025552264 -1 0 1
1066 1 0.8829897538694627 19.878724525597903 5.573234823490521 0 0 0
210 1 1.3987599338092052 21.87061812413217 3.7340999625888758 0 0 0
1489 1 5.006974726666543 18.798205891018057 4.2329097984968955 1 0 1
1579 1 5.7049247652170445 21.371348479150672 4.690985949771489 0 0 1
3542 1 10.173807668521562 19.851434751329442 3.9351931747526283 0 0 1
2996 1 12.59686578610965 20.762038531556218 3.21772548723758 0 0 0
579 1 16.397417649094614 19.145776487631256 2.9370792399820917 1 0 0
3504 1 20.554534726648175 20.36746402552723 5.136413571795225 0 0 1
1692 1 25.079976497480356 21.287255980747233 5.878073853966682 0 0 1
291 1 25.92484060979868 20.700094825698294 3.1440626861884584 0 0 0
2569 1 30.12857680305903 20.14610946997793 4.050054347921958 0 0 0
1932 1 32.105643913069585 19.676168932362067 2.4281948268621143 0 0 1
300 1 34.74783624189534 19.559137165132217 3.230692144409189 0 0 0
1174 1 34.84695539461923 20.0228597196453 5.9520814109037925 -1 0 0
1061 1 40.001934017563315 21.141782651049898 3.8959213824603864 0 0 0
502 1 42.79082417669477 21.344784287162852 4.533254987394611 -1 0 0
36 1 43.22298234218472 19.255080680314162 6.31889837589689 0 0 0
3626 1 47.52334223854824 20.06360081982002 4.621589670240562 -1 0 1
512 1 11.766506440707888 22.44050161950394 15.252072829117893 0 0 0
693 1 3.5546569383000266 23.33737429542816 4.592736851850138 0 0 0
692 1 8.396653250161073 22.209992943534157 4.260050847444266 0 0 0
90 1 11.6303601771545 24.15364077992649 3.451278793006533 0 0 0
1822 1 9.657800105984913 24.285545781663433 5.587146929621199 0 0 1
3562 1 13.623798932234429 22.86784091556619 4.874547017789019 0 0 1
2052 1 16.0949737312461 23.919715784428707 4.0877122221545426 0 0 1
31 1 24.654890390837163 18.34759022770648 -0.3833554222757333 0 0 0
681 1 28.587631951871124 21.78067350014881 2.5859108432188758 0 0 0
3553 1 29.032537099603587 24.242421607382244 4.060291438187529 0 0 1
3978 1 31.90634611848058 24.082329996502285 4.400118439843488 0 0 1
1429 1 35.49808272988065 22.447240136009366 3.218650250235615 0 0 1
2171 1 36.6869188653736 23.430982378764394 5.412655965312016 0 0 0
2430 1 40.80242553729258 24.43572623040413 6.370410895866021 0 0 0
1896 1 39.08210278325994 22.39184780370925 5.964115665255091 0 0 1
2883 1 43.394333498233095 23.943449997820473 5.492572394459495 0 0 0
4056 1 1.0948237056910977 1.4024603023444644 7.497849686795839 0 1 1
2101 1 2.593952485709701 1.302965510442148 9.573890069828263 1 0 1
2546 1 5.425330163789251 2.240922328860415 9.640187103561432 0 1 0
484 1 7.470450960963615 1.5581570447165212 8.143211284057308 0 0 0
409 1 11.296882289950208 2.7322807013721766 7.41055574946367 0 0 0
2970 1 14.463641446544393 1.0846345075647146 7.889717853869257 0 1 0
479 1 17.649861663245566 2.2938979440485907 8.832983865288778 0 0 0
3216 1 19.245384431296806 0.7896447410796481 6.7373227396888264 0 0 1
1258 1 22.141754907982595 1.997825713369195 6.597305651022953 0 0 0
2639 1 24.83786320128986 1.3058508265232058 6.591309120767004 0 1 0
2302 1 28.702670733615815 1.3807702117900746 8.208584745456726 -1 1 0
619 1 46.05883651272224 8.95672972342769 15.973398342770842 -1 0 0
1222 1 30.96503233604454 1.679414469073202 7.108488717044908 0 0 0
1228 1 27.751636346950097 23.86853607885646 14.455329117969235 0 0 0
660 1 36.047554210028835 3.1768810899270656 7.796024524423803 0 0 0
604 1 37.410106047656456 2.6380963146333936 10.214624108978478 0 0 0
2889 1 45.53175930586363 23.771643568145414 13.812275773284746 -1 0 0
312 1 45.23898660626084 2.2856817798206737 8.6729557368574 0 0 0
1851 1 49.21657938981026 0.7289412488122953 7.268259576352524 0 0 1
263 1 0.4662570171864193 5.584763844924083 8.343042741593086 0 0 0
509 1 4.957261385366227 4.7278298492474775 8.589480582434048 0 0 0
2767 1 9.226226798835608 6.2712518537214565 8.099266176635663 0 1 0
3889 1 6.944956880782325 6.323857712180463 9.424052963774436 0 0 1
3325 1 12.897595172789043 4.895277408795959 8.140407742092673 0 0 0
2606 1 15.43025066467459 3.6758358329262606 7.778872436657705 0 0 0
2431 1 21.190940305784927 3.156012405193333 9.139780046479444 0 1 0
2029 1 26.76214966475618 3.2753902735154474 7.350463790349974 0 0 1
2137 1 25.738645636749254 4.599345928546944 9.380648252851412 0 0 0
2193 1 31.59634846147689 4.235793080024062 8.374896274822602 0 1 0
1804 1 34.20777870319883 5.078525393291626 8.625875786204316 0 0 1
1059 1 40.01979654762272 3.2438323559274016 9.767630393049831 0 0 0
3580 1 40.92196264844931 2.6463257896768475 7.248564197070823 0 1 1
2225 1 47.923667432309244 3.2425276780705006 7.886195643890346 0 1 0
552 1 49.02331022528388 5.2459790743884485 6.571178215204643 0 0 0
1413 1 0.6457599523880289 8.031664790127163 9.59865375252374 0 0 1
778 1 5.373439188210419 9.886365280872708 6.756965029879264 0 0 0
172 1 5.8395281263933825 8.825359058103798 9.584867699379977 0 0 0
631 1 14.775876043070998 8.822976522077644 7.508259958082069 1 0 0
1640 1 17.496432325092105 7.759162578554859 6.826061417300237 0 0 1
225 1 19.993072675454346 7.34335128235133 8.368979819280684 0 0 0
1039 1 22.59578563433008 7.113623950409974 7.2082146596708965 0 0 0
568 1 25.06619605471994 8.387117205251226 7.9601531786130035 0 0 0
271 1 29.977675825897265 5.954291140409199 6.816909300663297 0 0 0
2705 1 28.996632701691745 8.136155578864946 8.096295790128096 0 1 0
1212 1 32.7992675795048 9.702975614668699 8.252666525912868 0 0 0
4050 1 38.204753415271156 6.889792434016603 8.762122922047288 0 1 1
2059 1 43.82035120143183 5.991944489298849 7.7450057908414625 0 0 1
1893 1 42.850212308682 7.0297058833395845 9.949430444118601 0 0 1
386 1 0.8905237243974373 9.917238895705689 7.464186536650161 0 0 0
318 1 8.686312930367338 12.48034111315426 6.520890359118998 0 0 0
1948 1 5.843934750589118 12.561095937642715 6.739191472406978 1 0 1
2023 1 10.449195127004941 10.349518170896415 7.176421059405019 0 0 1
113 1 10.324763244238152 9.70655225759022 9.846056894243072 0 0 0
624 1 12.994107936586792 10.973476532215527 6.731317865847236 0 0 0
758 1 13.743838637818438 11.4673667832466 9.59819220515333 0 0 0
638 1 17.707193947809248 10.129906126516193 8.58288960053137 0 0 0
3760 1 18.165726996254723 12.384760030209572 6.958457711922358 0 1 1
715 1 20.0864092647446 9.680381347827312 9.79942067644265 0 0 1
676 1 21.888341038687617 11.760640129442347 9.308072815632553 0 0 0
2578 1 24.764736496274846 10.806945460897483 9.088758728887196 0 1 0
3837 1 32.05116348713699 12.593121975297779 7.323860779196339 0 1 1
444 1 35.280176773645394 10.40227309041002 8.391810695798469 0 0 0
16 1 39.517491098013224 10.313747315085612 9.039648744744344 0 0 0
3536 1 44.46726009288608 10.632003758935666 7.850660715130115 0 0 0
2621 1 47.042030041023594 11.84689760481963 8.718091136991603 0 0 0
1710 1 47.60554601936121 9.359517167235161 7.641717628823093 0 0 1
33 1 0.008966522845436975 14.68416775628977 6.327957269329491 0 0 0
1210 1 0.7540168195445212 12.637474124971822 7.857686039547152 1 0 0
70 1 5.556821560259163 13.789014281737039 9.277175607890596 0 0 0
1430 1 9.763790616259188 14.877239806243045 7.689475758939871 0 0 1
1267 1 14.167629264180862 14.077453285944754 8.759479951739053 0 0 0
134 1 16.78014319983092 14.635656588527738 7.762564541513617 0 0 0
2743 1 20.939553827950185 12.883951072790213 6.958157720608122 0 0 0
94 1 25.15990847712572 15.327244768801936 8.059476290405506 0 0 0
976 1 28.70721500652237 12.830892512346933 8.148669520286637 0 0 0
904 1 25.91243675229549 12.720991599218348 7.379428693368391 0 0 0
451 1 30.779865357773335 15.038565367664631 8.657318249479621 0 0 0
119 1 34.83360139642011 13.118597846730983 8.687773770519494 0 0 0
471 1 36.68255609211151 15.822372373653952 7.054294208288783 0 0 0
2231 1 37.42063708791957 14.416701334864015 9.474684696754569 0 0 0
1481 1 39.265746743713834 13.195232711968645 8.097924263515823 0 0 1
2320 1 41.98268804809794 13.708672157026594 8.85088404164046 0 1 0
634 1 45.94930494647771 13.488953343941667 6.589680374121851 -1 0 0
501 1 3.827934478554135 17.27031733464457 7.823636215736041 0 0 0
1816 1 6.286504468904268 16.392600506454936 8.89767448696692 0 0 1
2177 1 8.072702549335537 16.823629166266635 6.804505818397288 0 0 0
59 1 11.869810230123008 18.31737362842826 8.148378262331704 0 0 0
592 1 12.232655399860235 15.650547332317128 7.452038148169974 0 0 0
24 1 20.56936556089365 15.510935439316857 6.625231952577615 0 0 0
913 1 20.12389114276173 17.482638577359598 8.768016564113388 0 0 0
2206 1 25.216304434948768 18.60568903195195 6.816115603704517 0 0 0
1852 1 27.937521427496744 15.781661701422692 8.825914691205716 0 0 1
408 1 27.834262177592144 17.8976409971489 7.22611089606093 0 0 0
1355 1 31.96422313731932 16.29953086441314 6.855994329603091 0 0 0
809 1 36.782357225431554 18.37072796075784 7.386898892862549 0 0 0
1853 1 40.70515624512052 18.10472280563762 7.135072928611863 0 0 1
2728 1 42.29570671685269 16.69717944094152 9.06434696012773 -1 0 0
112 1 46.43014194325221 15.873054077801086 7.180947917967794 -1 0 0
2409 1 44.99652378416235 16.64006633194965 9.607221157088624 -1 0 0
1725 1 49.01006722795795 16.534722461551542 7.228647380997102 -1 0 1
71 1 50.145931162427644 17.286414506825256 9.954186791330939 0 0 0
3234 1 1.346581968404856 21.235363420226143 8.0012448597413 0 0 0
1617 1 3.915610095188951 20.054413532324435 8.261779716272201 0 0 1
1448 1 5.729383548931553 21.81094732973167 7.342476559747487 0 0 1
2334 1 8.363589154241332 20.837217643003513 8.358372046185233 0 0 0
1903 1 9.735935969412273 19.124402754269703 6.743000169858042 0 0 1
2633 1 14.268207447648626 19.729308998804562 7.887570939912489 0 0 0
2053 1 18.00765794713034 20.751806519375325 6.385263884274886 0 0 1
492 1 19.47409277121314 20.138100689312505 8.705411255951466 0 0 0
169 1 22.136991524677523 21.158032111567426 8.867577831223231 0 0 0
101 1 23.956891061441176 19.11345810445557 9.433684922918605 0 0 0
3607 1 22.525054664536576 21.918593672786685 6.520854897482758 0 0 1
461 1 28.971497321025677 20.31388297423675 7.958324571648406 0 0 0
3268 1 31.208539078155702 20.95577682344484 6.387599792854476 0 0 0
3735 1 32.677858210899416 19.054041195019824 7.402768558029389 0 1 1
824 1 39.46779374361235 20.32594686611026 7.964183748333882 0 0 0
182 1 43.86066966519847 20.768924402287027 8.402014026209963 0 0 0
65 1 45.59302945078332 19.57298971033105 9.826996901375775 0 0 0
507 1 49.545072888962466 21.696977733192405 9.102659528694138 -1 0 0
1902 1 1.9535490606831352 23.76339060374273 6.914522838043788 0 0 1
110 1 4.5497894969478265 24.08648853749469 8.227506570549789 0 0 0
302 1 10.427492351838323 22.674151935943527 7.845807629108949 0 0 0
173 1 13.65915363480722 22.500180564877137 7.807239825945397 0 0 0
1469 1 16.023406089851893 24.10961341891346 8.295877034125816 0 0 1
1601 1 17.57644548617595 23.259936763368003 6.213738146421532 0 0 1
3750 1 37.63572925046009 0.2702344840719406 1.5811100247793415 0 1 1
1619 1 15.131656413759435 -0.46216709373713605 5.691773189877936 0 0 1
2190 1 20.45977787715948 15.007549047395855 15.64524690894039 0 0 0
3050 1 26.891061260722516 22.167276914726273 7.5649633902796385 0 0 0
498 1 31.551844002005954 24.203012930618794 9.141432954128494 0 0 0
2389 1 32.518552736094264 23.14211532490224 6.795853510436469 0 0 0
11 1 35.222395111697296 22.317919005802793 7.227140326303026 0 0 0
1934 1 40.67469621741171 21.12334976051122 -0.3614573108677942 0 0 1
1335 1 45.20823571946512 23.107768312249167 7.644498674283486 0 0 0
2491 1 47.7656122420199 22.126931946040774 6.774832529726066 0 0 0
3857 1 40.61343040443455 24.75694176217735 13.373849931363585 0 0 1
357 1 1.6066954333366232 12.799102023580167 16.114191384186682 1 0 0
628 1 8.45247176652419 0.8647347004624935 12.563648629745 0 0 0
463 1 6.495598926354757 2.8739912125871903 11.900926517993407 1 0 0
2648 1 11.454487869777248 0.6427589112220753 9.20469499378338 0 1 0
3045 1 12.710221484358112 1.5727679333544393 11.651541899210022 0 1 0
696 1 15.01085024256727 0.13463557335716048 11.212229609857838 0 0 0
421 1 17.612471841823815 1.2606690307351833 11.664873676074045 0 0 0
3090 1 21.78366288449123 1.785046245075895 11.653282881920125 0 1 0
2210 1 24.293889660511223 0.7984774771526655 10.776464550393186 0 1 0
3508 1 22.292058116494697 22.801084456290976 13.627532913160701 0 0 0
982 1 29.102628807268392 0.4196032699528963 10.822848083262013 0 0 0
362 1 44.36325104227524 22.450436781167006 16.072092428901858 0 0 0
615 1 47.48292442072757 7.645240405523817 -0.061952517937511276 -1 0 0
371 1 41.60665358824532 1.9599898039488446 11.4629638185353 0 0 0
945 1 46.018852256076755 1.185566536056229 12.103396960722518 0 0 0
468 1 48.77101946771977 1.736534752300071 12.321867581827759 -1 0 0
597 1 0.9101131013388102 3.6931885140392975 10.344601459844496 1 0 0
282 1 2.0647443914957035 4.655751309557374 12.690399857631418 0 0 0
704 1 7.683171762534425 5.312468291138917 11.817037536791556 0 0 0
452 1 11.196401619601332 6.335753656571397 12.54760631694881 0 0 0
245 1 14.623198408111834 5.435141450048592 10.44377423933864 0 0 0
627 1 13.184051891553198 4.381716315833816 12.481775530520254 0 0 0
88 1 17.329773344389125 5.245073423984797 11.467317012955784 0 0 0
410 1 18.722783761848564 4.941242971645622 9.230123587513157 0 0 0
2752 1 23.147408323623544 5.158679554285628 9.404223763859623 0 1 0
203 1 25.809521544596308 2.8255620072978695 11.374982563780605 0 0 0
1032 1 28.680378219401216 3.077730397202056 11.576548888538031 0 0 0
2048 1 31.20294006263016 4.537225286240291 11.179339508205766 0 0 1
305 1 32.469334061471784 2.600592108149388 12.692005812242368 0 0 0
699 1 36.9433116985401 4.335160747177737 12.311293350421883 0 0 0
2174 1 34.800464761560235 3.4134534631275466 13.817486037291214 0 1 0
2154 1 40.187829080724356 6.006052802651714 10.158306217691374 0 1 0
353 1 44.20899955979074 2.993097548833207 10.949318318663208 0 0 0