
# Create simulation box of size 50 x 50 x 50 Angstrom
#
lattice	            sc 1
Lattice spacing in x,y,z = 1.0000000 1.0000000 1.0000000
region 	            all block 0 50 0 50 0 50 units box
create_box          1 all
Created orthogonal box = (0.0000000 0.0000000 0.0000000) to (50.000000 50.000000 50.000000)
  1 by 2 by 3 MPI processor grid

# fill box with 4175 randomly distributed atoms
#
create_atoms        1 random 4175 63782 all
Created 4175 atoms
  create_atoms CPU = 0.001 seconds
mass                1 18.015

# Define potential
#
pair_style          sw
pair_coeff          * * ML_mW.sw mW
Reading sw potential file ML_mW.sw with DATE: 2019-02-27

# Run minimization
#
minimize            1.0e-8 1.0e-8 10000 1000
WARNING: Using 'neigh_modify every 1 delay 0 check yes' setting during minimization (../min.cpp:187)
Neighbor list info ...
  update every 1 steps, delay 0 steps, check yes
  max neighbors/atom: 2000, page size: 100000
  master list distance cutoff = 6.0032907
  ghost atom cutoff = 6.0032907
  binsize = 3.0016454, bins = 17 17 17
  1 neighbor lists, perpetual/occasional/extra = 1 0 0
  (1) pair sw, perpetual
      attributes: full, newton on
      pair build: full/bin/atomonly
      stencil: full/bin/3d
      bin: standard
Per MPI rank memory allocation (min/avg/max) = 4.255 | 4.258 | 4.261 Mbytes
Step Temp E_pair E_mol TotEng Press 
       0            0    7792709.3            0    7792709.3    5898794.3 
     630            0   -45180.336            0   -45180.336   -154.07449 
Loop time of 1.15455 on 6 procs for 630 steps with 4175 atoms

98.8% CPU use with 6 MPI tasks x no OpenMP threads

Minimization stats:
  Stopping criterion = max force evaluations
  Energy initial, next-to-last, final = 
      7792709.32924461  -45180.0188663597   -45180.336116598
  Force two-norm initial, final = 2.0191930e+08 4.9721331
  Force max component initial, final = 1.0948746e+08 0.73126211
  Final line search alpha, max atom move = 0.053306038 0.038980685
  Iterations, force evaluations = 630 1000

MPI task timing breakdown:
Section |  min time  |  avg time  |  max time  |%varavg| %total
---------------------------------------------------------------
Pair    | 0.88609    | 0.99251    | 1.0438     |   5.8 | 85.97
Neigh   | 0.023744   | 0.024829   | 0.02581    |   0.4 |  2.15
Comm    | 0.066255   | 0.11718    | 0.22497    |  17.0 | 10.15
Output  | 0          | 0          | 0          |   0.0 |  0.00
Modify  | 0          | 0          | 0          |   0.0 |  0.00
Other   |            | 0.02002    |            |       |  1.73

Nlocal:        695.833 ave         704 max         685 min
Histogram: 1 1 0 0 1 0 0 1 0 2
Nghost:        1494.17 ave        1515 max        1468 min
Histogram: 1 1 0 0 0 0 1 1 1 1
Neighs:        0.00000 ave           0 max           0 min
Histogram: 6 0 0 0 0 0 0 0 0 0
FullNghs:      19997.0 ave       20462 max       19320 min
Histogram: 1 1 0 0 0 0 0 2 0 2

Total # of neighbors = 119982
Ave neighs/atom = 28.738204
Neighbor list builds = 26
Dangerous builds = 0

# Add velocity/set timestep
#
velocity            all create ${TEMP} 120598 rot yes dist gaussian
velocity            all create 210 120598 rot yes dist gaussian
timestep            5.0

# Define output
#
compute	            1 all msd
thermo	            100
thermo_style        custom step temp press vol etotal ke pe c_1[4] density

# Neighbor lists
#
neigh_modify        delay 0 every 1 check yes

# Set fixes
#
fix                 1 all momentum 10 linear 1 1 1 rescale
fix                 2 all nve
fix                 3 all temp/csvr ${TEMP} ${TEMP} 500.0 928347
fix                 3 all temp/csvr 210 ${TEMP} 500.0 928347
fix                 3 all temp/csvr 210 210 500.0 928347
fix                 4 all press/berendsen iso ${PRES} ${PRES} 1000.0 modulus 20000
fix                 4 all press/berendsen iso 400 ${PRES} 1000.0 modulus 20000
fix                 4 all press/berendsen iso 400 400 1000.0 modulus 20000

# Run 0.5 ns equilibration
#
dump                1 all custom 1000 eq.${NAME}.dump id type x y z vx vy vz
dump                1 all custom 1000 eq.liquid_density_MLmW.dump id type x y z vx vy vz
run                 100000
Per MPI rank memory allocation (min/avg/max) = 3.506 | 3.508 | 3.511 Mbytes
Step Temp Press Volume TotEng KinEng PotEng c_1[4] Density 
     630          210    801.42152       125000   -42567.537    2612.7992   -45180.336 2.7295415e-33   0.99914793 
     700    134.26257    296.48602    125107.83   -41767.076    1670.4816   -43437.558   0.24300895   0.99828679 
     800    165.99479    171.89124    124959.23     -41045.6    2065.2908   -43110.891   0.57325184   0.99947391 
     900    185.39698    153.58899    124692.14   -40659.318    2306.6909   -42966.009    1.0206669    1.0016148 
    1000     193.8514    658.62506    124638.95   -40397.155    2411.8799   -42809.035    1.4177495    1.0020422 
    1100    203.04303    385.80996     124604.4   -40231.187    2526.2413   -42757.428    1.7610342      1.00232 
    1200    202.84325    361.47923    124744.43   -40265.775    2523.7557   -42789.531     2.103117    1.0011949 
    1300    200.41413     276.0251    124671.01    -40257.81    2493.5328   -42751.342    2.4658631    1.0017846 
    1400     207.2937     354.9921    124631.51   -40273.973    2579.1277   -42853.101     2.711981     1.002102 
    1500    208.71761    401.97916     124789.9   -40237.326    2596.8439    -42834.17    2.9748122    1.0008301 
    1600    214.01565    421.67041    124852.13   -40162.556    2662.7616   -42825.318     3.329299    1.0003313 
    1700    211.82263    176.14023    124845.06   -40214.879    2635.4762   -42850.355    3.6621453    1.0003879 
    1800      206.963    260.19858    124634.03   -40295.032    2575.0132   -42870.045    3.8571675    1.0020818 
    1900    211.81191    463.80261    124561.22   -40296.077    2635.3428   -42931.419    4.1067171    1.0026675 
    2000    210.27251    544.47902    124790.57   -40255.725    2616.1898   -42871.914     4.444656    1.0008247 
    2100    214.17793    381.18651    124981.64    -40215.34    2664.7807   -42880.121    4.6200697   0.99929474 
    2200    209.83552    455.98573    125139.43   -40238.956    2610.7528   -42849.709    4.8752613   0.99803469 
    2300    214.57136    412.42951    125289.83   -40246.008    2669.6757   -42915.683    5.1023981   0.99683664 
    2400    207.65671    447.21028    125398.44   -40271.673    2583.6443   -42855.317     5.416231   0.99597326 
    2500    214.71938    308.54085    125583.78    -40248.23    2671.5172   -42919.748    5.7035198   0.99450337 
    2600    217.72585    434.34991    125686.19   -40216.728    2708.9236   -42925.651    5.9750806     0.993693 
    2700    213.43932    409.58527       125852   -40245.738    2655.5909   -42901.329    6.2408995   0.99238381 
    2800    218.91367    477.57214    126001.61   -40240.831    2723.7022   -42964.533    6.5433829   0.99120554 
    2900    208.40753    336.33589    125951.39   -40329.987    2592.9858   -42922.972    6.8401038   0.99160074 
    3000    214.95043    443.37323    126053.66   -40371.842     2674.392   -43046.233    7.1491367   0.99079621 
    3100    215.55962    398.10753    126163.97    -40352.47    2681.9715   -43034.442    7.4087064   0.98992993 
    3200    209.38865    472.19356    125934.68   -40410.201    2605.1928   -43015.394    7.6357845   0.99173227 
    3300    215.22627    294.03146     125750.5   -40416.773     2677.824   -43094.597    7.8958725   0.99318487 
    3400    209.65779     647.3625    126026.57   -40467.268    2608.5415   -43075.809     8.043121   0.99100919 
    3500    211.73684    405.80512    126064.19   -40507.628    2634.4088   -43142.037    8.2026466   0.99071347 
    3600    208.33291    430.71915    126073.63   -40559.803    2592.0574   -43151.861    8.2647174   0.99063932 
    3700    202.84359    431.72286    126295.31    -40630.09    2523.7599   -43153.849    8.4803919   0.98890048 
    3800    208.58387    391.43377    126243.83   -40591.143    2595.1798   -43186.323    8.7693603   0.98930369 
    3900    208.29691    519.98774    126255.28   -40619.353    2591.6096   -43210.963    9.0543724   0.98921402 
    4000    207.77974    119.02621    126296.11   -40622.479     2585.175   -43207.654    9.0390157   0.98889417 
    4100     212.9436    392.26004    126233.73   -40609.903    2649.4232   -43259.326    9.1484161   0.98938288 
    4200    206.61892    379.04827    126284.58   -40610.628    2570.7322    -43181.36    9.3433981   0.98898453 
    4300    207.86266    504.59305    126305.29   -40617.476    2586.2066   -43203.683    9.5554572   0.98882234 
    4400    207.90773    391.18769    126356.17   -40598.846    2586.7675   -43185.613    9.7760242   0.98842417 
    4500    208.87139    439.58967     126374.9   -40607.122    2598.7572   -43205.879    9.9187864   0.98827766 
    4600    209.92457    377.96376     126498.5   -40665.133    2611.8608   -43276.994    10.032927   0.98731207 
    4700    213.41743    474.41166    126597.41    -40582.89    2655.3185   -43238.209    10.214134   0.98654064 
    4800    206.28957    512.91911    126558.74   -40628.163    2566.6345   -43194.797    10.340218   0.98684209 
    4900    213.09436    348.27698    126631.22   -40505.437    2651.2989   -43156.736    10.519189   0.98627726 
    5000     213.9743    479.28022    126912.56   -40470.524    2662.2471   -43132.771    10.614506   0.98409083 
    5100    213.59101    369.20453    127096.21   -40551.669    2657.4782   -43209.147    11.011574    0.9826689 
    5200    211.61956    379.22292    127068.19   -40616.069    2632.9496   -43249.019    11.235614   0.98288555 
    5300    210.54908    361.49986    127045.99   -40604.038    2619.6309   -43223.669    11.476846    0.9830573 
    5400    207.95595    319.59328    126936.92   -40645.219    2587.3674   -43232.587    11.558782   0.98390198 
    5500    209.47771    225.83854    127042.35   -40647.448     2606.301   -43253.749    11.859946   0.98308553 
    5600    207.91657    274.43821    126967.71   -40648.896    2586.8774   -43235.774    12.104766   0.98366343 
    5700    209.14963    331.88417    126983.69   -40648.831    2602.2191    -43251.05    12.002798   0.98353967 
    5800    209.42269    240.80567    127140.18   -40680.149    2605.6164   -43285.765    12.230076   0.98232905 
    5900    207.06611    357.37374    127107.92    -40707.87     2576.296   -43284.166    12.448438   0.98257832 
    6000    209.23453    384.00314    127119.75   -40702.835    2603.2753   -43306.111    12.670093   0.98248695 
    6100    211.27231    354.23883    126992.14   -40643.334    2628.6292   -43271.963    12.756621   0.98347418 
    6200    206.78642    515.60222    126855.83   -40707.598    2572.8162   -43280.414    12.912375   0.98453093 
    6300    209.67127    243.90302    126914.66   -40669.903    2608.7092   -43278.612    13.136285   0.98407461 
    6400      210.141    375.90849    126953.26   -40646.668    2614.5535   -43261.221     13.33652   0.98377539 
    6500    213.64491    635.85104    126935.35   -40613.403    2658.1488   -43271.552    13.416327   0.98391421 
    6600    208.47476    606.35875    126812.94    -40667.39    2593.8224   -43261.213    13.492541   0.98486392 
    6700    204.64542    198.06098    126850.24   -40723.538    2546.1781   -43269.716    13.676054   0.98457438 
    6800    207.55446    395.62774    126781.75   -40638.378     2582.372    -43220.75    13.772933   0.98510621 
    6900    211.69403    439.03938    126799.07   -40586.398    2633.8762   -43220.274    14.093331   0.98497163 
    7000    211.58591    402.17671    126997.35   -40583.171     2632.531   -43215.702    14.430621   0.98343387 
    7100    214.66541    332.01064    126877.47   -40607.788    2670.8458   -43278.634    14.656498   0.98436306 
    7200    213.64867    461.67705     126922.2   -40664.264    2658.1956    -43322.46     14.76464   0.98401611 
    7300    208.40401    413.38893    127040.02   -40731.282     2592.942   -43324.224    14.975073   0.98310355 
    7400    210.42173    483.95475    127047.73   -40775.137    2618.0463   -43393.184    15.067576   0.98304384 
    7500    207.47964    534.20998    127112.03   -40738.432    2581.4411   -43319.874    15.199625   0.98254662 
    7600    206.12171     396.6764    127031.12   -40815.179    2564.5459   -43379.724    15.395137   0.98317243 
    7700    207.54484    444.93814    126968.83   -40707.643    2582.2524   -43289.895    15.663982   0.98365473 
    7800    215.86248      380.072    126987.53   -40676.514    2685.7396   -43362.254    15.914775   0.98350987 
    7900    207.41324    431.02803    127047.39   -40740.235     2580.615    -43320.85    16.046101   0.98304652 
    8000    210.49548    346.95806    127051.25   -40723.331     2618.964   -43342.295    15.986427   0.98301663 
    8100    211.14692    390.43924    127129.01   -40808.536    2627.0691   -43435.606    16.067057   0.98241537 
    8200    204.63781     387.6104    127048.51   -40830.283    2546.0834   -43376.367    16.043983   0.98303781 
    8300    207.88963    439.21302     127097.2   -40818.141    2586.5423   -43404.683    16.135807   0.98266125 
    8400    206.26202     368.5975    127284.98   -40776.354    2566.2917   -43342.645    16.271698   0.98121153 
    8500    209.45838     399.9779    127176.74   -40720.675    2606.0604   -43326.735    16.461633   0.98204668 
    8600    209.20314    619.60937    127326.65   -40743.799    2602.8847   -43346.684     16.71046   0.98089041 
    8700    208.62804    457.45464    127612.17    -40733.49    2595.7295    -43329.22    16.893904   0.97869575 
    8800    209.37901    456.79874    127642.59   -40770.879     2605.073   -43375.952    16.959442    0.9784625 
    8900    204.14291    344.25533    127638.07   -40841.387    2539.9259   -43381.313    17.133055   0.97849717 
    9000    208.42295    284.28124    127554.67   -40806.404    2593.1777   -43399.582    17.077122   0.97913695 
    9100    208.62496    487.54896    127822.84   -40884.058    2595.6911   -43479.749    17.321528   0.97708274 
    9200    209.31671    557.55803    127947.91   -40808.057    2604.2978   -43412.354    17.429338   0.97612765 
    9300    207.82773    398.97696    128057.19   -40859.805     2585.772   -43445.577    17.472308   0.97529464 
    9400    208.78466    303.90661    127943.05   -40827.343    2597.6782   -43425.022    17.562501   0.97616474 
    9500    208.05594    504.22566    127891.26     -40828.3    2588.6114   -43416.912    17.749722      0.97656 
    9600    210.36221    274.99106    127941.76   -40797.825    2617.3058   -43415.131    17.876356   0.97617456 
    9700     208.8321    575.12968    127976.61   -40747.808    2598.2683   -43346.076    17.999249   0.97590872 
    9800    209.96629     262.9377    128105.14   -40837.027    2612.3798   -43449.406    18.174977   0.97492959 
    9900    206.97801    426.45654    127946.61   -40898.856    2575.1999   -43474.056    18.316571   0.97613755 
   10000    206.70816    438.67474    127982.61   -40904.229    2571.8425   -43476.071    18.412963     0.975863 
   10100    207.47125      490.624    127994.28   -40880.853    2581.3368    -43462.19     18.58111   0.97577401 
   10200    211.76466    412.94285    128012.15   -40933.204     2634.755   -43567.959    18.694483   0.97563778 
   10300    206.47269    596.72923    127952.84   -40933.569    2568.9128   -43502.482    18.823655      0.97609 
   10400    212.88591    388.43472    128275.71   -40891.516    2648.7055   -43540.222    18.941054   0.97363317 
   10500     210.7601    505.00629    128484.43   -40867.719    2622.2563   -43489.975    18.858781   0.97205153 
   10600    210.94623    383.64767    128397.28   -40804.939    2624.5722   -43429.511    18.959274   0.97271132 
   10700    210.23206    430.89611    128364.17   -40805.797    2615.6865   -43421.483    19.084248   0.97296222 
   10800    210.10072    370.41522    128334.25   -40790.626    2614.0524   -43404.678    19.298879   0.97318907 
   10900    210.57505    517.26533     128281.4   -40819.229     2619.954   -43439.183    19.268531   0.97359005 
   11000    212.60372    490.86566    128610.47   -40836.715    2645.1945   -43481.909    19.540755   0.97109892 
   11100    208.42634    483.44924    128628.89   -40874.618    2593.2199   -43467.838    19.742712   0.97095989 
   11200     208.9842    369.89099    128474.43   -40852.781    2600.1607   -43452.942    19.768498    0.9721272 
   11300    209.05228     402.2095    128602.37   -40852.281    2601.0078   -43453.289    19.680931   0.97116014 
   11400    208.40658    468.23969    128430.79   -40849.865    2592.9741   -43442.839    19.763587   0.97245753 
   11500    209.75964    280.85133    128296.79   -40875.927    2609.8087   -43485.736    19.934688   0.97347327 
   11600    209.32874    460.65075    128449.82   -40886.667    2604.4475   -43491.114    20.082515   0.97231346 
   11700    211.37979    400.55504    128492.63   -40790.301    2629.9664   -43420.267     20.28353   0.97198952 
   11800    210.32927    194.86073    128270.71   -40866.621     2616.896   -43483.517    20.381639   0.97367118 
   11900     210.6675    318.14679    128358.75   -40878.444    2621.1042   -43499.549    20.492896   0.97300333 
   12000    208.14451    288.31508    128278.23   -40873.352    2589.7134   -43463.066    20.521087   0.97361411 
   12100    212.51886    547.55487    128323.29   -40825.814    2644.1387   -43469.952    20.650705   0.97327219 
   12200    214.18637    476.99021    128421.34   -40820.499    2664.8856   -43485.385    20.726422   0.97252908 
   12300    211.37587    221.95851    128404.44   -40851.194    2629.9176   -43481.112    20.839335   0.97265713 
   12400    210.00146    523.45506    128384.02   -40850.621    2612.8174   -43463.439    20.835988   0.97281179 
   12500    205.91981    391.48274    128094.86   -40940.058    2562.0339   -43502.092    21.164177   0.97500782 
   12600    209.44345    316.11788    128296.58   -40863.942    2605.8746   -43469.817    21.239652   0.97347484 
   12700    211.36251    317.52534    128188.66   -40847.127    2629.7515   -43476.878     21.27992    0.9742944 
   12800    210.44086    539.74709    128338.47   -40825.261    2618.2844   -43443.546    21.335521   0.97315709 
   12900    209.49009    366.53372    128251.61   -40872.718     2606.455   -43479.173     21.24318   0.97381619 
   13000    217.85073    308.06961    128276.36   -40831.642    2710.4772   -43542.119    21.385047   0.97362827 
   13100     209.6558    538.41607    128376.76   -40833.012    2608.5168   -43441.528     21.72887   0.97286682 
   13200    217.31011    491.83012    128443.58   -40761.828    2703.7509   -43465.579    21.858728   0.97236069 
   13300     212.7764    322.76424       128616   -40803.952    2647.3429   -43451.295    21.895736    0.9710572 
   13400    209.93097    280.09236    128469.69   -40883.361    2611.9403   -43495.302    21.852178   0.97216306 
   13500    208.28834    365.75527    128153.85    -40909.26    2591.5029   -43500.763    21.927512   0.97455903 
   13600    207.27123    307.11661    128195.01   -40926.101    2578.8481   -43504.949     21.88018   0.97424609 
   13700    206.90522    451.80483    128003.13   -40912.027    2574.2943   -43486.321    22.007863   0.97570652 
   13800    214.60865    453.42566    128181.31   -40815.532    2670.1396   -43485.671    22.232312   0.97435026 
   13900    212.22611    363.97918    128125.26   -40843.037    2640.4963   -43483.533    22.421213   0.97477651 
   14000    208.76134    456.61118    128036.57   -40817.073    2597.3879   -43414.461    22.570431   0.97545173 
   14100    208.79931     188.1684    127913.84   -40815.829    2597.8604   -43413.689    22.569536   0.97638759 
   14200    208.17947    407.15597    127894.52   -40852.839    2590.1483   -43442.987    22.864865   0.97653516 
   14300    205.52717    349.69998    127909.27   -40895.046    2557.1488   -43452.195    22.986699   0.97642249 
   14400    212.72735    386.28368    127831.44   -40871.312    2646.7327   -43518.045    23.049301   0.97701698 
   14500     209.8494    433.30119    128109.79   -40821.383    2610.9255   -43432.308    23.226941   0.97489422 
   14600    210.45834    292.98486    128176.41   -40844.535    2618.5019   -43463.037    23.463226   0.97438751 
   14700    209.27932    482.54903    128283.32   -40890.238    2603.8326   -43494.071    23.680354   0.97357543 
   14800     206.5101    394.19958     128423.4   -40936.176    2569.3782   -43505.555    23.918145    0.9725135 
   14900    204.59011    412.53509    128357.33   -40995.422    2545.4899   -43540.911    23.877713   0.97301411 
   15000    206.74395    274.23712    128251.35   -41001.696    2572.2878   -43573.983    23.944007   0.97381812 
   15100    206.77917    568.41393    128412.39   -41025.371     2572.726   -43598.097    24.035983   0.97259687 
   15200    204.00445    413.32818    128405.27   -40956.301    2538.2032   -43494.504    24.097288   0.97265081 
   15300    206.03154    189.50092    128514.67   -40967.101    2563.4241   -43530.525    24.326073   0.97182283 
   15400    208.25049    503.78285    128291.73   -40939.966     2591.032   -43530.998    24.357889   0.97351162 
   15500    211.20993    363.82615    128318.34   -40910.139    2627.8531   -43537.992     24.47158   0.97330976 
   15600    209.21639    391.99881    128381.22   -40844.999    2603.0497   -43448.049    24.729769   0.97283306 
   15700    209.22801    448.08592     128486.8   -40915.365    2603.1942    -43518.56    24.785455   0.97203362 
   15800    207.78936     318.9934    128414.97     -40909.9    2585.2947   -43495.195     24.97222   0.97257737 
   15900    204.26137    362.02265    128459.85   -40935.143    2541.3998   -43476.542    25.061949   0.97223759 
   16000    214.35564    342.33943     128484.7   -40878.291    2666.9917   -43545.283     25.08346   0.97204952 
   16100    214.50573    402.38021    128471.45   -40837.033    2668.8591   -43505.892    25.387342   0.97214976 
   16200    209.48125    384.15558    128380.56   -40907.559     2606.345   -43513.904    25.481275     0.972838 
   16300    205.13782    440.02235    128396.12   -40915.737    2552.3044   -43468.042    25.746052   0.97272014 
   16400     210.0256    266.29996    128410.04   -40832.218    2613.1178   -43445.336    25.886872   0.97261465 
   16500    209.84259    328.28704    128525.96   -40830.082    2610.8408   -43440.923    25.923741   0.97173747 
   16600    213.71159    526.34214    128505.28   -40822.763    2658.9785   -43481.741    25.898275   0.97189383 
   16700    206.52189    301.18933    128337.25   -40853.203    2569.5249   -43422.728    26.049527   0.97316637 
   16800    214.46904    452.22252    128237.78   -40841.786    2668.4026   -43510.189    26.381622   0.97392122 
   16900    214.97996    384.00569     128464.5   -40806.364    2674.7594   -43481.123    26.716845    0.9722024 
   17000     208.3265    476.74244    128519.28   -40827.213    2591.9777   -43419.191    26.879589   0.97178796 
   17100    214.89146    357.48215    128485.15   -40761.048    2673.6583   -43434.706    27.014495   0.97204612 
   17200    213.41826    447.62651    128385.42   -40772.154    2655.3289   -43427.483    27.103448    0.9728012 
   17300    213.86069    296.76517    128188.08   -40830.686    2660.8336    -43491.52    27.059468   0.97429883 
   17400    210.23117    611.16965    128250.76   -40840.209    2615.6755   -43455.885    27.304372   0.97382261 
   17500    209.12171    445.86123    128358.24   -40832.803    2601.8716   -43434.675    27.494225   0.97300722 
   17600    213.03102    154.94009    128348.88   -40809.879    2650.5109    -43460.39    27.467042   0.97307813 
   17700     210.7768     391.0427    128081.92   -40828.753    2622.4641   -43451.217    27.800667   0.97510634 
   17800    213.17561    260.58397    128016.82       -40832    2652.3099    -43484.31    27.952233    0.9756022 
   17900    213.27313    450.52865    127932.27   -40792.571    2653.5233   -43446.095    27.955613   0.97624696 
   18000    213.73308    473.58066     128179.4   -40732.157    2659.2459   -43391.403    28.092455   0.97436474 
   18100    207.03116    356.11352    128295.52   -40832.773    2575.8613   -43408.634    27.999872   0.97348284 
   18200    210.47923    393.39815    128254.36   -40831.713    2618.7618   -43450.475    28.197678   0.97379526 
   18300    215.63564    348.18742    128125.81   -40748.935    2682.9173   -43431.852    28.205356    0.9747723 
   18400    208.13839    446.43744    128105.99   -40825.017    2589.6373   -43414.654    28.304953   0.97492313 
   18500    214.74001    465.04374    127999.32   -40799.088     2671.774   -43470.862    28.407652   0.97573558 
   18600    206.52249    426.74774    128097.26   -40845.808    2569.5324   -43415.341    28.471385   0.97498958 
   18700    209.65556    347.89111    128147.34   -40815.333    2608.5138   -43423.847    28.521518   0.97460851 
   18800    212.41846    517.92286    128149.51   -40801.866    2642.8895   -43444.755    28.670127   0.97459202 
   18900     211.4216    239.36257    128254.17   -40847.972    2630.4867   -43478.459    28.906114   0.97379672 
   19000    210.80886    338.51801    128141.11   -40830.148     2622.863   -43453.011     28.84229   0.97465591 
   19100    208.66888    520.12891    128232.08   -40891.386    2596.2376   -43487.624    29.102547    0.9739645 
   19200    212.41515    463.34286    128404.89   -40874.541    2642.8483   -43517.389    29.335595   0.97265366 
   19300    211.95137    471.17162    128455.33   -40834.447     2637.078   -43471.525    29.385174   0.97227176 
   19400    209.77156    517.19341    128527.37   -40845.047    2609.9571   -43455.004    29.525704   0.97172678 
   19500    211.95482    483.10412    128482.49   -40845.712    2637.1209   -43482.833    29.664268   0.97206623 
   19600    212.91407    461.93015    128759.28   -40896.389    2649.0559   -43545.444    29.653967   0.96997665 
   19700    213.11628    550.67247    128778.92   -40883.724    2651.5717   -43535.295     29.64537   0.96982869 
   19800    210.14457    453.34528    128837.48   -40930.829    2614.5979   -43545.427    29.789224   0.96938786 
   19900    211.41326    239.20328     128977.6   -40949.586    2630.3829   -43579.969    29.922414   0.96833477 
   20000    208.75974     323.2077    128942.77   -40986.626     2597.368   -43583.994    30.015982   0.96859633 
   20100    214.11935    356.10132    128919.83   -40959.735    2664.0517   -43623.787    29.948794   0.96876865 
   20200    208.02187    230.97031    128754.05   -41001.753    2588.1875   -43589.941    29.950495   0.97001605 
   20300    207.97592    359.29375    128780.23   -41031.286    2587.6159   -43618.902    30.133461   0.96981886 
   20400    207.15107    522.92195    128720.56   -41027.648    2577.3531   -43605.001    30.140639   0.97026842 
   20500    211.41497    452.59589    128919.91    -41000.11    2630.4041   -43630.514    30.204713   0.96876808 
   20600    210.89019    400.27986     128974.6   -41032.648    2623.8749   -43656.523    30.226687   0.96835728 
   20700    210.96757     310.5168    128931.16   -40979.469    2624.8377   -43604.307    30.341023   0.96868355 
   20800    210.22661    242.16761    128822.68   -40990.328    2615.6187   -43605.947    30.404359   0.96949922 
   20900    205.97282    570.12835    128898.26    -41017.64    2562.6935   -43580.333      30.7057   0.96893076 
   21000    208.46676    459.80317     128869.8   -41090.859    2593.7229   -43684.582    30.805979   0.96914479 
   21100    206.80478    412.96219    128985.41   -41099.171    2573.0446   -43672.216    30.879484   0.96827614 
   21200    207.96932    397.90774    128819.66   -41076.069    2587.5337   -43663.603    30.812621   0.96952199 
   21300    210.76296    514.45938    128865.44   -41083.666    2622.2919   -43705.958    30.985395   0.96917753 
   21400    205.57277    330.76741    128939.49    -41054.94    2557.7161   -43612.656    31.133144   0.96862095 
   21500    208.50026    349.69576    128868.42   -41050.233    2594.1396   -43644.373    31.184363    0.9691551 
   21600    211.82722    409.31949    128688.72   -41001.159    2635.5334   -43636.693    31.277518   0.97050843 
   21700    212.54288    425.93607     128508.9   -40983.631    2644.4375   -43628.069    31.179772   0.97186649 
   21800    209.37579    425.62533    128507.97   -40968.463    2605.0329   -43573.496    31.030601   0.97187349 
   21900     209.2061    232.28164    128307.88   -40972.812    2602.9216   -43575.733    31.166266   0.97338907 
   22000    208.72138    183.29186    128289.43   -41012.033    2596.8907   -43608.923    31.365163   0.97352906 
   22100    217.09803    572.32545     128418.1   -40953.043    2701.1122   -43654.156    31.435596   0.97255361 
   22200    212.54781    223.77051     128383.1   -40988.098    2644.4989   -43632.597    31.504678   0.97281877 
   22300    213.13288    421.97631    128368.54   -40953.302    2651.7782    -43605.08    31.577102   0.97292913 
   22400    209.76724    352.30759    128448.69   -40913.759    2609.9033   -43523.662    31.755072   0.97232204 
   22500    207.43515    508.89533    128593.16   -40924.027    2580.8876   -43504.915    31.680848   0.97122965 
   22600    214.31877    556.12627    129019.45   -40899.729     2666.533   -43566.262    31.758985   0.96802066 
   22700    212.29918    328.50199    129251.41   -40913.574    2641.4054   -43554.979    31.903119   0.96628341 
   22800    209.98765    342.78584    129026.17   -40904.751    2612.6456   -43517.397    32.180462   0.96797022 
   22900    208.81818    211.61676     129090.7   -40942.698    2598.0951   -43540.793    32.340427   0.96748638 
   23000    214.61635    422.58512     129107.4   -40917.245    2670.2354   -43587.481    32.341075   0.96736125 
   23100     207.9963    426.38036    128948.82   -41017.203    2587.8694   -43605.072    32.549348   0.96855086 
   23200    209.91933    362.66772    129103.87   -40977.915    2611.7955   -43589.711    32.690026   0.96738767 
   23300    208.10031    469.14421    129247.27   -41012.028    2589.1635   -43601.191    32.833783   0.96631434 
   23400    213.47529    218.57786    129324.88   -40955.359    2656.0385   -43611.397    32.914588   0.96573443 
   23500    209.12546    533.67956    129332.79    -41000.05    2601.9184   -43601.968    33.080088   0.96567542 
   23600    208.37248    352.25338    129136.24   -40986.178    2592.5499   -43578.728    33.227844   0.96714516 
   23700    208.31388    487.16993    129108.68   -41012.034    2591.8206   -43603.854    33.257255   0.96735163 
   23800    209.64755    311.25282     128925.4   -41065.262     2608.414   -43673.677    33.165536   0.96872682 
   23900    199.32326    329.79341    128773.25   -41059.335    2479.9603   -43539.296    32.938389   0.96987137 
   24000     209.9454     628.3893    128939.26   -40988.223    2612.1199   -43600.343    33.217238    0.9686227 
   24100    213.11821    491.92291    129017.17   -40995.294    2651.5957    -43646.89    33.354813   0.96803777 
   24200    208.79347    353.41782    129022.66   -41059.003    2597.7877   -43656.791    33.499113   0.96799655 
   24300    211.74233    454.22838    129143.39   -41030.715    2634.4771   -43665.192    33.745795   0.96709163 
   24400     206.5054    389.47086    129184.45   -41066.701    2569.3198   -43636.021    33.966659   0.96678423 
   24500    211.49906     524.7011    128957.59   -41025.816    2631.4503   -43657.266    34.133641   0.96848497 
   24600    207.95526    544.50772    129112.09   -41014.854    2587.3588   -43602.213    34.098847   0.96732605 
   24700    208.57652    442.47578    129214.37   -41047.796    2595.0885   -43642.884     34.15433   0.96656039 
   24800    209.63226    385.51705    129045.89   -41056.141    2608.2238   -43664.365    34.148088   0.96782233 
   24900    212.46533    286.46293    129105.43   -41012.418    2643.4727   -43655.891    34.240113   0.96737597 
   25000    209.26929    254.19893     129025.2   -40979.993    2603.7079   -43583.701    34.454824   0.96797747 
   25100    212.78517    543.75614    128807.51   -40973.379     2647.452   -43620.831    34.467065   0.96961345 
   25200    208.47175    453.20444    129028.29   -41017.584    2593.7849   -43611.369    34.480672   0.96795435 
   25300    210.13906    364.92417    129032.43   -41015.576    2614.5294   -43630.106    34.839729   0.96792323 
   25400    207.12255    417.24076    129110.44   -41007.656    2576.9984   -43584.654    35.135837   0.96733842 
   25500    208.49736    416.72649    129155.33   -40958.782    2594.1036   -43552.886    35.046397    0.9670022 
   25600    204.06767    152.19302    129106.47   -41041.015    2538.9898   -43580.004    35.236055   0.96736816 
   25700    207.60812    459.43412    129097.99   -41060.067    2583.0396   -43643.107    35.210657   0.96743173 
   25800    210.70876    363.82331    129036.35   -41046.987    2621.6176   -43668.605    35.351351   0.96789383 
   25900    210.11969    324.88252     128981.4   -41002.471    2614.2884    -43616.76    35.587058   0.96830621 
   26000    210.45608    387.86257    128994.81   -40930.399    2618.4738   -43548.872      35.7391   0.96820552 
   26100    209.59259    310.49597    128934.28   -41016.695    2607.7302   -43624.425    35.848991    0.9686601 
   26200    208.80242    307.48279    128853.27   -41013.616     2597.899   -43611.515    35.469898   0.96926911 
   26300    209.98397    346.41904     128984.8   -40977.704    2612.5998   -43590.304     35.71651   0.96828069 
   26400    208.30551    299.49479    128811.21   -40952.354    2591.7165   -43544.071    35.831339   0.96958556 
   26500    211.62093    470.82247    128998.47   -41001.552    2632.9667   -43634.519    36.027384   0.96817811 
   26600    208.77701    337.61515    129136.48   -41054.362    2597.5829   -43651.945    35.939761   0.96714337 
   26700    207.90559    471.02697    129230.88     -41082.8    2586.7408    -43669.54    36.267609   0.96643691 
   26800    211.84016    443.87092    129173.93   -41014.423    2635.6944   -43650.118    36.405206     0.966863 
   26900    209.11918    512.14938    129189.96   -41017.355    2601.8402   -43619.195    36.530832   0.96674298 
   27000    208.80968    484.06643    129326.11   -41064.145    2597.9894   -43662.135    36.493151   0.96572528 
   27100    205.32347    343.59223    129329.46   -41082.198    2554.6143   -43636.812    36.470217   0.96570023 
   27200    207.91727    446.68396    129314.95   -41116.491    2586.8861   -43703.377    36.596751   0.96580862 
   27300    213.19164    244.56565    129410.84   -41149.716    2652.5093   -43802.225    36.548263   0.96509298 
   27400    209.03301    358.10068    129357.47   -41102.149     2600.768   -43702.917    36.676523   0.96549113 
   27500    210.53425    333.03455    129440.99   -41043.168    2619.4463   -43662.614     36.72475   0.96486814 
   27600    211.51026    463.77553    129328.93   -41077.197    2631.5898   -43708.787    36.826814   0.96570419 
   27700    209.62547    468.98599    129528.71   -41078.073    2608.1394   -43686.212    36.705688   0.96421477 
   27800    212.18982     398.5735    129414.27   -41018.787    2640.0448   -43658.832    36.762244   0.96506735 
   27900    211.08957    474.56536    129472.36   -41042.621    2626.3556   -43668.976    36.856345   0.96463438 
   28000    209.58703    417.02009     129354.1   -41072.483    2607.6611   -43680.144    36.971697   0.96551627 
   28100    209.72762    385.70689    129550.25   -41050.669    2609.4103    -43660.08    37.135003   0.96405443 
   28200    210.27663    98.910119       129449   -41092.476    2616.2411   -43708.717    37.318295   0.96480849 
   28300    209.03944     283.7467     129210.8   -41091.736    2600.8481   -43692.584    37.302252   0.96658708 
   28400    209.93118    419.66131    129370.41   -41136.218     2611.943   -43748.161     37.30739   0.96539461 
   28500     210.7796     451.0487     129506.2   -41164.596    2622.4989   -43787.095    37.236667   0.96438235 
   28600    210.54225     385.7844    129478.66   -41120.226    2619.5458   -43739.772    37.418262   0.96458744 
   28700    206.32835    472.58156    129590.07   -41143.288     2567.117   -43710.405    37.515244   0.96375822 
   28800    213.32121    550.32528    129750.03   -41121.079    2654.1214   -43775.201    37.593227   0.96257005 
   28900    211.68991      425.135    129805.37   -41089.333     2633.825   -43723.158    37.603924   0.96215967 
   29000    208.10126    194.36012    129653.84   -41163.285    2589.1754   -43752.461    37.719371   0.96328418 
   29100    211.34627    389.31252    129670.37   -41118.362    2629.5494   -43747.911    37.672338    0.9631614 
   29200    207.96934    407.95896    129721.64   -41088.539    2587.5339   -43676.072    37.784554   0.96278067 
   29300    205.79918    488.83394    129650.63   -41150.937     2560.533    -43711.47    37.908548   0.96330804 
   29400    206.82129    402.62859    129654.53   -41198.399    2573.2501   -43771.649    37.922914   0.96327904 
   29500    206.37258    523.52934    129626.87   -41225.056    2567.6673   -43792.724    38.122046   0.96348461 
   29600     207.0848    512.16454    129911.97   -41146.266    2576.5286   -43722.795    38.208384   0.96137013 
   29700    210.18666    283.15948    129909.03   -41195.135    2615.1217   -43810.257    38.253801   0.96139194 
   29800    209.63397    249.59395    129853.98   -41179.322    2608.2452   -43787.567    38.274646   0.96179945 
   29900    209.09162    170.35695    129646.72   -41215.446    2601.4972   -43816.944    38.340748   0.96333707 
   30000    211.53162    391.43244    129698.01   -41186.509    2631.8555   -43818.365    38.368404    0.9629561 
   30100    212.49887    266.01144    129763.88   -41203.507    2643.8899   -43847.397    38.505752   0.96246726 
   30200    208.75401    355.18828    129629.72   -41215.205    2597.2968   -43812.502    38.387315   0.96346337 
   30300    208.88912    436.84891    129763.72   -41179.761    2598.9778   -43778.738    38.557945    0.9624685 
   30400    213.14631    353.95246    129806.26    -41171.11    2651.9453   -43823.055    38.586013   0.96215305 
   30500    210.55337    429.71087    129834.39   -41175.195    2619.6842   -43794.879     38.59044   0.96194461 
   30600     209.0807    323.35031    129852.87   -41159.482    2601.3614   -43760.844    38.772954   0.96180772 
   30700    210.10751    349.06762    129818.47   -41172.015    2614.1368   -43786.152    38.768387   0.96206255 
   30800    212.30819    263.23858    129760.27   -41104.745    2641.5175   -43746.263     38.75408   0.96249411 
   30900     207.2378    437.75762    129625.23   -41218.186    2578.4323   -43796.618    38.667578   0.96349674 
   31000    205.64118    530.91724    129807.03   -41256.995    2558.5673   -43815.563    38.801829   0.96214738 
   31100    210.00242    387.26033    129928.43   -41264.829    2612.8293   -43877.658    39.069241   0.96124839 
   31200    207.94012    296.51744    129950.17   -41272.606    2587.1705   -43859.777    39.075953   0.96108756 
   31300    206.12624    542.53495    129900.62   -41228.444    2564.6023   -43793.047    39.072871   0.96145414 
   31400    211.63753     360.1688     130016.2   -41194.678    2633.1732   -43827.852    39.125879   0.96059947 
   31500    209.05452    483.39418    130024.67   -41246.166    2601.0357   -43847.201    39.185696   0.96053686 
   31600    212.27287    556.23383    130139.75   -41180.669    2641.0781   -43821.747     39.24861    0.9596875 
   31700    208.56604     397.8183    130189.13    -41224.69     2594.958   -43819.648     39.37006   0.95932346 
   31800    216.96574    378.67463    130133.15   -41180.378    2699.4663   -43879.844    39.507576   0.95973619 
   31900    212.34356    368.74082    130064.22   -41166.838    2641.9576   -43808.796    39.681874   0.96024482 
   32000    211.91338    504.78127    130083.55   -41146.576    2636.6053   -43783.182    39.648434   0.96010208 
   32100    207.92248     300.1811    129996.78   -41150.304    2586.9509   -43737.255     39.68659   0.96074294 
   32200    212.24451    410.51091    130122.68   -41145.357    2640.7252   -43786.082    39.757109   0.95981343 
   32300    210.15875    338.61095    130044.74   -41146.132    2614.7744   -43760.906    39.794162    0.9603886 
   32400    209.25171    396.67892    130090.24   -41214.319    2603.4891   -43817.808    39.874503   0.96005275 
   32500     208.7729    503.67449     130180.9   -41229.853    2597.5318   -43827.384    39.946531   0.95938415 
   32600    209.14712    273.70465    130242.14   -41174.385    2602.1878   -43776.573    39.940171   0.95893301 
   32700    211.87699    344.76666    130129.15   -41237.902    2636.1525   -43874.055    39.975143   0.95976571 
   32800    208.34622    315.81301    130182.74   -41271.963    2592.2231   -43864.186    40.132742   0.95937061 
   32900    207.77943     411.3227    130205.08    -41275.04    2585.1711   -43860.211    40.074832   0.95920594 
   33000    208.06937    424.94725    130022.26   -41326.995    2588.7785   -43915.773    40.085064    0.9605547 
   33100    211.00744    287.26411     130029.3   -41252.116    2625.3337    -43877.45    40.215954   0.96050266 
   33200    209.19832      581.028    130188.11   -41281.685    2602.8248    -43884.51    40.448796   0.95933102 
   33300    209.22188     488.8199     130201.5   -41218.374    2603.1179   -43821.492    40.362498   0.95923232 
   33400    206.02242    445.41747    130112.39   -41292.688    2563.3106   -43855.999     40.58488   0.95988927 
   33500    207.32656    531.35122    130176.42   -41246.167    2579.5365   -43825.703    40.521771   0.95941716 
   33600    206.54501    312.87242    130426.43   -41217.371    2569.8126   -43787.183    40.634018   0.95757809 
   33700    210.75495    441.21924    130266.44   -41209.025    2622.1922   -43831.217    40.760843   0.95875415 
   33800    212.31319    391.30772    130196.93   -41205.409    2641.5798   -43846.989    40.900857   0.95926605 
   33900    212.44791    430.75593    130164.15   -41216.373     2643.256   -43859.629    40.717221   0.95950762 
   34000    212.62235    362.02197    130086.15   -41178.136    2645.4263   -43823.562    40.795592   0.96008289 
   34100    206.24983    374.87017    130115.17    -41200.98      2566.14    -43767.12    41.082638   0.95986881 
   34200    206.34204     302.3506    130087.77   -41203.131    2567.2873   -43770.418    40.976516   0.96007094 
   34300    208.41365    369.44267    130037.12   -41259.616    2593.0621   -43852.678    41.020746   0.96044489 
   34400    212.73533    329.44653    130003.97   -41202.916     2646.832   -43849.748    41.073999   0.96068983 
   34500    206.74407    481.16438    130279.77   -41226.194    2572.2893   -43798.484    41.152837   0.95865604 
   34600     208.5354    250.56058    130196.33   -41217.319    2594.5768   -43811.896    41.199137   0.95927044 
   34700    208.82187    357.02743    130086.74   -41287.304    2598.1411   -43885.445    41.263484   0.96007859 
   34800     209.0707    484.20587    129980.67    -41274.64     2601.237   -43875.877    41.302534     0.960862 
   34900    207.61772    353.09712    129826.76   -41279.638    2583.1592   -43862.797    41.479211   0.96200111 
   35000    202.68409    557.81384    129847.12   -41339.594    2521.7754   -43861.369     41.59436   0.96185033 
   35100    206.55751    412.74735    129718.26   -41271.378    2569.9681   -43841.346    41.521912   0.96280577 
   35200    209.24357    479.41198    129622.46   -41278.516    2603.3878   -43881.903    41.674815   0.96351735 
   35300    208.85728    440.63733     129729.8   -41261.418    2598.5817   -43859.999    41.697033   0.96272018 
   35400    207.63005    387.44513    129735.91   -41274.365    2583.3126   -43857.677    41.686398   0.96267481 
   35500    208.06252    412.39147    129660.64   -41170.982    2588.6933   -43759.675    41.932722   0.96323366 
   35600    208.73279    558.36167    129619.43   -41213.408    2597.0327   -43810.441    41.964432   0.96353989 
   35700    209.97148     504.2702    129768.18   -41183.349    2612.4444   -43795.793    41.988655   0.96243544 
   35800    209.37582    388.13105    129584.21   -41226.095    2605.0332   -43831.128    42.062756   0.96380178 
   35900    207.39492    443.96883    129575.96   -41177.921    2580.3871   -43758.309    42.127855   0.96386317 
   36000    211.96041    534.13726    129716.81   -41149.101    2637.1905   -43786.291    42.232185   0.96281654 
   36100    211.20968    343.97956    129771.38   -41170.169    2627.8499   -43798.019    42.185583   0.96241168 
   36200    209.39842    374.95191    129952.08    -41200.27    2605.3145   -43805.585    42.273706   0.96107342 
   36300    207.18902    504.39854    129942.69   -41263.818    2577.8254   -43841.643    42.453382   0.96114287 
   36400    209.94098      429.795    130008.37   -41202.965    2612.0649    -43815.03    42.332552   0.96065734 
   36500    211.25777      417.255    129999.97   -41190.263    2628.4483   -43818.711    42.548355   0.96071936 
   36600    206.53622    375.91028    129920.05    -41318.46    2569.7032   -43888.164    42.608465   0.96131036 
   36700     207.6673    538.18749    129927.49   -41259.369    2583.7761   -43843.145    42.895725   0.96125532 
   36800    204.96525    321.33204    129730.69   -41254.418    2550.1574   -43804.575    42.805763   0.96271353 
   36900    210.57236    338.30435    129684.96   -41277.858    2619.9204   -43897.778    42.781444   0.96305299 
   37000    210.67227    620.93287    130039.76   -41217.501    2621.1636   -43838.664    42.853961   0.96042543 
   37100    208.79557     408.4085    130256.62   -41210.006    2597.8138    -43807.82    42.834535   0.95882646 
   37200    207.94451    394.08932    130031.49   -41251.499    2587.2251   -43838.724     42.91053   0.96048647 
   37300    206.76848    461.29973    129968.65   -41266.875     2572.593   -43839.468    42.937446   0.96095092 
   37400     208.1659    615.03774     130046.9   -41290.648    2589.9796   -43880.628    43.110152   0.96037268 
   37500    208.28963    300.88853    130079.54   -41302.492     2591.519   -43894.011     43.23284   0.96013174 
   37600    208.74441    468.29294    130169.02   -41257.336    2597.1773   -43854.513    43.277026   0.95947171 
   37700    207.59221     483.5354    130064.07   -41257.179    2582.8418   -43840.021    43.427695   0.96024591 
   37800    205.83234    657.47829    130029.74   -41351.949    2560.9456   -43912.895    43.430368   0.96049942 
   37900    206.55105    284.48814    130151.69   -41310.482    2569.8878    -43880.37     43.38176   0.95959947 
   38000    209.65686    572.06709    129935.04   -41273.632    2608.5299   -43882.161    43.341723   0.96119947 
   38100    211.43566    318.35344    130075.09   -41228.799    2630.6616    -43859.46    43.463629   0.96016456 
   38200    209.45515    454.33387    129973.51   -41240.706    2606.0203   -43846.726    43.701187   0.96091493 
   38300     212.0702    490.70251    130143.74   -41192.857    2638.5564   -43831.414    43.651598   0.95965809 
   38400    205.35979    353.79586    129919.03   -41243.268    2555.0662   -43798.334    43.870409    0.9613179 
   38500    206.05401    433.88521    129961.33   -41256.364    2563.7036   -43820.067    43.891695     0.961005 
   38600    208.53135    394.19326    130027.39   -41222.473    2594.5264       -43817    43.893731   0.96051679 
   38700    213.36721     468.7919    130135.53   -41231.645    2654.6938   -43886.339    44.092133   0.95971864 
   38800    208.36199    349.94272    130001.75   -41264.762    2592.4193   -43857.181     44.18501   0.96070623 
   38900    211.54027    582.03434    129983.74    -41222.78    2631.9631   -43854.744    44.216134   0.96083937 
   39000    215.31099    513.54358    130090.19   -41263.532     2678.878    -43942.41    44.353294   0.96005313 
   39100    207.69703    453.31634    130043.71   -41227.239    2584.1459   -43811.385     44.36646   0.96039627 
   39200     206.2763    315.73277    129984.63   -41250.578    2566.4693   -43817.047    44.388688   0.96083279 
   39300    210.69801    507.37754    130027.16   -41244.642    2621.4838   -43866.126    44.502345   0.96051847 
   39400    211.77537    284.15767    129915.25   -41216.003    2634.8883   -43850.891    44.580971   0.96134586 
   39500    209.75568    526.18916    129862.69    -41194.55    2609.7595    -43804.31    44.580687   0.96173495 
   39600     208.5836    402.82964    129876.43     -41240.5    2595.1765   -43835.676    44.681282   0.96163321 
   39700    214.01603    324.00895    129962.42   -41181.015    2662.7662   -43843.781    44.874648   0.96099695 
   39800    210.51725    355.64451    129985.75   -41241.373    2619.2349   -43860.608    45.165385   0.96082448 
   39900    207.34548    345.19688    130010.05   -41273.244    2579.7719   -43853.016    45.192905   0.96064493 
   40000    206.84997    476.55776    129929.23   -41285.694    2573.6069   -43859.301     45.09662   0.96124246 
   40100      213.135    385.73881    129823.54   -41194.506    2651.8046   -43846.311    45.291177   0.96202502 
   40200     208.8163    435.62741    129902.87    -41216.03    2598.0717   -43814.101    45.145523   0.96143753 
   40300    212.90089    263.53026    129725.95   -41204.112    2648.8918   -43853.004    45.091464   0.96274874 
   40400    213.43215     458.6309    129845.38   -41122.046    2655.5017   -43777.548    45.085008   0.96186322 
   40500    212.91529    436.21902    129829.98   -41140.055     2649.071   -43789.126    45.243367   0.96197731 
   40600    211.09635    488.94124     129879.4   -41178.545      2626.44   -43804.985    45.268337   0.96161125 
   40700    210.45963    491.51286    129922.33   -41229.223     2618.518   -43847.741    45.310892   0.96129347 
   40800    206.14965    326.14643    129836.27   -41283.271    2564.8936   -43848.165    45.466634   0.96193069 
   40900    204.89467    330.88008    129766.34   -41302.147    2549.2793   -43851.427    45.625337   0.96244907 
   41000    212.72728    406.23643    129859.11   -41221.432    2646.7317   -43868.164    45.713941   0.96176148 
   41100    212.30398    463.98516     129822.4   -41216.424    2641.4652    -43857.89    45.750495   0.96203346 
   41200    213.76279    362.96044    129987.98   -41228.275    2659.6156   -43887.891    45.805131   0.96080798 
   41300    207.57763    421.83346    129917.14   -41369.565    2582.6604   -43952.225    46.033718   0.96133189 
   41400    209.70683    342.94615    129787.38   -41321.493    2609.1517   -43930.645    46.034015     0.962293 
   41500    205.27061    334.43375    129708.74   -41320.728    2553.9566   -43874.685    46.102823   0.96287645 
   41600    209.16293    423.47215    129768.82   -41286.427    2602.3845   -43888.811     46.11166   0.96243064 
   41700    208.76223    510.09956    129927.25   -41260.258     2597.399   -43857.657    46.076721   0.96125709 
   41800    210.13151    271.42522    130027.41   -41265.799    2614.4354   -43880.234    46.167917   0.96051665 
   41900    212.30069    359.66686    130035.35   -41245.248    2641.4242   -43886.672    46.158091   0.96045799 
   42000    209.94571     370.2647    130023.24   -41235.786    2612.1238    -43847.91    46.341769   0.96054741 
   42100    210.23074    461.77771     130082.1   -41229.794    2615.6701   -43845.464    46.544428   0.96011285 
   42200    209.59325    441.92958    130013.18   -41187.271    2607.7385    -43795.01    46.776902   0.96062177 
   42300    211.15479    356.86277    130053.42    -41154.03     2627.167   -43781.197    46.698807   0.96032451 
   42400    210.05331    447.99379    130018.75   -41199.758    2613.4626    -43813.22     46.93275   0.96058059 
   42500    211.18095    314.35898    129961.95   -41202.463    2627.4926   -43829.956    46.923006   0.96100043 
   42600    212.21551    255.98452    129960.46   -41192.357    2640.3644   -43832.722    46.769777   0.96101145 
   42700    209.16156    320.10799    130014.67   -41205.854    2602.3674   -43808.221    46.905506   0.96061077 
   42800    211.70347    452.16629    130132.13   -41163.826    2633.9937    -43797.82     47.22786   0.95974371 
   42900    211.00752    221.58287    130038.29   -41229.783    2625.3347   -43855.118    47.364926   0.96043629 
   43000    211.78464    352.36308    129980.23   -41252.108    2635.0036   -43887.111    47.420527   0.96086531 
   43100    211.81352    303.35721    130051.48   -41241.572    2635.3628   -43876.935    47.498734   0.96033889 
   43200    207.69648    441.68147    129803.69   -41193.227    2584.1391   -43777.366    47.378547   0.96217211 
   43300    215.99236    394.38721    129793.07   -41208.637    2687.3555   -43895.992    47.288635   0.96225087 
   43400    210.49751    484.31973    129732.18   -41169.996    2618.9893   -43788.985       47.492   0.96270249 
   43500    213.60899    426.03357     129827.9   -41182.624     2657.702   -43840.326    47.659671   0.96199267 
   43600    218.46474    444.20801    129907.76   -41103.294    2718.1167   -43821.411    47.734264   0.96140129 
   43700    214.09952    382.66053    129834.09   -41132.091    2663.8051   -43795.896    47.832992   0.96194684 
   43800    211.92502    353.47215     129982.4   -41148.547    2636.7502   -43785.297    47.939346   0.96084924 
   43900    211.95065    331.87697    129880.72   -41194.219     2637.069   -43831.288    47.922796   0.96160145 
   44000    209.73706    344.11125    129744.11    -41231.61    2609.5278   -43841.138    47.804812   0.96261393 
   44100     207.6407    357.87159    129756.32    -41248.56    2583.4451   -43832.005    48.152067    0.9625234 
   44200    211.44336     493.8112    129754.67   -41290.467    2630.7574   -43921.225    48.206415   0.96253563 
   44300    208.39734    319.86343    129709.01   -41310.943    2592.8591   -43903.802    48.211925   0.96287445 
   44400    209.39852    386.65218    129531.76   -41286.786    2605.3157   -43892.102    48.256451   0.96419206 
   44500    206.74864    386.15722    129659.65   -41306.472    2572.3462   -43878.818    48.258177   0.96324098 
   44600    204.77697    580.94916    129721.63   -41371.503    2547.8149   -43919.317    48.259443   0.96278076 
   44700    211.26673    400.45511    129818.36   -41347.245    2628.5598   -43975.805     48.26276   0.96206337 
   44800    210.31137    347.06228    129734.21   -41319.022    2616.6733   -43935.695    48.232396   0.96268739 
   44900    205.39799    456.49448    129818.04   -41279.691    2555.5415   -43835.232     48.55513   0.96206578 
   45000    212.17597    510.58705    130033.62   -41281.694    2639.8724   -43921.566    48.814865    0.9604708 
   45100    210.39617    350.58123    130082.82   -41232.907    2617.7283   -43850.635    48.670818   0.96010748 
   45200     210.3855    573.06473     130169.6   -41297.503    2617.5956   -43915.098    48.827481   0.95946741 
   45300    210.42002    469.52374    130105.85   -41308.097     2618.025   -43926.122      48.7975   0.95993757 
   45400    211.37089    301.05354       130105   -41291.946    2629.8557   -43921.802    49.100029   0.95994384 
   45500    212.56896    464.49319     130034.2   -41321.051     2644.762   -43965.813     49.01816   0.96046647 
   45600    215.16969     369.5763    129979.44   -41329.624      2677.12   -44006.744    49.027219   0.96087114 
   45700    209.31055    387.11302    130269.02   -41340.009    2604.2212    -43944.23    49.120255   0.95873514 
   45800    211.49543    252.65905    130398.92   -41304.031    2631.4052   -43935.436     49.16362   0.95778012 
   45900    214.85673    631.98326    130503.26   -41267.614    2673.2262    -43940.84    49.412897   0.95701433 
   46000    211.36738      271.202    130492.11   -41253.065    2629.8121   -43882.877    49.337921   0.95709608 
   46100    214.09648    402.69399    130407.76   -41203.273    2663.7673   -43867.041    49.390156   0.95771519 
   46200     216.1154    543.22305    130579.88   -41204.777    2688.8865   -43893.663    49.348337   0.95645279 
   46300    214.02255     349.4225    130483.49     -41229.9    2662.8474   -43892.748    49.410126   0.95715935 
   46400    214.06714    313.32934    130324.59   -41269.408    2663.4022    -43932.81    49.597382   0.95832637 
   46500    217.79781    430.26445    130187.03   -41296.138    2709.8188   -44005.957    49.634593   0.95933893 
   46600     214.1485    294.26761    130396.56   -41285.803    2664.4144   -43950.217    49.752523   0.95779743 
   46700    206.17009    412.69089    130359.05   -41362.525    2565.1479   -43927.673     49.64414   0.95807306 
   46800    212.45987    414.16092    130456.22   -41416.962    2643.4047   -44060.366    49.577323   0.95735942 
   46900    212.16831    454.29713    130502.34    -41347.55    2639.7771   -43987.327    49.672424    0.9570211 
   47000    210.04308    314.55639    130508.89   -41340.311    2613.3352   -43953.646    49.814941   0.95697302 
   47100    210.40942    353.46835    130665.02   -41325.489    2617.8932   -43943.382    49.949981   0.95582961 
   47200    213.43929    556.28526    130531.12   -41380.402    2655.5905   -44035.993     49.92451    0.9568101 
   47300    210.40864    602.51505    130517.94   -41402.962    2617.8835   -44020.845    50.017146   0.95690669 
   47400    214.55686    463.50558    130460.42    -41364.22    2669.4952   -44033.715    50.013359   0.95732861 
   47500    211.64258    435.79739    130637.43   -41300.928    2633.2361   -43934.164    49.975557   0.95603148 
   47600    212.36283     377.6519    130716.05   -41270.358    2642.1973   -43912.556    50.108715   0.95545644 
   47700    209.90924    387.33149     130650.7   -41304.477      2611.67   -43916.147    49.884449   0.95593435 
   47800    212.07133     459.4626    130638.69   -41320.633    2638.5705   -43959.204     50.05089   0.95602223 
   47900    210.87486    471.20678    130554.05   -41397.768    2623.6842   -44021.453    49.918998   0.95664201 
   48000    210.04201    470.30703    130515.24   -41408.804    2613.3219   -44022.126    49.995204   0.95692646 
   48100    207.12411    451.22387    130649.07   -41374.617    2577.0177   -43951.635    49.956551   0.95594627 
   48200    210.84807    367.05679    130771.43   -41407.462    2623.3509   -44030.812    50.183172   0.95505178 
   48300     208.7376    424.29295    130646.65   -41396.973    2597.0926   -43994.065    50.153434   0.95596395 
   48400    215.60312    474.34072    130842.83   -41324.308    2682.5127   -44006.821    50.425352   0.95453063 
   48500    210.37166     470.5865    130811.25    -41374.79    2617.4234   -43992.214    50.399726   0.95476109 
   48600    214.20667    385.48791     130966.6   -41388.448    2665.1382   -44053.587    50.369815   0.95362857 
   48700    213.66835     399.9137    130826.21   -41361.965    2658.4405   -44020.405    50.257821   0.95465188 
   48800     209.9942    435.53129    130702.02   -41377.301    2612.7271   -43990.028    50.191305   0.95555898 
   48900    210.78844    585.62417    130600.51   -41352.872     2622.609   -43975.481     50.40405   0.95630168 
   49000    207.51951    213.41931    130763.72   -41389.044    2581.9372   -43970.981    50.348911   0.95510814 
   49100     208.7934    171.68392    130745.56   -41383.574    2597.7868    -43981.36    50.547963   0.95524077 
   49200    212.02003    396.34085    130740.67   -41409.148    2637.9322    -44047.08    50.671483    0.9552765 
   49300    208.95765    382.99595    130924.27   -41366.335    2599.8304   -43966.165    50.708782   0.95393692 
   49400    211.64084    382.92812    130909.41   -41344.269    2633.2144   -43977.483    50.764343   0.95404518 
   49500    211.57105    524.65693    131019.07   -41360.084    2632.3461    -43992.43    51.009657   0.95324669 
   49600    211.24334    264.63532    130903.83   -41359.953    2628.2687   -43988.222    51.013212   0.95408582 
   49700    212.33893    328.17455       130995   -41378.211       2641.9   -44020.111     51.10495   0.95342185 
   49800    210.01091    474.53204    130768.44   -41439.046     2612.935   -44051.981      50.9397   0.95507366 
   49900    213.18071    510.22119    130912.21   -41325.206    2652.3733   -43977.579    50.996348   0.95402476 
   50000    207.63873    366.37437    130943.94   -41355.465    2583.4205   -43938.886     51.06443   0.95379362 
   50100    212.94293    496.81714    130945.53   -41373.643    2649.4148   -44023.057    51.293078   0.95378199 
   50200    209.36598    321.57398    130897.17   -41405.076    2604.9108   -44009.987    51.080326   0.95413438 
   50300    212.23058    572.05885    131021.99   -41377.657    2640.5519   -44018.209    51.188954    0.9532254 
   50400    205.40144    270.02069    130996.65   -41396.556    2555.5844    -43952.14     51.41492   0.95340984 
   50500    204.62178    418.81494    131026.41   -41420.836    2545.8839    -43966.72    51.403628   0.95319325 
   50600    203.56758     288.3565    130861.72   -41431.519    2532.7677   -43964.287    51.363535   0.95439285 
   50700     207.8917     390.3303    130606.24   -41438.504     2586.568   -44025.072    51.497374   0.95625978 
   50800    211.44096    423.81336    130565.26   -41422.212    2630.7276    -44052.94    51.461155   0.95655988 
   50900    211.99749    422.84913    130707.58   -41339.633    2637.6518   -43977.285    51.537278   0.95551835 
   51000    210.52712     301.4893    130493.54   -41364.936    2619.3576   -43984.294    51.338633   0.95708564 
   51100    207.51628    343.10111    130390.95   -41386.106     2581.897   -43968.004    51.441446   0.95783865 
   51200    206.39724      374.894    130303.14   -41358.758     2567.974   -43926.732    51.612021   0.95848414 
   51300    209.18139    273.95741    130231.06   -41411.166    2602.6142    -44013.78    51.614412   0.95901463 
   51400    206.65417    395.76707    130304.86   -41420.116    2571.1708   -43991.287     51.89926   0.95847148 
   51500    209.85283    553.76213    130305.56   -41428.165    2610.9682   -44039.134    51.929474   0.95846629 
   51600     211.1141    404.99957    130250.29   -41373.947    2626.6608   -44000.607    51.808582   0.95887305 
   51700    208.37578    309.20358    130392.92   -41378.709    2592.5909   -43971.299     51.89906   0.95782419 
   51800     208.4108    483.13367    130545.21    -41415.57    2593.0266   -44008.596     51.99523   0.95670679 
   51900    206.51563    296.85084     130603.5   -41451.637     2569.447   -44021.084    51.956362   0.95627981 
   52000    207.53744    396.15584    130600.84   -41482.522    2582.1603   -44064.682    51.999892   0.95629929 
   52100    205.17604    303.97465    130494.26   -41418.263      2552.78   -43971.043    52.081763   0.95708037 
   52200    209.02728    413.10072    130519.51   -41445.387    2600.6967   -44046.083    52.234787   0.95689523 
   52300    207.57372    410.55151    130862.51   -41447.967    2582.6118   -44030.579    51.897053   0.95438706 
   52400    211.93058    346.63999    130765.66   -41414.354    2636.8194   -44051.173    52.070157   0.95509395 
   52500    214.29263    297.23076    130712.47   -41420.966    2666.2077   -44087.173    52.178111   0.95548261 
   52600    211.06734     477.1298    130709.39   -41439.607     2626.079   -44065.686    52.256619   0.95550513 
   52700    209.93615    321.58202    130776.49   -41469.072    2612.0049   -44081.077    52.304163   0.95501486 
   52800    208.21075    385.56971    130781.43   -41422.146    2590.5375   -44012.683    52.368718   0.95497879 
   52900    208.81517    473.33886    130918.12   -41408.903    2598.0577   -44006.961    52.458027   0.95398171 
   53000    213.08561    558.44983    130907.02    -41382.97    2651.1901    -44034.16    52.581495   0.95406263 
   53100    213.07332    518.15761    131003.49   -41423.643    2651.0372    -44074.68    52.848958   0.95336004 
   53200    213.49649     360.2082    131013.37    -41412.85    2656.3022   -44069.152    52.957393   0.95328814 
   53300    211.85498    379.52934    131015.71   -41397.204    2635.8787   -44033.083    52.895472   0.95327112 
   53400    208.59801    329.96272    130976.61   -41475.725    2595.3558   -44071.081    52.946174   0.95355571 
   53500    210.49166    196.85642    130834.31   -41483.981    2618.9164   -44102.897    52.996277   0.95459279 
   53600    207.67745    551.07615    130841.64    -41487.01    2583.9023   -44070.912    52.976816   0.95453931 
   53700    202.73064    281.67564    130801.88   -41505.694    2522.3546   -44028.049    53.322709   0.95482947 
   53800    209.43032    407.12157    130856.33   -41389.899    2605.7113    -43995.61    53.151691   0.95443218 
   53900    208.10308    263.14324    130799.95   -41437.239    2589.1979   -44026.437    53.268555    0.9548436 
   54000    212.16569     364.7864    130543.69   -41399.488    2639.7446   -44039.233    53.320685   0.95671796 
   54100    209.49281    551.75444    130382.35   -41417.262    2606.4889   -44023.751     53.26527   0.95790179 
   54200    205.23415    503.70497    130351.14    -41382.18     2553.503   -43935.683    53.171654   0.95813119 
   54300    208.14393    406.21253    130550.96   -41354.884    2589.7063    -43944.59    53.072935   0.95666467 
   54400    212.12403    357.93948    130599.08   -41383.257    2639.2263   -44022.484      53.2313   0.95631219 
   54500    205.77806    572.24023    130596.87   -41367.941    2560.2703   -43928.212    53.392803   0.95632837 
   54600    214.68662    507.10675    130542.88   -41294.293    2671.1097   -43965.402    53.493608   0.95672389 
   54700    211.37477    473.45102     130747.1   -41318.404     2629.904   -43948.307    53.521266    0.9552295 
   54800    209.61041    335.57525    130678.09   -41384.884    2607.9519   -43992.836    53.624042   0.95573395 
   54900    205.90837    442.45617    130626.89   -41432.357    2561.8915   -43994.248    53.466541   0.95610856 
   55000    206.25668    352.33134    130496.02   -41491.781    2566.2253   -44058.006    53.449581   0.95706746 
   55100    206.47102    491.01177     130644.2   -41451.799    2568.8921   -44020.691    53.479615    0.9559819 
   55200    205.83583    214.52512    130586.27   -41455.715    2560.9891   -44016.704    53.543805     0.956406 
   55300    206.49013    546.59844    130654.29   -41414.834    2569.1297   -43983.963    53.652999   0.95590811 
   55400    211.79406    364.22427    130632.93    -41395.83    2635.1208   -44030.951    53.468079   0.95606435 
   55500    211.62759    390.69723    130541.36   -41340.873    2633.0496   -43973.922    53.739213   0.95673504 
   55600    211.30117    432.03364    130506.35   -41373.385    2628.9883   -44002.373    53.812731   0.95699171 
   55700    211.11666    442.88819    130544.54   -41365.478    2626.6926   -43992.171    53.668084   0.95671171 
   55800    207.61739    253.39892    130596.91   -41363.693     2583.155   -43946.848    53.903455    0.9563281 
   55900    211.65193    401.61859    130450.29   -41337.675    2633.3524   -43971.028    54.042709   0.95740298 
   56000    210.30227    379.83202    130573.26   -41326.092    2616.5601   -43942.652    54.255099   0.95650127 
   56100    211.44769    334.75984    130665.06   -41301.637    2630.8112   -43932.448     54.09724   0.95582931 
   56200    211.75351    470.88038    130590.58   -41307.558    2634.6163   -43942.174    54.074734   0.95637442 
   56300    211.10677    378.93097    130656.86   -41337.635    2626.5696   -43964.205    54.124719   0.95588925 
   56400    211.66097    495.27244    130731.95   -41331.227    2633.4649   -43964.692    54.215933    0.9553402 
   56500    212.42194    450.40082     130830.6    -41415.88    2642.9328   -44058.813    54.527198   0.95461988 
   56600    206.91075    499.14933    130896.08   -41437.295    2574.3632   -44011.658    54.690753   0.95414236 
   56700     207.7848    391.49414    130769.91   -41475.021     2585.238   -44060.259    54.801349   0.95506292 
   56800    208.80352    504.91111     130767.4   -41410.855    2597.9127   -44008.768    54.760847   0.95508123 
   56900    208.80237    602.03414    130816.73   -41393.619    2597.8984   -43991.518    54.719926   0.95472107 
   57000    209.58155    483.82309    130907.25   -41343.193     2607.593   -43950.785    54.700466    0.9540609 
   57100    206.70728    336.50316    130928.63   -41405.917    2571.8316   -43977.749    54.784134   0.95390511 
   57200    209.67292    394.65979    130846.66   -41460.265    2608.7298   -44068.995    54.814634   0.95450274 
   57300    202.78621    440.78893    130852.44   -41508.017     2523.046   -44031.063    54.989578   0.95446054 
   57400      207.353      193.471    130787.09    -41516.26    2579.8655   -44096.126    55.056962   0.95493746 
   57500    201.33921    348.87998     130673.1   -41535.705    2505.0425   -44040.748    54.971657    0.9557705 
   57600    208.09812    249.80287     130604.6     -41483.5    2589.1362   -44072.636    55.072416   0.95627179 
   57700    203.31759    362.52562    130611.97   -41518.899    2529.6574   -44048.556     54.99295   0.95621778 
   57800    206.53342    253.67765    130729.93   -41538.821    2569.6684    -44108.49    55.189707     0.955355 
   57900    208.97771    149.31849    130765.39   -41510.113      2600.08   -44110.193    55.062767   0.95509595 
   58000    207.36333    442.76421    130683.56   -41510.023    2579.9941   -44090.017    55.090956   0.95569396 
   58100    210.84557    526.28733    130777.13   -41452.405    2623.3198   -44075.725    55.455047    0.9550102 
   58200    212.49479    276.24462     130670.8   -41398.697    2643.8392   -44042.536    55.500222   0.95578732 
   58300    213.57082    480.90017    130791.15   -41340.103    2657.2271    -43997.33    55.441564   0.95490781 
   58400    210.21898    447.89617    130867.79   -41348.083    2615.5238   -43963.607    55.431877   0.95434862 
   58500    211.58884    483.55666    130716.74   -41346.133    2632.5675     -43978.7    55.496495   0.95545138 
   58600    209.01038    383.95815    130828.06   -41315.745    2600.4865   -43916.231     55.55555   0.95463842 
   58700    210.83218    264.19262    130973.03   -41311.373    2623.1531   -43934.526    55.812673   0.95358176 
   58800    209.17084    441.08554    130884.77   -41363.385    2602.4829   -43965.868    55.827407    0.9542248 
   58900    210.12747    389.79664    130746.15   -41396.908    2614.3853   -44011.293    55.738964   0.95523649 
   59000    209.45072    491.92785     130789.5   -41359.483    2605.9652   -43965.448    55.827108   0.95491986 
   59100     209.0159    462.30882    130902.83   -41366.047    2600.5551   -43966.603    55.885229   0.95409314 
   59200    209.03048    379.43816    130942.73   -41388.408    2600.7365   -43989.145    56.008376   0.95380238 
   59300    211.71788    432.54415    130950.54   -41398.054    2634.1729   -44032.227    55.794529   0.95374555 
   59400    211.50873    296.44838    130755.32   -41454.311    2631.5707   -44085.882    55.905699   0.95516945 
   59500    209.68755    292.81442    130771.72   -41427.657    2608.9117   -44036.569    56.001875    0.9550497 
   59600    209.09442    356.86294    130688.95   -41421.591    2601.5321   -44023.123    55.921815   0.95565454 
   59700    206.15874     432.6088    130589.48    -41441.18    2565.0066   -44006.186    55.964939   0.95638245 
   59800    207.39652    374.06764    130550.63   -41441.626     2580.407   -44022.033    55.897721   0.95666712 
   59900    208.63733    362.65243    130495.46   -41418.728     2595.845   -44014.573    56.013809   0.95707158 
   60000    205.27421    475.54815     130481.8   -41449.327    2554.0014   -44003.329    55.980623    0.9571717 
   60100    207.52036    419.28477    130398.17   -41412.629    2581.9478   -43994.577    55.982663   0.95778558 
   60200    212.92965    441.18142    130374.91   -41391.358    2649.2496   -44040.608    56.218107   0.95795652 
   60300    215.06832     334.4125       130322   -41346.792    2675.8588   -44022.651     56.23846   0.95834542 
   60400    208.57291    648.72868    130233.29   -41286.172    2595.0436   -43881.216    56.422885   0.95899823 
   60500    208.29181    416.81548    130128.66   -41306.916    2591.5462   -43898.462    56.320173   0.95976926 
   60600    207.52654    262.83292    130273.35   -41347.922    2582.0247   -43929.947    56.315159   0.95870331 
   60700    208.96688    357.75196    130172.81   -41363.628    2599.9453   -43963.574    56.227777   0.95944377 
   60800    210.86017      397.155    130028.43   -41309.953    2623.5013   -43933.454    56.045622    0.9605091 
   60900    211.52731    372.64359    130111.32   -41304.424    2631.8019   -43936.226    56.322231    0.9598972 
   61000    207.99973    461.68943    130281.85   -41332.146     2587.912   -43920.058    56.252918   0.95864072 
   61100    208.75918    300.39815    130265.84   -41368.443    2597.3611   -43965.804     56.46027    0.9587586 
   61200    203.72019    295.80863     130117.1   -41369.449    2534.6665   -43904.116    56.535449   0.95985453 
   61300    209.69364    540.21232    130261.97   -41348.365    2608.9875   -43957.353    56.576171   0.95878709 
   61400    208.77709    474.08241    130219.55   -41382.536    2597.5839    -43980.12    56.660092   0.95909943 
   61500    207.17767    567.40943    130201.83   -41391.317    2577.6841   -43969.001    57.010118   0.95922992 
   61600    207.87675    246.50992    130226.58   -41361.687     2586.382   -43948.069    56.914684   0.95904763 
   61700     209.1033    506.97297    130319.02   -41439.371    2601.6426   -44041.014    56.879583   0.95836737 
   61800    207.21125    459.65575     130466.7   -41506.468    2578.1019    -44084.57    56.912712   0.95728249 
   61900    206.20737    477.38469    130558.66   -41455.743    2565.6117   -44021.355    56.787193   0.95660828 
   62000    208.88917    389.67602    130583.07   -41406.519    2598.9784   -44005.497    56.996969   0.95642945 
   62100    211.02034    380.16759    130482.35   -41424.553    2625.4942   -44050.047    57.053888   0.95716772 
   62200    206.51905    487.79615    130334.86   -41359.234    2569.4896   -43928.723    57.119901   0.95825083 
   62300    208.39125    369.66465     130402.8    -41384.69    2592.7834   -43977.473     57.29695   0.95775162 
   62400    208.05642    414.46601    130308.44   -41321.695    2588.6175   -43910.313    57.491718   0.95844513 
   62500    210.04208    188.94818    130295.46   -41338.011    2613.3228   -43951.333    57.222591   0.95854065 
   62600    212.24091    360.41614    130484.89   -41344.086    2640.6804   -43984.766    57.416352   0.95714906 
   62700     204.5018    457.67064    130459.73   -41374.964    2544.3912   -43919.355    57.624624   0.95733368 
   62800    207.62263    538.80798    130683.33   -41378.386    2583.2202   -43961.606    57.582505   0.95569565 
   62900    209.29235    466.38896    130674.29   -41333.089    2603.9948   -43937.084    57.572843   0.95576179 
   63000    214.87703    336.89415    130799.38    -41308.29    2673.4788   -43981.769    57.610843   0.95484776 
   63100      211.739    497.62534    130688.63   -41302.999    2634.4357   -43937.435    57.540864    0.9556569 
   63200    210.81823    356.80241    130645.89   -41349.629    2622.9796   -43972.608    57.573351   0.95596955 
   63300    211.64783    387.52515    130616.29   -41391.402    2633.3013   -44024.704    57.718297    0.9561862 
   63400    214.02201    514.20973    130647.14   -41322.964    2662.8406   -43985.805     57.71422   0.95596042 
   63500    209.69036    618.65999    130681.71   -41413.931    2608.9467   -44022.878    57.916326   0.95570748 
   63600    210.52181    393.15723    130706.08       -41414    2619.2915   -44033.292    57.936044    0.9555293 
   63700    208.00596    409.12054    130814.75   -41427.954    2587.9896   -44015.944    58.122824   0.95473555 
   63800    211.08654    350.86188    130674.97   -41543.087    2626.3178   -44169.405    57.674173   0.95575681 
   63900    204.48667    362.73292    130590.72   -41534.197     2544.203     -44078.4    57.832844   0.95637343 
   64000    204.78676    375.69772    130644.36   -41511.423    2547.9366    -44059.36    57.788125   0.95598072 
   64100    207.40134    385.08838    130661.79   -41427.562     2580.467   -44008.029    58.078845   0.95585322 
   64200    214.54099    312.45729    130713.81   -41418.815    2669.2978   -44088.113    58.120781    0.9554728 
   64300     214.5195    350.10022    130693.97   -41327.608    2669.0304   -43996.639     58.09336   0.95561785 
   64400    211.09126     365.3415    130742.33   -41363.861    2626.3766   -43990.237    58.218905   0.95526435 
   64500    211.95758     315.4284    130693.57   -41352.736    2637.1553   -43989.891    58.051223   0.95562078 
   64600    211.33935    408.99885    130534.54   -41404.622    2629.4633   -44034.085    58.115943   0.95678499 
   64700    206.48926    392.42152    130612.13   -41403.868    2569.1189   -43972.987    58.270066   0.95621664 
   64800    210.82816    411.87808    130652.49   -41419.622    2623.1032   -44042.725    58.345422   0.95592126 
   64900    211.24493    388.23146    130641.14   -41402.508    2628.2885   -44030.796    58.438235   0.95600426 
   65000    215.65844    425.28509    130622.12   -41375.651    2683.2009   -44058.852    58.422214   0.95614348 
   65100    210.11564    328.12349    130598.74   -41399.861     2614.238   -44014.099    58.423356    0.9563147 
   65200    208.41568    387.96635    130624.49   -41394.149    2593.0873   -43987.237    58.603132   0.95612614 
   65300    213.13789    422.11679    130721.09   -41390.307    2651.8405   -44042.148     58.80606   0.95541963 
   65400    215.17473    451.64782    130752.59   -41336.748    2677.1828   -44013.931    58.561671   0.95518941 
   65500     214.6592    374.86352    130932.04   -41411.083    2670.7685   -44081.851    58.918341   0.95388031 
   65600    209.45379    350.13378    130986.36   -41456.715    2606.0034   -44062.718    59.035122   0.95348469 
   65700    206.90596    503.55495     131118.8   -41503.379    2574.3035   -44077.682    59.300068   0.95252158 
   65800    206.16974    461.20003    131063.37   -41509.365    2565.1435   -44074.509    59.448365   0.95292443 
   65900    213.23339    218.65374    131078.32   -41479.767    2653.0288   -44132.796    59.297311   0.95281578 
   66000    212.39475    319.74242    131093.79   -41389.906    2642.5945   -44032.501    59.191498   0.95270335 
   66100    212.19962    355.07506    130868.76   -41343.494    2640.1667    -43983.66    59.426246   0.95434151 
   66200    212.99205    442.99721    131030.84   -41321.036     2650.026   -43971.062    59.459255   0.95316104 
   66300    212.21952    408.68053    130894.07   -41351.014    2640.4142   -43991.428    59.378558   0.95415696 
   66400    211.57637    353.02677    131087.78   -41404.152    2632.4123   -44036.564     59.51708   0.95274699 
   66500    208.48178    260.75418    131103.27   -41424.038    2593.9098   -44017.948    59.657511   0.95263445 
   66600    211.13898    433.54857    130971.53   -41444.646    2626.9703   -44071.617    59.339727   0.95359264 
   66700    209.91003    339.64053    130996.42   -41475.373    2611.6798   -44087.053    59.309961   0.95341146 
   66800     208.6354    455.14984    131166.41   -41419.839     2595.821    -44015.66    59.809073   0.95217587 
[...]
   84600     204.7178     273.9002    131711.89   -41640.877    2547.0787   -44187.956    67.657306   0.94823248 
   84700    206.76379    467.95725     131610.1   -41657.111    2572.5347   -44229.646    67.586431   0.94896585 
   84800    206.23673    516.70507    131624.11   -41628.386     2565.977   -44194.363    67.648323   0.94886487 
   84900    206.90569    429.51588     131747.1   -41615.803    2574.3002   -44190.103    67.427498   0.94797902 
   85000    210.76943    477.94956     131689.1   -41566.753    2622.3724   -44189.125    67.567285   0.94839658 
   85100    207.04257    382.09324     131786.3   -41564.161    2576.0032   -44140.165    67.678754   0.94769707 
   85200    208.03008    272.75794    131780.55   -41574.041    2588.2897   -44162.331    67.742783   0.94773846 
   85300    201.44007    393.36575    131785.13   -41612.559    2506.2974   -44118.856    67.775432   0.94770548 
   85400    209.75468    357.77146    131687.45   -41603.433     2609.747    -44213.18    67.835527   0.94840843 
   85500    208.83318    243.96947    131652.05   -41581.982    2598.2818   -44180.264    67.855249   0.94866349 
   85600    211.34541    357.04246    131610.93   -41562.248    2629.5387   -44191.787     67.90276   0.94895986 
   85700    211.62345    358.28793    131524.22   -41600.481     2632.998   -44233.479    68.044617   0.94958548 
   85800    210.20106    507.46835    131543.49   -41609.221    2615.3008   -44224.522    67.993639   0.94944637 
   85900    212.96428     343.0682    131472.23   -41536.667    2649.6805   -44186.348    68.014771   0.94996098 
   86000    208.37381    196.92137    131432.02    -41591.18    2592.5663   -44183.746    68.080306   0.95025161 
   86100     212.4783    289.46483    131448.47   -41585.374     2643.634   -44229.008    68.284557   0.95013271 
   86200    211.72411    411.54216    131414.62   -41558.261    2634.2504   -44192.512    68.233511   0.95037742 
   86300    210.94292    453.23731    131595.95    -41591.49    2624.5309   -44216.021    68.503289   0.94906791 
   86400    208.55882    440.86175    131609.86   -41614.595    2594.8682   -44209.463    68.372863   0.94896755 
   86500    210.69149    356.43848    131568.67   -41591.871    2621.4027   -44213.274     68.37873   0.94926465 
   86600    210.39808    330.40975    131716.53   -41534.627    2617.7522   -44152.379    68.560676   0.94819907 
   86700    214.25402    364.58846    131560.09   -41532.816    2665.7274   -44198.544    68.644968   0.94932658 
   86800    210.46078    448.56701    131645.99   -41602.359    2618.5322   -44220.891    68.634847   0.94870717 
   86900      211.375    455.12633    131700.03   -41572.259    2629.9069   -44202.166    68.592814   0.94831789 
   87000    211.15723    322.74973    131541.62   -41572.284    2627.1974   -44199.481    68.601365   0.94945991 
   87100    207.85628    441.56964    131651.98   -41607.317    2586.1273   -44193.445    68.527123   0.94866398 
   87200    211.92949    378.41819    131660.01    -41602.65    2636.8057   -44239.455    68.439355   0.94860611 
   87300    209.73155    360.85751     131665.1   -41603.692    2609.4592   -44213.151    68.651064   0.94856946 
   87400    212.22363    483.96318    131613.98   -41610.256    2640.4654   -44250.722    68.895912   0.94893787 
   87500    209.87404    460.26813    131735.23   -41621.537    2611.2321   -44232.769    68.892051   0.94806446 
   87600    205.67149    452.32119    131600.03    -41620.38    2558.9443   -44179.324    68.911167   0.94903846 
   87700    208.58706     467.7328    131776.36   -41616.437    2595.2196   -44211.656    68.956632   0.94776856 
   87800     209.9547    437.90958     131824.1   -41601.963    2612.2356   -44214.199     68.84273   0.94742536 
   87900    207.81758    488.71956    131716.32   -41632.372    2585.6458   -44218.018    68.873869   0.94820059 
   88000     208.6691    499.68358    131756.67   -41664.325    2596.2404   -44260.565     68.75367    0.9479102 
   88100    211.66418    330.78011    131645.39   -41621.669    2633.5048   -44255.174    68.884951   0.94871144 
   88200    214.82021    520.59262    131732.44   -41597.099    2672.7718   -44269.871    69.010404   0.94808455 
   88300    211.69545    259.10392    131635.05   -41634.142    2633.8938   -44268.035    69.059632   0.94878598 
   88400    207.78731    406.43217    131525.99   -41737.737    2585.2692   -44323.007    69.023276    0.9495727 
   88500     212.0332    607.64461    131635.53   -41640.857    2638.0961   -44278.953    69.042769   0.94878255 
   88600    212.54414    366.05451    131669.69   -41604.048    2644.4532   -44248.501    69.314339   0.94853638 
   88700    214.06406    414.36594    131779.34    -41586.16    2663.3639   -44249.524    69.321929   0.94774716 
   88800    216.00295    387.06616    131798.35   -41536.412    2687.4874     -44223.9    69.347223   0.94761044 
   88900    213.97332    235.45108    131930.28   -41592.015    2662.2348    -44254.25    69.425755   0.94666281 
   89000    214.59745    512.41006    131807.76   -41573.556    2670.0003   -44243.557    69.426291   0.94754278 
   89100    207.87751     420.6038    131888.89   -41666.925    2586.3914   -44253.316    69.526608   0.94695989 
   89200    204.02266    384.93491    131917.94   -41699.321    2538.4297    -44237.75    69.475445   0.94675134 
   89300    207.12982    388.63006    131928.04   -41718.893    2577.0887   -44295.982    69.376922   0.94667892 
   89400    209.09827    407.56583    131942.85   -41751.099      2601.58   -44352.679     69.35981   0.94657263 
   89500    204.44276     343.6573    131866.65   -41783.234    2543.6566   -44326.891    69.610056   0.94711959 
   89600    205.16685    368.13239    131822.67   -41821.326    2552.6656   -44373.992    69.315811   0.94743562 
   89700     205.1595    417.00575    131748.26   -41785.157    2552.5742   -44337.732    69.436954   0.94797072 
   89800    207.95548    354.68922    131855.25   -41738.138    2587.3616     -44325.5     69.61951   0.94720148 
   89900    204.80845    441.20034    131835.72   -41787.697    2548.2065   -44335.903    69.476932    0.9473418 
   90000    208.35045    186.07868    131832.03   -41695.153    2592.2757   -44287.429    69.616014   0.94736832 
   90100    210.93647     254.9667    131696.69    -41699.11    2624.4507   -44323.561    69.545958   0.94834191 
   90200    205.70168    403.59904     131513.7   -41730.666      2559.32   -44289.986    69.440966   0.94966146 
   90300    207.55041     334.0481    131441.28    -41738.38    2582.3217   -44320.701    69.519194    0.9501847 
   90400     209.8925      447.501    131514.64   -41734.423    2611.4617   -44345.885    69.529407   0.94965464 
   90500    211.51434    327.50006    131654.13   -41716.744    2631.6405   -44348.384    69.880824   0.94864849 
   90600    214.34828    380.11833    131607.04   -41633.005    2666.9002   -44299.905    69.809324   0.94898789 
   90700    206.62246    484.61725    131721.07    -41629.21    2570.7763   -44199.986    69.609774   0.94816636 
   90800    209.68245    291.38259    131673.28   -41653.989    2608.8483   -44262.837    69.686964   0.94851052 
   90900    207.12804    483.98376    131818.51   -41739.384    2577.0666    -44316.45    69.555804   0.94746548 
   91000    205.23959    408.62809    131679.47   -41748.069    2553.5707    -44301.64    69.718449   0.94846595 
   91100    204.53321    352.03693    131732.35   -41741.928    2544.7819    -44286.71    70.005743   0.94808521 
   91200    208.07095    320.18132    131711.29   -41696.204    2588.7982   -44285.003    69.920089   0.94823682 
   91300    209.87089    494.10399     131672.6   -41601.219    2611.1928   -44212.412    69.844237   0.94851544 
   91400    212.59247    390.41934    131640.81   -41579.893    2645.0545   -44224.947    69.817607    0.9487445 
   91500    212.16789    494.64699    131495.39    -41583.73     2639.772   -44223.502     69.77552   0.94979366 
   91600    210.38122    474.97444    131693.35   -41624.622    2617.5423   -44242.164    69.783421   0.94836596 
   91700    204.83413    322.63581    131530.18   -41691.416     2548.526   -44239.942    69.657561   0.94954247 
   91800    209.30644    407.81671    131608.12   -41660.334    2604.1701   -44264.504    69.759092    0.9489801 
   91900     208.0077    318.76886    131552.92   -41660.731    2588.0113   -44248.743    69.843858   0.94937834 
   92000    210.93435    406.30593    131453.59   -41668.889    2624.4243   -44293.314    70.039319   0.95009571 
   92100    208.93856    288.98825    131508.25   -41696.837    2599.5929    -44296.43    69.990865   0.94970084 
   92200    209.59112    373.34047    131538.77   -41631.648     2607.712    -44239.36    69.790699   0.94948045 
   92300    210.01449    537.49329    131625.29   -41545.427    2612.9796   -44158.406    69.844879   0.94885637 
   92400     211.0696     373.2849    131631.09   -41541.844    2626.1071   -44167.951    70.133148   0.94881455 
   92500    208.50809    353.14484    131517.91   -41574.322    2594.2371   -44168.559    70.169306   0.94963106 
   92600    214.33879    500.48984    131459.28   -41550.988    2666.7821    -44217.77    70.009645   0.95005457 
   92700    212.62558    571.86814    131340.15   -41531.782    2645.4664   -44177.248    69.896506   0.95091628 
   92800    208.83812     313.3747    131495.49   -41574.143    2598.3433   -44172.487    69.959993   0.94979298 
   92900    212.30987    527.43772    131517.81   -41538.655    2641.5384   -44180.193    70.087009   0.94963177 
   93000    211.62234    337.01753    131388.94   -41569.249    2632.9843   -44202.233    70.036313   0.95056318 
   93100    212.57736    337.35492    131486.61    -41518.26    2644.8665   -44163.126    70.108847   0.94985709 
   93200    212.08858    391.57805    131659.43   -41539.777    2638.7851   -44178.562    70.280427    0.9486103 
   93300    210.56814    343.38311    131675.86   -41573.572     2619.868    -44193.44    70.301401   0.94849194 
   93400    208.58872     366.2741    131475.14   -41608.835    2595.2402   -44204.075    70.226284   0.94993999 
   93500    202.44153    302.58083    131517.86   -41654.283    2518.7575    -44173.04    70.219565   0.94963145 
   93600    207.39775    519.21968    131446.78   -41713.093    2580.4224   -44293.515    69.983211   0.95014496 
   93700     209.4389    321.48429    131434.12   -41672.888    2605.8181   -44278.706    70.099943   0.95023648 
   93800    206.49503    394.25744    131561.67   -41623.202    2569.1907   -44192.393    70.460182   0.94931516 
   93900    208.60724    371.21997    131647.84   -41602.335    2595.4706   -44197.805    70.421447    0.9486938 
   94000    211.83995    400.55464    131562.96   -41603.734    2635.6917   -44239.426    70.155911   0.94930589 
   94100    211.99596    420.15118    131675.03   -41609.059    2637.6328   -44246.692    70.193207   0.94849793 
   94200    207.14011    495.29781    131570.65   -41602.536    2577.2168   -44179.753    70.379678    0.9492504 
   94300    208.21911    477.09507    131603.27   -41563.275    2590.6415   -44153.916    70.472799   0.94901511 
   94400    207.31939    535.91104    131718.91   -41540.765    2579.4474   -44120.212    70.431522   0.94818194 
   94500    211.46626    389.08363    131645.29   -41481.328    2631.0423   -44112.371    70.641998   0.94871217 
   94600    212.32659    394.26508    131635.79   -41522.403    2641.7464    -44164.15      70.6979   0.94878066 
   94700    207.61374    395.02742    131594.49   -41565.242    2583.1096   -44148.352    70.805753   0.94907845 
   94800    206.78961    336.43424    131465.72   -41550.877    2572.8558   -44123.732    70.804748   0.95000804 
   94900    208.42682     463.2213    131488.93    -41517.02    2593.2259   -44110.246    70.954809   0.94984034 
   95000     214.0606    493.65877    131461.05   -41500.275    2663.3209   -44163.596     70.70323   0.95004178 
   95100    211.01809    388.29949    131328.92   -41505.322    2625.4662   -44130.788    70.845031   0.95099763 
   95200    210.94877    516.04635     131322.3   -41520.929    2624.6038   -44145.533    70.738261   0.95104558 
   95300    213.90181    269.77801     131228.6   -41428.601    2661.3451   -44089.946    70.785151   0.95172465 
   95400    215.39008    400.51418    131287.17   -41480.808    2679.8621   -44160.671    70.960163   0.95130003 
   95500     213.2787     360.3274     131239.1   -41490.508    2653.5925   -44144.101    70.767537   0.95164848 
   95600    214.25116    326.66739    131198.86   -41488.375    2665.6918   -44154.067    70.772449   0.95194036 
   95700    212.25075    351.39076    131001.23   -41551.005    2640.8028   -44191.808    70.764767   0.95337648 
   95800    210.96486    509.73579    131214.63   -41594.882     2624.804   -44219.686    70.816078   0.95182595 
   95900    209.08784    502.21257    131206.91   -41553.341    2601.4502   -44154.791    70.647533     0.951882 
   96000    210.68616    518.72123    131312.04   -41624.692    2621.3364   -44246.028    70.770282   0.95111988 
   96100    209.57245    404.23179    131303.49    -41575.94    2607.4797    -44183.42    70.828133   0.95118181 
   96200    211.85837    426.56432    131226.92    -41619.15    2635.9209   -44255.071    71.005548   0.95173684 
   96300    209.44128    349.18826    131459.93   -41579.664    2605.8477   -44185.511    71.074579   0.95004985 
   96400    211.88524    368.11695    131379.43   -41556.363    2636.2552   -44192.618    70.980747   0.95063201 
   96500    209.02127    478.15477     131219.4   -41607.819     2600.622   -44208.441    70.955525   0.95179133 
   96600    207.77045    482.18082    131204.94   -41604.222    2585.0594   -44189.282    71.098144   0.95189627 
   96700    208.05997    386.54747    131314.01    -41677.57    2588.6616   -44266.231    70.906559   0.95110563 
   96800    203.34045    493.95675    131343.64   -41718.433    2529.9418   -44248.375    71.078261   0.95089105 
   96900    209.07425    402.78375    131392.17    -41660.31    2601.2811   -44261.591    71.172938   0.95053985 
   97000    206.45859    561.03215    131389.57   -41655.476    2568.7373   -44224.213    71.381095   0.95055866 
   97100    209.01159    466.27529    131355.96   -41646.652    2600.5015   -44247.153     71.41815   0.95080187 
   97200    208.57815    450.46153    131472.06   -41666.839    2595.1087   -44261.948    71.068341   0.94996224 
   97300    206.33797    361.91275    131545.78   -41669.751    2567.2366   -44236.988    71.415115   0.94942989 
   97400    208.48906    480.90666    131556.95   -41669.563    2594.0003   -44263.563    71.537226   0.94934926 
   97500    210.63672    318.48287    131439.09    -41575.58    2620.7213   -44196.302    71.261304   0.95020051 
   97600    209.92167    433.55973    131416.58   -41633.203    2611.8247   -44245.027    71.544257    0.9503633 
   97700    213.17768    484.72269    131289.31    -41577.97    2652.3356   -44230.306    71.488215   0.95128457 
   97800    211.98222     325.2385    131361.08   -41568.126    2637.4619   -44205.588    71.338218   0.95076478 
   97900    213.97899     344.7094     131281.5   -41529.535    2662.3055   -44191.841     71.12938   0.95134112 
   98000    206.98598     547.4661    131375.11   -41538.935    2575.2991   -44114.234    71.418019   0.95066329 
   98100    210.09504     442.7281    131408.83   -41604.398    2613.9817    -44218.38    71.238684   0.95041932 
   98200    210.88035    391.21782    131362.63   -41582.557    2623.7524    -44206.31    71.579597   0.95075361 
   98300    208.93877    327.65882     131363.3   -41606.535    2599.5955    -44206.13    71.607745   0.95074874 
   98400    206.69691     239.9767    131337.81   -41612.722    2571.7026   -44184.425    71.745837   0.95093322 
   98500    210.55127    395.29499    131460.22   -41612.541    2619.6581   -44232.199    71.876479   0.95004781 
   98600    208.39479    434.61625    131400.71   -41648.117    2592.8274   -44240.944    71.685314   0.95047803 
   98700    201.04754    383.62637    131438.22   -41690.114    2501.4137   -44191.528    71.818278    0.9502068 
   98800    206.95384    446.36038    131486.91   -41665.924    2574.8992   -44240.823    71.598906   0.94985497 
   98900     208.6642    474.88493    131488.19   -41666.836    2596.1793   -44263.016    71.649727   0.94984569 
   99000    204.14521    335.18673    131500.51   -41717.166    2539.9545    -44257.12    71.961345   0.94975669 
   99100    210.49625    375.99986    131522.92   -41652.981    2618.9735   -44271.954    71.947618   0.94959489 
   99200    207.40387    526.12291     131552.1   -41641.192    2580.4984    -44221.69    71.846412   0.94938422 
   99300    211.40885    453.60891    131528.96   -41602.882     2630.328    -44233.21     72.17991   0.94955127 
   99400    209.80771     425.8946    131501.09   -41577.414    2610.4068   -44187.821    72.157534   0.94975254 
   99500    216.01368    290.32301    131511.82   -41458.503    2687.6209   -44146.124    72.316772     0.949675 
   99600    213.40086    454.84158    131522.74   -41471.307    2655.1124   -44126.419     72.10391   0.94959617 
   99700    212.41761    426.64075    131533.79   -41476.562     2642.879   -44119.441    72.160985   0.94951639 
   99800    217.98258     464.0689    131721.36   -41524.668    2712.1177   -44236.785    72.453395    0.9481643 
   99900    210.98998    364.50094    131665.06       -41591    2625.1165   -44216.116    72.374603   0.94856973 
  100000    212.55241    326.36728    131747.03   -41596.649    2644.5561   -44241.205    72.362999   0.94797957 
  100100    207.99929    523.43115    131689.73   -41526.367    2587.9066   -44114.274     72.36394   0.94839201 
  100200    213.27283    373.77197    131702.69   -41532.457    2653.5194   -44185.976    72.585716   0.94829875 
  100300    216.37325     335.8196     131765.8   -41535.409    2692.0945   -44227.503    72.498703   0.94784449 
  100400    213.98083    381.46137    131722.83   -41584.704    2662.3284   -44247.032     72.41094   0.94815371 
  100500    213.05505      438.328    131821.38   -41515.131    2650.8099   -44165.941    72.583385   0.94744485 
  100600    209.22441    341.36196    131781.53   -41595.168    2603.1494   -44198.318    72.528842   0.94773134 
  100630    214.91292    519.17936    131769.65   -41579.567    2673.9253   -44253.492    72.515246   0.94781685 
Loop time of 80.9695 on 6 procs for 100000 steps with 4175 atoms

Performance: 533.534 ns/day, 0.045 hours/ns, 1235.033 timesteps/s
98.5% CPU use with 6 MPI tasks x no OpenMP threads

MPI task timing breakdown:
Section |  min time  |  avg time  |  max time  |%varavg| %total
---------------------------------------------------------------
Pair    | 64.577     | 66.036     | 67.859     |  14.2 | 81.56
Neigh   | 4.8441     | 4.877      | 4.9094     |   1.0 |  6.02
Comm    | 5.6624     | 7.4778     | 8.934      |  42.5 |  9.24
Output  | 0.18961    | 0.19042    | 0.19397    |   0.4 |  0.24
Modify  | 1.748      | 1.7711     | 1.7936     |   1.3 |  2.19
Other   |            | 0.6168     |            |       |  0.76

Nlocal:        695.833 ave         703 max         682 min
Histogram: 1 0 0 0 0 1 0 1 2 1
Nghost:        1472.83 ave        1487 max        1460 min
Histogram: 1 0 3 0 0 0 0 0 0 2
Neighs:        0.00000 ave           0 max           0 min
Histogram: 6 0 0 0 0 0 0 0 0 0
FullNghs:      19219.7 ave       19583 max       18765 min
Histogram: 1 0 0 1 0 1 1 1 0 1

Total # of neighbors = 115318
Ave neighs/atom = 27.621078
Neighbor list builds = 5233
Dangerous builds = 0

undump              1
unfix               2
unfix               3
unfix               4


################################################
#######         Run Simulation         #########
################################################

reset_timestep      0
log                 log.run_${NAME}
log                 log.run_liquid_density_MLmW
