

# Read in the atoms from data file
#
read_data           out-240K.data
  orthogonal box = (0 0 0) to (35.9897 31.168 29.3854)
  3 by 2 by 2 MPI processor grid
  reading atoms ...
  1024 atoms
  reading velocities ...
  1024 velocities
  read_data CPU = 0.00196624 secs

mass                1 18.015

# Define potential
#
pair_style          sw
pair_coeff          * * mW_real.sw mW
Reading potential file mW_real.sw with DATE: 2019-02-27

# Add velocity/set timestep
#
velocity            all create ${TEMP} 120598 rot yes dist gaussian
velocity            all create 289 120598 rot yes dist gaussian
timestep            5.0

# Define output
#
compute	            1 all msd
thermo              50
thermo_style        custom step temp press vol etotal ke pe c_1[4]

# Neighbor lists
#
neigh_modify        delay 0 every 1 check yes

# Set fixes
#
fix                 2 all nve
fix                 3 all temp/csvr ${TEMP} ${TEMP} 500.0 928347
fix                 3 all temp/csvr 289 ${TEMP} 500.0 928347
fix                 3 all temp/csvr 289 289 500.0 928347
fix                 4 all press/berendsen iso ${PRES} ${PRES} 1000.0 modulus 20000
fix                 4 all press/berendsen iso 1 ${PRES} 1000.0 modulus 20000
fix                 4 all press/berendsen iso 1 1 1000.0 modulus 20000

# Run 0.5 ns equilibration
#
dump		    1 all custom 1000 eq.${NAME}.dump id type x y z vx vy vz
dump		    1 all custom 1000 eq.ice_240K_1atm_mW.dump id type x y z vx vy vz
run                 100000
Neighbor list info ...
  update every 1 steps, delay 0 steps, check yes
  max neighbors/atom: 2000, page size: 100000
  master list distance cutoff = 6.3065
  ghost atom cutoff = 6.3065
  binsize = 3.15325, bins = 12 10 10
  1 neighbor lists, perpetual/occasional/extra = 1 0 0
  (1) pair sw, perpetual
      attributes: full, newton on
      pair build: full/bin/atomonly
      stencil: full/bin/3d
      bin: standard
Per MPI rank memory allocation (min/avg/max) = 4.323 | 4.323 | 4.323 Mbytes
Step Temp Press Volume TotEng KinEng PotEng c_1[4] 
       0          289   -4032.2515    32962.426   -11081.002    881.26755    -11962.27            0 
      50    258.80392   -1639.9019    31875.196   -11049.066    789.18858   -11838.254   0.46305995 
     100    251.79514   -557.12015    31468.046   -11033.384    767.81623     -11801.2   0.42025079 
     150    258.53733   -133.43051    31315.004   -11016.878    788.37564   -11805.253   0.50739615 
     200    254.51477   -42.930882    31266.935   -11007.005    776.10936   -11783.115   0.51419294 
     250    261.97522   -5.2319161    31257.932    -10952.32    798.85903   -11751.179   0.51073447 
     300    273.22335    8.2989505     31265.66   -10917.871    833.15872    -11751.03   0.51004956 
     350     262.0289   -12.830967    31269.434   -10910.078    799.02272   -11709.101    0.5012301 
     400    272.04062   -58.432437    31279.375   -10894.663    829.55215   -11724.215   0.52285634 
     450    267.70594    34.923127    31289.154   -10864.678     816.3341   -11681.012   0.52546378 
     500    272.78456   -12.162954    31295.837   -10876.259     831.8207   -11708.079   0.50924633 
     550    284.73452    90.758086    31307.615   -10815.982    868.26054   -11684.243   0.49906262 
     600    284.71392   -2.3178738    31326.748   -10780.142     868.1977    -11648.34   0.55494498 
     650    287.40421   -10.364272    31337.425   -10766.501    876.40138   -11642.902   0.51663035 
     700    293.80072     29.97622    31335.159   -10769.695    895.90671   -11665.602   0.51427072 
     750    293.90692   -8.6635474    31337.752   -10777.476    896.23054   -11673.707    0.4863575 
     800     302.4228    67.071337    31331.492   -10740.737    922.19863   -11662.936    0.4757147 
     850    288.01648   -24.759878    31337.455   -10766.606    878.26844   -11644.875   0.54189351 
     900    300.35263   -58.256681    31342.452   -10760.467    915.88591   -11676.353   0.54461954 
     950    289.23071   -54.406308    31337.879   -10795.085    881.97107   -11677.056   0.50979744 
    1000    300.81004    -15.97878    31328.605   -10807.714    917.28072   -11724.994   0.48388186 
    1050    292.11795    -46.31779     31325.87   -10824.383    890.77532   -11715.159   0.52255494 
    1100     293.3355    -57.90224    31329.384   -10790.744    894.48809   -11685.232   0.51663141 
    1150    288.41429   -41.805672    31341.413   -10824.978     879.4815   -11704.459   0.49079697 
    1200    289.45242   -59.169868     31337.57    -10795.89    882.64713   -11678.537   0.52091129 
    1250    283.98194    85.978654    31332.166   -10778.473    865.96564   -11644.439   0.51823601 
    1300    292.46336   -24.879138    31338.587   -10744.642     891.8286   -11636.471   0.51135058 
    1350    293.98712   -32.788923    31353.888   -10783.344    896.47513   -11679.819   0.49386505 
    1400    290.62256   -40.984219    31353.446   -10775.632    886.21533   -11661.848   0.51657941 
    1450    292.14251   -2.1289349    31336.405   -10809.034    890.85021   -11699.885   0.52776276 
    1500    291.47209    47.874764    31333.656   -10802.133    888.80585   -11690.939   0.51562692 
    1550    300.51865    28.599694    31323.457   -10783.869    916.39216   -11700.262   0.50349435 
    1600    286.16412   -58.172891    31333.439   -10783.762    872.61991   -11656.382   0.51543832 
    1650    297.35728    -33.68875     31337.51   -10763.733    906.75196   -11670.485   0.48283786 
    1700    284.55301    38.150067    31324.021   -10792.452    867.70705   -11660.159    0.5397176 
    1750    302.69876    62.352627    31342.764   -10776.366    923.04012   -11699.407   0.51153593 
    1800    289.72898    23.314057    31343.279   -10774.843    883.49047   -11658.333   0.49403151 
    1850    294.99337   -47.187938    31326.595   -10765.009    899.54355   -11664.552   0.53498594 
    1900    296.78073    35.053674    31341.006    -10736.01    904.99386   -11641.004   0.54281815 
    1950    299.42832    60.609444     31353.92   -10724.403    913.06734    -11637.47     0.506537 
    2000    305.39778     18.15125    31365.173   -10719.071    931.27043   -11650.341   0.50820849 
    2050    288.99454   -109.34292    31371.826   -10764.147     881.2509   -11645.398    0.5068225 
    2100    284.24323   -57.206675    31354.614    -10784.91    866.76239   -11651.673   0.49093182 
    2150    289.89389     3.492536    31339.756    -10764.18    883.99336   -11648.173   0.49746171 
    2200    283.94993    81.247826    31338.855   -10768.676    865.86802   -11634.544   0.52894087 
    2250    291.11435    109.05689    31333.411   -10769.839    887.71498   -11657.554   0.54025718 
    2300    298.01692     -2.83481    31328.905   -10753.917    908.76347   -11662.681   0.54911518 
    2350    293.63985    28.538743    31342.406   -10754.984    895.41617     -11650.4   0.51016062 
    2400    295.11023    78.076547    31348.344   -10758.888    899.89988   -11658.788   0.48841513 
    2450    294.31932   -36.309677    31347.404   -10776.348    897.48813   -11673.836    0.4913961 
    2500    282.21613    69.000656    31350.614   -10783.081    860.58104   -11643.662   0.52952771 
    2550    288.59063    37.567144    31360.489   -10765.048    880.01924   -11645.067   0.50616776 
    2600    288.11475    38.947719    31368.769    -10772.12     878.5681   -11650.688    0.5014027 
    2650    285.01323    38.089823    31353.651   -10771.429    869.11042   -11640.539   0.53295569 
    2700     287.4377    35.802904     31344.76   -10782.475    876.50352   -11658.978   0.51989325 
    2750      302.089    17.789355    31342.952   -10766.019    921.18074     -11687.2   0.50614972 
    2800    303.36444   -90.291205    31346.134   -10746.417    925.07002   -11671.487   0.48530446 
    2850    301.51766   -15.889426    31357.063   -10743.136    919.43851   -11662.575   0.49368469 
    2900    289.09015   -4.0361211    31354.066   -10748.063    881.54245   -11629.606   0.51778552 
    2950    293.22244   -95.986033    31367.118   -10772.455    894.14333   -11666.598   0.48099205 
    3000    288.19625   -131.50256    31358.931   -10769.006    878.81661   -11647.823   0.51187091 
    3050    282.70273    -63.00883    31368.949   -10746.723    862.06486   -11608.788   0.56308696 
    3100    288.24965   -45.482788    31365.148    -10754.49    878.97946    -11633.47   0.49991948 
    3150    293.14062   -90.851989    31357.395   -10767.851    893.89383   -11661.744   0.49919082 
    3200    287.10127   -6.2251849    31356.799   -10813.449    875.47763   -11688.927   0.47574229 
    3250    281.79321   -18.842464    31341.142   -10855.287    859.29138   -11714.578   0.48496171 
    3300    276.29195   -21.848242    31313.637   -10870.882    842.51603   -11713.398   0.51153526 
    3350     277.2551    40.070998    31314.792   -10829.659      845.453   -11675.112   0.52320451 
    3400    274.60888    50.915605    31325.306   -10807.665    837.38371   -11645.048   0.49354257 
    3450    285.71978    39.112286    31336.244   -10784.806    871.26494    -11656.07   0.50680196 
    3500     280.4385      42.0023     31339.91     -10809.6    855.16039    -11664.76   0.54531013 
    3550    292.36706    38.611923    31331.006   -10795.337    891.53495   -11686.872   0.52560649 
    3600    285.57694     85.32522    31347.129   -10806.217    870.82938   -11677.046   0.47012781 
    3650    284.84158    20.083201    31370.015   -10778.965    868.58699   -11647.552    0.5107343 
    3700    300.28763    4.2388889    31358.723   -10774.274    915.68768   -11689.961   0.49705338 
    3750    302.08209    46.459433    31358.725   -10756.389    921.15966   -11677.548   0.49394936 
    3800    293.01361    57.643782    31375.591    -10767.21    893.50652   -11660.716   0.49945088 
    3850    301.51995   -21.028739    31377.577   -10756.107    919.44548   -11675.553   0.50527707 
    3900    297.95334   -60.779118      31381.5   -10755.782     908.5696   -11664.352   0.51486004 
    3950    298.19196   -38.022753    31372.928   -10764.329    909.29722   -11673.626    0.5065832 
    4000    292.96299   -100.29897    31373.799   -10798.466    893.35216   -11691.818   0.50341239 
    4050    298.88004   -86.216233    31362.778   -10798.956    911.39543   -11710.351   0.49858691 
    4100    291.90923    53.162477    31348.549   -10785.831    890.13886    -11675.97   0.49926369 
    4150    289.00571    76.546916    31346.613   -10777.945    881.28495    -11659.23   0.50470801 
    4200    296.11815    46.377894    31356.881   -10771.339    902.97342   -11674.312   0.46783088 
    4250    293.67287   -30.447355    31363.725   -10799.589    895.51685   -11695.106     0.514354 
    4300    275.41045   -48.970322    31348.171   -10828.318    839.82799   -11668.146   0.54176014 
    4350    295.01079     62.80641    31346.366    -10791.31    899.59668   -11690.907   0.50119101 
    4400    277.76192   -17.906757    31345.006   -10793.248    846.99851   -11640.247   0.49018553 
    4450    278.63986   -42.235226    31349.707   -10812.161    849.67566   -11661.837   0.49734113 
    4500    292.83301    43.674637    31348.577   -10797.657     892.9558   -11690.613   0.53198608 
    4550    285.02905    -99.89658    31347.387   -10818.842    869.15864   -11688.001   0.50338595 
    4600    274.12651    35.373916    31336.246   -10856.635    835.91278   -11692.548   0.46520485 
    4650    287.53607    10.298448    31341.285   -10812.294    876.80348   -11689.097   0.50398519 
    4700    297.99973    -8.323996    31339.191   -10788.153    908.71105   -11696.864   0.53069048 
    4750    294.61437     32.15831    31352.678    -10772.46    898.38783   -11670.848     0.513261 
    4800    298.11357    87.880362      31360.1    -10767.29    909.05818   -11676.348   0.51857723 
    4850    299.57057    23.979457     31354.02   -10758.635    913.50113   -11672.136   0.50107413 
    4900    293.31958    10.975243    31369.164   -10737.993    894.43955   -11632.433   0.49275828 
    4950     307.2868   -17.368948    31362.894   -10733.194    937.03074   -11670.224   0.49201507 
    5000    288.16517    -51.83907    31358.992   -10785.125    878.72186   -11663.847   0.50058374 
    5050     294.2815   -27.264053    31349.431   -10765.108    897.37278   -11662.481    0.5083875 
    5100    288.34233   -28.033845     31358.26   -10758.992    879.26207   -11638.254   0.51865837 
    5150    302.02777    19.852192    31354.525   -10743.984    920.99403   -11664.978    0.5134175 
    5200    288.01004   -52.020435    31354.232   -10784.848    878.24879   -11663.097   0.49708385 
    5250     285.7347   -61.623981     31350.77   -10831.018    871.31045   -11702.329   0.48146946 
    5300     281.7983   -59.842148    31340.198    -10841.39     859.3069   -11700.697   0.53440724 
    5350    289.71015    45.007812     31331.23   -10843.794    883.43305   -11727.227   0.50695093 
    5400    280.29241   -66.650245    31323.112   -10831.555    854.71491    -11686.27   0.46559545 
    5450    280.11973    24.527034    31327.533   -10813.339    854.18832   -11667.528   0.50804812 
    5500    291.58882   -32.117392    31327.974   -10814.354    889.16181   -11703.516   0.52098084 
    5550     281.5347     26.52419    31314.523   -10828.895     858.5031   -11687.398   0.52078514 
    5600    283.66266    21.436019    31308.766   -10843.366    864.99203   -11708.359   0.51755173 
    5650    292.07714    24.743387    31314.658   -10818.731    890.65089   -11709.382   0.49696576 
    5700    293.06139    86.097666    31320.928   -10806.237    893.65221   -11699.889   0.50963268 
    5750    275.38653   -35.304919    31309.602   -10829.525    839.75506    -11669.28   0.52730759 
    5800    288.38235     45.47148    31312.417   -10800.493    879.38409   -11679.877   0.51121558 
    5850    283.22765   -83.292927    31315.551   -10834.878    863.66551   -11698.544    0.5012717 
    5900    288.35393   -79.660952     31307.76   -10839.615    879.29744   -11718.913   0.50962492 
    5950    276.37213   -120.63308    31306.732   -10858.076    842.76053   -11700.836   0.53072646 
    6000    289.47022    47.648604    31307.215   -10850.235    882.70141   -11732.937   0.50851242 
    6050    289.26359   -42.802137     31309.38   -10840.291    882.07132   -11722.362   0.50997215 
    6100    275.94171   -2.7486864    31296.962   -10852.449      841.448   -11693.897    0.5343163 
    6150    272.26777   -96.821036    31300.159   -10864.707     830.2448   -11694.952   0.54203588 
    6200    278.15648   -47.615937    31296.544   -10837.533    848.20165   -11685.735   0.49645021 
    6250     273.5962     59.98842    31294.033   -10828.934     834.2957    -11663.23   0.47966242 
    6300    289.52509    51.879265    31293.842   -10784.241    882.86875    -11667.11   0.53060484 
    6350    285.46364    58.560794    31311.195    -10755.97     870.4839   -11626.453   0.56168131 
    6400    286.24329    9.3700172    31311.665   -10804.067    872.86133   -11676.929   0.52716961 
    6450    289.52283    94.040899    31295.279   -10807.788    882.86184    -11690.65    0.5140516 
    6500    287.39665    68.228024    31311.861   -10808.475    876.37835   -11684.853    0.5212621 
    6550    284.89955    -26.03317    31319.059   -10833.966    868.76376    -11702.73   0.51570784 
    6600    284.47835     62.98493    31318.405   -10834.659    867.47936   -11702.139   0.49692649 
    6650    288.15836    46.207822    31323.741   -10835.829    878.70109    -11714.53   0.48655626 
    6700     283.0525   -51.412631    31322.695   -10832.463    863.13143   -11695.594   0.50363613 
    6750    270.79456   -89.496332    31323.331   -10860.371    825.75244   -11686.123   0.51506053 
    6800    279.34174   -4.3296532    31307.814   -10833.946    851.81595   -11685.762   0.50203491 
    6850    281.26489   -7.4390267    31318.327   -10819.152    857.68034   -11676.833   0.51087254 
    6900    293.01013   -49.737639    31334.032   -10810.647    893.49591   -11704.143   0.52960295 
    6950    296.97324   -12.299728    31342.879   -10807.443    905.58091   -11713.024   0.52189377 
    7000    288.95964    62.113956    31341.383   -10807.339    881.14447   -11688.483   0.47552049 
    7050    286.49307   -115.77586    31352.926   -10798.707    873.62299    -11672.33   0.48323946 
    7100    282.01985    63.446027     31352.15   -10802.025    859.98251   -11662.007   0.48902631 
    7150    286.37972    35.654839    31347.585   -10793.547    873.27736   -11666.824   0.53235372 
    7200    271.52613   -32.203389     31342.56    -10848.16    827.98329   -11676.143   0.52185996 
    7250    291.47713    4.4463399    31329.825   -10862.827    888.82124   -11751.648   0.47983227 
    7300    290.46002      93.7183    31318.447   -10867.978    885.71969   -11753.698   0.49412172 
    7350    278.50265    46.069787    31323.389   -10845.205    849.25725   -11694.462   0.51915129 
    7400    285.27629   -10.561607    31327.047   -10834.294    869.91258   -11704.206   0.51229619 
    7450    286.05141    20.631941    31337.955   -10825.564    872.27622    -11697.84   0.48844701 
    7500    273.76283   -12.112176     31344.34   -10834.594    834.80379   -11669.397   0.48978145 
    7550     279.3353   -103.68447    31343.515   -10833.817    851.79633   -11685.613   0.51409413 
    7600     273.4047    3.6922432    31351.397   -10814.578    833.71173    -11648.29   0.49604602 
    7650    289.81941    3.6214831    31358.136   -10804.065    883.76623   -11687.831   0.49757366 
    7700    283.01661    16.573017     31345.59   -10801.183    863.02198   -11664.205   0.52980514 
    7750    284.91694    54.135843    31359.827   -10835.333     868.8168   -11704.149    0.5082802 
    7800    287.87462   -47.027764    31350.417   -10841.645    877.83585   -11719.481   0.47916951 
    7850    282.10293   -10.143968    31334.982   -10846.017    860.23583   -11706.253   0.46342066 
    7900    293.46586    67.548926    31335.171   -10846.442    894.88562   -11741.328    0.4847894 
    7950    277.24775    18.042601    31345.502   -10813.805    845.43061   -11659.236   0.51443702 
    8000    290.88156    55.152209    31355.285   -10793.425    887.00513    -11680.43   0.51529577 
    8050    297.07098   -4.2045694    31351.966   -10788.916    905.87894   -11694.795   0.48920014 
    8100    283.87476    27.335386    31356.246   -10786.495     865.6388   -11652.134   0.49574535 
    8150    291.95058    61.703272    31364.638   -10759.968    890.26496   -11650.233   0.52875802 
    8200    286.61715   -15.312844    31361.987   -10794.166    874.00136   -11668.167   0.50774794 
    8250     295.4004   -17.777372    31358.503   -10779.336    900.78473   -11680.121    0.4873307 
    8300    300.65504   -11.108157    31369.559   -10751.078    916.80805   -11667.886   0.46588668 
    8350    298.47533    2.5030932    31375.305   -10737.325    910.16134   -11647.486   0.50218502 
    8400    300.14979     -41.7911    31381.881   -10735.108    915.26737   -11650.376   0.51293267 
    8450     295.4159   -51.096179    31376.418   -10755.363    900.83198   -11656.195   0.49532518 
    8500    301.09924   -46.155026    31360.166   -10770.727     918.1626    -11688.89   0.52732967 
    8550     297.0408    34.565728    31346.513   -10771.289     905.7869   -11677.076    0.5217742 
    8600    293.91098   -63.496041    31352.374     -10769.2    896.24294   -11665.443   0.49857477 
    8650    276.52679   -11.489758     31338.26   -10792.674    843.23213   -11635.907   0.47895844 
    8700    294.62341    21.696671    31347.892   -10786.361     898.4154   -11684.777   0.49221813 
    8750    287.89034    74.386687    31343.041   -10797.026     877.8838    -11674.91    0.5093273 
    8800    296.69581   -10.718363     31342.64   -10785.356    904.73492   -11690.091   0.51045486 
    8850    290.11665   -97.614609    31341.006   -10826.639    884.67261   -11711.312   0.49837007 
    8900    287.54201   -13.155671    31330.547   -10827.956    876.82159   -11704.777   0.53052716 
    8950    281.04589   -38.613041    31326.573   -10840.075    857.01252   -11697.088   0.52265805 
    9000    289.67675    53.294203    31328.789   -10808.179    883.33121    -11691.51   0.50907849 
    9050    281.47635    -48.33161    31324.524   -10802.905    858.32515    -11661.23   0.50477704 
    9100    288.53042    62.052683    31321.785   -10804.153    879.83563   -11683.988   0.47578555 
    9150    288.35442    32.609964    31324.845   -10813.756    879.29892   -11693.055   0.50639259 
    9200    296.58569    55.586321    31333.738   -10777.083    904.39911   -11681.482   0.53478697 
    9250    299.60673   -38.690641    31327.774   -10759.974    913.61138   -11673.585   0.52353154 
    9300    286.56382   -44.029044    31332.456   -10803.904    873.83874   -11677.743   0.51377583 
    9350     281.1587    95.587398    31322.567   -10842.517    857.35653   -11699.874   0.51903476 
    9400    287.54528    30.588314    31313.192   -10822.532    876.83156   -11699.364   0.52187257 
    9450    293.01402    77.763663    31313.378   -10801.837    893.50778   -11695.344   0.49323244 
    9500    283.47463    13.769358    31302.748   -10814.893    864.41866   -11679.312   0.51070289 
    9550    282.57781    58.441772    31307.201   -10821.459    861.68394   -11683.143   0.52427396 
    9600    280.48251   -167.19594    31311.149   -10852.898    855.29459   -11708.193    0.5088712 
    9650    285.06715   -59.226314    31299.444   -10813.144    869.27483   -11682.419   0.51924807 
    9700    285.94823    2.2749838    31309.822   -10805.942    871.96158   -11677.903   0.52983838 
    9750     290.2352    42.838663    31311.206   -10762.431    885.03414   -11647.465   0.55348496 
    9800    277.02153    35.175167    31323.722   -10772.117    844.74077   -11616.858   0.53586529 
    9850    285.61083   -12.420099    31329.304   -10791.642    870.93273   -11662.575   0.47794235 
    9900    292.40745   -23.091921    31324.197   -10786.076    891.65813   -11677.735   0.51309203 
    9950    286.59881    46.312946    31329.107   -10779.989    873.94543   -11653.934   0.51669759 
   10000    296.04087    94.404477    31328.583   -10777.862    902.73776   -11680.599   0.50438121 
   10050    290.00132   -11.275764    31329.413   -10807.725    884.32093   -11692.046   0.50916314 
   10100    299.02335   -22.595031    31334.135   -10771.079    911.83245   -11682.911    0.5030306 
   10150    295.73641    91.801878    31346.216    -10765.87    901.80934   -11667.679   0.51607526 
   10200    307.29812    31.431337     31360.21    -10730.82    937.06526   -11667.886   0.54133387 
   10250    295.91413    136.04024    31367.216   -10719.186    902.35129   -11621.537   0.50710398 
   10300    302.21064   -64.737194    31359.718   -10730.908    921.55167    -11652.46   0.48595859 
   10350    299.21727    58.934317    31350.428   -10739.644    912.42376   -11652.068   0.51224793 
   10400    299.88985    47.805175    31358.889   -10720.329    914.47473   -11634.804   0.50006016 
   10450    303.36205    8.2839002    31363.311   -10745.129    925.06272   -11670.192   0.50307791 
   10500    288.72751 -0.019566247    31358.989    -10779.29    880.43663   -11659.727   0.49601939 
   10550     292.0512   -13.683745    31352.928   -10777.371    890.57178   -11667.943   0.54134657 
   10600    280.86384    31.888482    31346.597   -10796.892    856.45741    -11653.35   0.52825216 
   10650    274.76603    72.144784    31353.315   -10803.324    837.86292   -11641.187   0.48736059 
   10700    293.50697   -44.427948    31356.647   -10807.077    895.01096   -11702.088   0.48803441 
   10750    292.03709   -79.489888    31348.177   -10815.788    890.52874   -11706.317   0.50489111 
   10800    289.80166    52.458532    31344.927   -10839.247    883.71209   -11722.959   0.48891965 
   10850    285.32573    6.3228199    31334.794   -10874.771    870.06334   -11744.835   0.48295104 
   10900    276.57729    -36.15201    31319.867   -10883.047    843.38613   -11726.433   0.48380955 
   10950    271.11047   -56.676866    31319.306   -10882.911    826.71579   -11709.627   0.52084547 
   11000    269.94998   0.13110818    31313.724   -10886.728    823.17703   -11709.905   0.53837737 
   11050    281.35807    87.657052    31311.311   -10865.688    857.96447   -11723.652   0.51732384 
   11100    288.99755    5.5098128    31335.531   -10823.011    881.26007   -11704.271   0.47326308 
   11150    281.01529   -27.030756    31338.942   -10819.813    856.91921   -11676.732   0.51022017 
   11200    293.49909   -71.376413    31342.081    -10823.38    894.98694   -11718.367   0.48328815 
   11250    279.65763   -20.687069    31327.558   -10864.292    852.77922   -11717.071   0.50764515 
   11300     288.0061     103.7529    31330.594   -10852.479    878.23678   -11730.716   0.50128504 
   11350    282.44879    62.047209    31334.115   -10832.329     861.2905    -11693.62   0.51852707 
   11400    288.37875   -80.077544    31334.062   -10845.804    879.37312   -11725.177   0.51244628 
   11450    286.31283   -23.706268    31330.517   -10820.027    873.07336   -11693.101   0.50477974 
   11500    284.59016   -16.367812    31329.855   -10802.452    867.82032   -11670.272   0.51326645 
   11550    288.99594   -6.6835683    31336.065   -10779.835    881.25517   -11661.091   0.51978462 
   11600    304.42758    89.827843    31359.063    -10734.93    928.31194   -11663.242   0.50490274 
   11650    296.94309    38.846741     31359.16   -10768.096    905.48896   -11673.585   0.47881822 
   11700    301.53721    88.004892    31355.396   -10717.642    919.49812    -11637.14   0.50618059 
   11750    302.16704   -62.262637    31365.954   -10702.718    921.41872   -11624.137   0.52835871 
   11800    301.81184    86.419494    31357.418   -10709.337    920.33557   -11629.673   0.53720582 
   11850    292.40406    17.698183    31350.557   -10739.661     891.6478   -11631.309   0.53682902 
   11900    300.58675    8.2981055    31358.173   -10729.406    916.59983   -11646.006   0.49076155 
   11950    291.88797   -4.7032563    31354.327   -10750.162    890.07403   -11640.236   0.50331391 
   12000     293.4262    -23.79927    31345.055   -10745.189    894.76467   -11639.953   0.52044561 
   12050    293.33837   -79.948758     31345.53   -10736.678    894.49685   -11631.175   0.54487787 
   12100    294.91131    79.703926    31345.253    -10759.22    899.29331   -11658.514   0.49373115 
   12150    291.30343    2.2694553    31340.752   -10762.852    888.29155   -11651.144    0.4847094 
   12200    284.48485   -17.428837    31333.816   -10771.894    867.49918   -11639.393   0.53838987 
   12250    290.61499   -30.862112    31348.442   -10766.534    886.19224   -11652.726   0.52975025 
   12300    283.61529   -81.190838    31336.682   -10802.031    864.84759   -11666.878   0.50847305 
   12350    286.06604    84.319823    31337.605   -10780.797    872.32084   -11653.118   0.51757957 
   12400    286.40657     40.26962    31335.255   -10800.993    873.35921   -11674.352   0.50570326 
   12450    282.85184    7.5852574    31330.011   -10783.819    862.51954   -11646.338   0.50406782 
   12500     286.5144    11.658593    31339.402   -10779.333    873.68802   -11653.021   0.48659411 
   12550    283.60078   -73.879354     31354.93   -10781.158    864.80332   -11645.961   0.50376987 
   12600    297.60927    3.0800643    31360.506   -10758.279    907.52038   -11665.799    0.5271058 
   12650    301.47697    61.926494    31355.288   -10753.436    919.31444   -11672.751   0.50385814 
   12700    297.24421  -0.82673077    31359.425    -10756.23     906.4072   -11662.638   0.50864945 
   12750    291.49949    12.560971    31367.169    -10790.75    888.88942    -11679.64   0.47980089 
   12800    291.85465   -100.45878    31359.255   -10777.654    889.97243   -11667.626   0.51279274 
   12850    294.06474    1.0950155    31361.746     -10797.9     896.7118   -11694.612   0.50544197 
   12900    291.01334    40.625166    31357.218   -10791.143    887.40697    -11678.55   0.46462638 
   12950    296.48241   -47.446816    31350.081   -10807.299    904.08416   -11711.383   0.48663547 
   13000    294.94264   -40.456242    31340.211   -10795.854    899.38884   -11695.243   0.50861195 
   13050    283.70261    24.409922    31336.464   -10795.718    865.11385   -11660.832   0.52467389 
   13100    281.99625   -33.527487    31329.917   -10831.163    859.91052   -11691.074   0.51090385 
   13150    282.27166   -11.447789    31329.075   -10839.215    860.75035   -11699.965    0.5119772 
   13200    283.64305    2.7346009    31326.343   -10853.328    864.93222    -11718.26   0.50310835 
   13250    279.78418    82.340728     31328.05   -10851.085    853.16511    -11704.25   0.49213124 
   13300    284.03832     65.80989    31328.611   -10834.862    866.13757   -11700.999   0.49374753 
   13350    278.47309    21.959249     31319.81   -10833.135    849.16713   -11682.302    0.4988166 
   13400    287.28967    -10.27056    31318.463   -10843.434    876.05213   -11719.486   0.52170786 
   13450    293.40498    10.433584    31318.895   -10853.008    894.69997   -11747.708   0.51436032 
   13500    292.21595    55.190385     31323.73   -10802.476    891.07415    -11693.55   0.50801486 
   13550    284.11077   -71.955592    31340.126   -10817.944     866.3585   -11684.302   0.49715327 
   13600    283.44787   -68.329803    31347.071   -10811.657    864.33707   -11675.995   0.51161078 
   13650    291.87025   -6.7238216    31341.771   -10802.256    890.02001   -11692.276   0.52304847 
   13700     286.7845   -44.587609    31335.717    -10833.11    874.51167   -11707.622   0.48113491 
   13750    288.21998    66.379337    31332.185   -10819.147    878.88897   -11698.035   0.48073847 
   13800    284.69021    30.132949     31336.59   -10787.787     868.1254   -11655.912   0.50860222 
   13850    286.66145    43.105305    31328.735   -10797.591    874.13646   -11671.728   0.52884253 
   13900    293.15633    21.565919    31324.839   -10811.411    893.94172   -11705.353   0.51165255 
   13950    290.64677    61.542729    31336.097   -10786.191    886.28916    -11672.48   0.50814321 
   14000     297.3918    73.504524    31347.968   -10754.819    906.85724   -11661.676   0.51980645 
   14050    298.64745    15.806229    31357.128   -10734.878    910.68619   -11645.564   0.49491444 
   14100    291.18707   -59.184505    31368.461    -10767.09    887.93674   -11655.027    0.4995516 
   14150    292.69356   -16.988764    31348.193   -10768.463    892.53058   -11660.993   0.48526454 
   14200    293.55231   -72.366281    31344.917   -10794.568    895.14923   -11689.717    0.4937947 
   14250    294.40103    -18.20741    31337.052   -10806.841    897.73727   -11704.579   0.50082115 
   14300    292.21057   -14.936732    31345.759   -10798.168    891.05776   -11689.226   0.50770172 
   14350      282.227   -47.316292    31337.536   -10828.075    860.61417    -11688.69   0.51928212 
   14400    272.65038    124.56345    31332.771   -10841.753    831.41154   -11673.165    0.5221581 
   14450    269.55177    9.1188927    31325.959   -10846.314    821.96272   -11668.277   0.50710509 
   14500    288.21077   -51.558468    31312.412   -10822.673    878.86089   -11701.534   0.48514096 
   14550    292.88908    24.949718    31307.296   -10837.956     893.1268   -11731.083   0.49570998 
   14600    279.02696    34.564303    31309.093   -10835.884    850.85606    -11686.74   0.49840932 
   14650    281.93495    52.434836    31318.854   -10803.286    859.72361    -11663.01   0.52900391 
   14700    278.13073   0.15782618    31328.193   -10811.187    848.12314    -11659.31    0.5028568 
   14750    288.57827     56.44928    31333.778   -10793.915    879.98154   -11673.897    0.5339234 
   14800    289.14141    41.669134     31350.77   -10757.162    881.69876    -11638.86   0.52281839 
   14850    287.26456    13.813477    31347.377   -10780.673    875.97555   -11656.649   0.49764607 
   14900    291.75195   -133.14495    31347.745   -10788.776    889.65927   -11678.435   0.50042024 
   14950    286.53443   -4.1479447    31344.316   -10775.001    873.74911    -11648.75   0.48762439 
   15000     284.6389    88.534098    31327.187   -10816.255    867.96894   -11684.224   0.50367754 
   15050    280.22324   -4.7641896    31329.946   -10800.904    854.50396   -11655.408   0.51931411 
   15100    284.11975    22.932947    31326.389   -10798.306    866.38587   -11664.691   0.52481915 
   15150    281.48106   -22.647134    31331.913   -10809.658    858.33952   -11667.998   0.53007357 
   15200    287.21104   -32.931843    31335.537   -10798.315    875.81236   -11674.127   0.54717614 
   15250     297.5565   -2.4510602     31333.17   -10777.711    907.35947   -11685.071   0.51144446 
   15300    293.04535    81.001886    31338.301   -10782.113    893.60332   -11675.717   0.47771673 
   15350    280.10097    98.793965     31334.19   -10814.806    854.13111   -11668.937   0.50287353 
   15400    284.58422   -33.001248    31332.787   -10814.327    867.80219   -11682.129    0.5088662 
   15450    287.42108   -90.215071    31332.151   -10815.687    876.45284    -11692.14    0.5183188 
   15500    287.07481   -4.1460372    31333.023   -10811.112    875.39693   -11686.509   0.48984378 
   15550    287.12671   -48.641267    31337.721   -10791.321     875.5552   -11666.876   0.53053464 
   15600    296.55911    47.060622    31350.148   -10743.702    904.31807    -11648.02   0.53359853 
   15650     302.1445     15.70896    31368.471   -10727.934    921.34998   -11649.284   0.52034507 
   15700    308.40099    51.584284    31380.743   -10720.705    940.42833   -11661.133   0.47571746 
   15750    296.52325   -6.3252484    31369.601    -10728.35    904.20872   -11632.559   0.49602547 
   15800    297.33484   -92.652554    31367.033   -10735.663    906.68355   -11642.347   0.50908678 
   15850    303.62652    9.0720217    31361.374    -10750.85    925.86921   -11676.719   0.47748233 
   15900    298.73054    31.900612    31356.197    -10750.05    910.93955    -11660.99   0.51380421 
   15950    292.88102   -80.370302    31363.554   -10762.108    893.10221    -11655.21   0.51799194 
   16000     290.6321    4.1619268    31349.798   -10768.098    886.24444   -11654.343    0.5366535 
   16050    291.03053    18.198401    31352.603   -10781.678    887.45939   -11669.137   0.50133067 
   16100    280.97523    20.020169    31347.827   -10788.409    856.79707   -11645.206   0.48816703 
   16150    291.06553   -66.878455    31337.191   -10788.296    887.56613   -11675.863   0.50866239 
   16200    294.60534    50.895033    31346.881    -10745.51    898.36028    -11643.87   0.50125128 
   16250    289.77557   -2.9928769    31340.077   -10774.401    883.63256   -11658.034   0.50672686 
   16300    291.93829   -40.459189     31337.43   -10772.505    890.22748   -11662.732   0.50626745 
   16350    288.72028     17.37752    31333.752   -10794.178    880.41457   -11674.592   0.50452601 
   16400    290.20768   -15.838884    31327.435   -10776.608    884.95022   -11661.558   0.52627365 
   16450    285.01379   -27.984873    31326.716   -10803.277    869.11214   -11672.389   0.55121208 
   16500    292.42924     66.15136    31325.174   -10772.435    891.72457   -11664.159   0.48770031 
   16550    292.62767    91.116936    31334.969   -10753.195    892.32966   -11645.525   0.49927266 
   16600    288.12686    -60.55878      31336.7   -10751.728    878.60504   -11630.333   0.49807461 
   16650    299.84864   -28.378782     31342.45    -10732.17    914.34906   -11646.519   0.53247712 
   16700    285.40781    9.0822666    31354.282     -10769.5    870.31363   -11639.814   0.49592847 
   16750    293.49891   -46.820896    31342.561   -10760.245    894.98637   -11655.231    0.5094598 
   16800    289.97973   -36.088092    31347.647   -10782.247    884.25511   -11666.503   0.53413561 
   16850    288.66122   -73.330116    31339.297   -10778.908    880.23447   -11659.143   0.53194297 
   16900    290.98654   -29.139023    31343.154   -10785.549    887.32526   -11672.874   0.48625724 
   16950    277.47892    46.184438    31344.609   -10802.707    846.13552   -11648.843   0.50474598 
   17000    278.07921    60.366587    31329.847    -10809.29    847.96603   -11657.256   0.51747703 
   17050    282.99242   -58.833292     31333.88   -10829.007    862.94822   -11691.955   0.50045982 
   17100    285.77172    62.471987    31325.434   -10794.431    871.42332   -11665.855   0.48696004 
   17150    284.25334   -50.815965    31339.244   -10804.208    866.79324   -11671.002   0.50074825 
   17200    285.70036    -56.72123    31322.197   -10827.616    871.20574   -11698.822   0.51541554 
   17250    294.18458    7.3034679    31330.842   -10833.849    897.07724   -11730.926   0.52348234 
   17300    276.28999   -13.376423    31321.884   -10847.658    842.51004   -11690.168   0.51633364 
   17350    282.53462   -56.062271    31325.581   -10863.791    861.55222   -11725.343   0.50346036 
   17400     289.5641    57.547397    31325.949   -10847.743    882.98771   -11730.731    0.4699138 
   17450    284.55676    37.919748    31324.645   -10866.802    867.71846   -11734.521   0.48978994 
   17500    276.25451   -59.804114    31319.179   -10839.938    842.40185    -11682.34   0.50665035 
   17550    291.33688   -23.878357    31321.672   -10829.367    888.39355   -11717.761   0.48945039 
   17600    287.35573    30.838362    31331.826    -10804.19    876.25356   -11680.443   0.50496526 
   17650    278.38367   -62.925669    31332.632   -10825.951    848.89445   -11674.845    0.5140708 
   17700    286.16772   -39.328925    31331.914   -10810.087     872.6309   -11682.718   0.55920878 
   17750    280.45152   -77.328773    31340.273    -10834.05    855.20008   -11689.251   0.48827803 
   17800    297.48143    15.131518      31317.7   -10826.462    907.13056   -11733.592   0.49641593 
   17850    289.43299   -14.238951    31308.423   -10822.556    882.58788   -11705.144   0.51261222 
   17900    278.64888   -38.751152    31307.192   -10790.122    849.70315   -11639.825   0.50710392 
   17950    282.77475    32.428217    31321.615   -10784.109    862.28446   -11646.393   0.49329249 
   18000    292.03326      94.3632    31339.512   -10811.614    890.51708   -11702.132   0.51125397 
   18050    294.79341    76.645016     31342.31   -10789.513    898.93381   -11688.447   0.53143441 
   18100    294.60546    47.947731    31352.088   -10778.251    898.36065   -11676.612   0.51182969 
   18150    294.62272    101.15967    31340.623   -10763.435     898.4133   -11661.848   0.49092609 
   18200    293.54022     57.16204    31352.274   -10797.919    895.11235   -11693.032   0.50250776 
   18250    292.18435    26.212542     31353.39   -10779.678     890.9778   -11670.655   0.47196471 
   18300    281.78859    -19.41441    31350.095   -10772.299     859.2773   -11631.577   0.51652735 
   18350    304.28338   -58.946913    31346.336    -10741.22    927.87222   -11669.092   0.51213011 
   18400     293.5394   -9.3170127    31342.853   -10761.812    895.10984   -11656.922   0.50720766 
   18450    296.14609   -10.711715    31339.981   -10799.886    903.05862   -11702.945   0.50048164 
   18500    277.01988    20.576351    31327.491     -10771.3    844.73576   -11616.036   0.53341028 
   18550    293.82672    -61.57435     31330.88   -10767.554      895.986    -11663.54   0.54239808 
   18600    294.34459    20.027711    31338.798   -10752.686    897.56517   -11650.251   0.50144685 
   18650    304.02286    52.804801    31328.954   -10735.131     927.0778   -11662.208   0.50142388 
   18700    294.19871     88.01142    31324.246   -10756.178    897.12034   -11653.299   0.52262237 
   18750    288.50775    74.053827    31331.871   -10768.217    879.76649   -11647.983    0.5103066 
   18800     294.5868    90.377429    31339.656   -10782.945    898.30376   -11681.248   0.49646551 
   18850    273.59679    -6.716489    31336.516   -10785.304    834.29749   -11619.601   0.52080292 
   18900    286.41912   -66.931495    31358.351   -10774.745    873.39751   -11648.142   0.52404091 
   18950    299.54862   -19.942745    31350.697   -10767.817    913.43417   -11681.251   0.49305804 
   19000    295.77384    38.086013    31351.526   -10766.524    901.92349   -11668.448   0.48599499 
   19050      289.796    31.572139    31364.312   -10768.014    883.69486   -11651.709   0.51379841 
   19100    286.36186    26.308423    31367.911   -10780.338    873.22288   -11653.561   0.50277798 
   19150    293.91004    54.147691    31361.265   -10764.515    896.24007   -11660.755   0.48563586 
   19200    294.62208    17.826541    31358.181   -10786.098    898.41133   -11684.509   0.48211826 
   19250    289.87299   -11.272776    31337.263   -10783.868    883.92962   -11667.797   0.50944953 
   19300    300.82941    35.689586    31350.523   -10757.768    917.33977   -11675.108   0.51022042 
   19350    299.97772    29.604529    31362.376    -10712.01    914.74267   -11626.752   0.51416586 
   19400    300.86173   -65.414378    31373.479   -10741.383    917.43835   -11658.821   0.50648108 
   19450    293.71945    59.524726    31370.846   -10742.021     895.6589    -11637.68   0.48862304 
   19500    294.30488    113.51792    31361.679   -10749.415    897.44407   -11646.859   0.50961415 
   19550    288.91598   -16.007191    31352.706   -10742.166    881.01135   -11623.177    0.4990303 
   19600     286.5243    90.421412     31361.22   -10753.263    873.71824   -11626.981   0.48782567 
   19650    294.81601    48.970456    31350.898     -10747.8    899.00271   -11646.803   0.47854752 
   19700    300.53259    19.125585     31353.25    -10748.88    916.43466   -11665.315   0.51698326 
   19750     295.9093    15.158216    31349.719   -10764.459    902.33654   -11666.795   0.52236733 
   19800    296.18012    27.987611    31357.493   -10753.983    903.16237   -11657.145   0.50856834 
   19850     295.6549    90.667478    31346.085   -10743.534    901.56078   -11645.095   0.50522319 
   19900    289.62488   -98.690344     31345.12    -10730.97    883.17305   -11614.143   0.52054748 
   19950    282.62415   -38.557107    31351.085   -10778.183    861.82523   -11640.009   0.49485927 
   20000    296.96027    16.006956    31344.241   -10772.347    905.54134   -11677.888   0.48383138 
   20050    289.70482    4.5682051    31337.567   -10791.021     883.4168   -11674.438   0.49690522 
   20100    290.60596   -28.904186    31330.264   -10800.723     886.1647   -11686.887   0.52874969 
   20150    290.70336    33.840578    31335.811   -10797.784    886.46172   -11684.246   0.50704059 
   20200    284.26572   -48.289675      31335.9   -10813.939    866.83098    -11680.77   0.51979219 
   20250    288.97419    23.169085    31336.487   -10794.936    881.18883   -11676.125   0.49943616 
   20300    283.04598    46.543587    31345.643   -10797.707    863.11153   -11660.818   0.50327045 
   20350    289.81994   -77.316793     31357.08   -10778.822    883.76783    -11662.59   0.48265788 
   20400    292.34857    95.507864    31361.763    -10754.45    891.47857   -11645.929   0.48490294 
   20450    290.83355    89.686188    31360.815   -10784.502    886.85873    -11671.36   0.48207446 
   20500    301.01301   -3.7688432    31361.295   -10804.976    917.89966   -11722.876   0.49424235 
   20550    292.66883   -12.423699    31344.466   -10828.384    892.45517   -11720.839   0.50573093 
   20600    286.19884   -7.2798439    31332.391   -10854.575    872.72577   -11727.301   0.49827061 
   20650    279.54844    18.022647    31331.032   -10836.662    852.44626   -11689.108   0.51654158 
   20700    283.28304    39.981402    31326.378   -10849.712    863.83442   -11713.546   0.47374784 
   20750    288.09957    45.958207    31334.821   -10814.038    878.52179    -11692.56   0.48936788 
   20800    279.33702   -19.200719    31340.068    -10826.92    851.80156   -11678.722   0.48570463 
   20850    288.68099   -30.324536    31344.543   -10791.253    880.29477   -11671.548   0.51042033 
   20900    290.99695   0.84527002    31354.566   -10788.446    887.35699   -11675.803   0.50621904 
   20950    270.74474   -15.920901    31356.606    -10813.93    825.60054    -11639.53   0.50741267 
   21000     286.4177   -5.1643419    31351.281    -10793.87    873.39317   -11667.263   0.49629348 
   21050    286.53735    94.137481    31345.556   -10809.459    873.75803   -11683.217   0.49659812 
   21100     287.4827     -87.6439     31348.73   -10805.839    876.64076    -11682.48   0.51176946 
   21150    297.69752    10.123756     31359.13   -10765.552     907.7895   -11673.342   0.50539158 
   21200    293.85922    137.41626    31371.977   -10756.249     896.0851   -11652.335    0.4756791 
   21250    290.63289   -15.907524    31379.891   -10765.322    886.24684   -11651.569   0.47267043 
   21300    298.34246    20.075268    31370.823   -10748.227    909.75615   -11657.983   0.49524692 
   21350    303.38962   -103.79671    31362.601   -10756.022    925.14682   -11681.169   0.50554767 
   21400    298.76279    26.493577    31343.733   -10781.743    911.03789   -11692.781   0.49632714 
   21450    284.32082   -76.694026    31343.268   -10776.365      866.999   -11643.364   0.51591166 
   21500    286.07662   -11.182757    31349.079   -10754.841     872.3531   -11627.195   0.51532146 
   21550    297.30372    53.272015    31370.129   -10733.103    906.58864   -11639.692    0.4781199 
   21600    293.11677     36.87191    31372.745   -10725.199    893.82111    -11619.02   0.51331683 
   21650    302.23532    64.022885    31379.386   -10714.947    921.62691   -11636.574   0.49261774 
   21700    303.16004    19.478693    31369.241   -10759.959    924.44674   -11684.406     0.482219 
   21750    285.17324   -89.561569    31359.266   -10787.349    869.59836   -11656.948   0.49224814 
   21800    284.67956   -14.406476    31347.862   -10808.576    868.09295   -11676.669   0.49260087 
   21850    286.23863    46.385152    31341.964   -10813.432     872.8471   -11686.279   0.50429822 
   21900    287.50093    10.135985      31341.6   -10823.354    876.69632    -11700.05   0.52258414 
   21950      296.733    112.03355    31355.962   -10807.451    904.84833   -11712.299   0.48125282 
   22000    285.85168   -71.751133    31343.241   -10826.845    871.66716   -11698.512   0.48095886 
   22050    287.03054   -39.155205     31348.68   -10819.731    875.26195   -11694.993   0.46689275 
   22100    285.10479   -13.446092    31351.682   -10808.855    869.38961   -11678.244   0.49606021 
   22150    284.74736   -31.868802     31336.53   -10847.585    868.29968   -11715.885   0.49564658 
   22200    280.35829    21.159846    31329.325   -10870.651    854.91579   -11725.567   0.49404473 
   22250    293.02337   0.37315543    31320.265   -10872.452    893.53628   -11765.988   0.50378416 
   22300    285.52662   -10.782485    31321.732   -10867.065    870.67592   -11737.741   0.48782792 
   22350    281.74104   -19.159018    31333.392   -10846.355     859.1323   -11705.488   0.50149875 
   22400    293.26416   -56.635996    31331.895   -10783.909    894.27056   -11678.179    0.4912872 
   22450    290.50057    39.702578    31344.491   -10793.496    885.84335   -11679.339   0.49645322 
   22500    300.36518    71.372561    31341.124   -10775.265    915.92419   -11691.189   0.48296849 
   22550    290.06855    121.86973    31353.855    -10781.87    884.52596   -11666.396   0.49939824 
   22600    297.50695    100.69633    31359.401    -10780.25    907.20838   -11687.459   0.49285538 
   22650    282.85656    75.925158    31362.144   -10799.061    862.53393   -11661.595   0.51031052 
   22700    286.50936   -96.741117    31360.559    -10829.75    873.67267   -11703.423   0.48017772 
   22750    279.20356   -98.744411    31346.924   -10814.972    851.39459   -11666.366   0.51229271 
   22800    295.73717    28.476902    31363.892   -10797.036    901.81166   -11698.848   0.45659053 
   22850    287.67977     83.07499    31360.629   -10782.419    877.24168   -11659.661   0.49076428 
   22900    294.15958   -16.620866    31354.175    -10809.82      897.001   -11706.821   0.48146879 
   22950    283.45148   -9.6708298    31355.093   -10805.603    864.34806   -11669.951   0.50183293 
   23000    289.70932    18.830006    31354.818   -10821.798    883.43052   -11705.228   0.50254156 
   23050    278.65607   -103.39848    31351.113   -10817.949     849.7251   -11667.674    0.4907502 
   23100     286.7024   -27.013338     31352.87   -10817.414    874.26131   -11691.675   0.50630346 
   23150    287.08849   -56.547448    31365.107   -10781.844    875.43866   -11657.282   0.48815426 
   23200    289.05014    34.381348    31370.669   -10813.935    881.42044   -11695.355   0.46759041 
   23250    294.86788    45.168164    31369.718   -10774.074    899.16087   -11673.235   0.49504268 
   23300    293.60804    44.123032    31381.915   -10776.022    895.31916   -11671.341   0.48268722 
   23350    287.61849    29.489264    31378.504   -10778.411    877.05481   -11655.466   0.48545476 
   23400    288.80794    115.79745    31379.319   -10768.044    880.68189   -11648.726   0.48815533 
   23450     288.0337    70.577882    31376.541    -10781.97    878.32095   -11660.291   0.49186623 
   23500    293.65703    33.887616    31361.348   -10767.999    895.46854   -11663.467   0.49933027 
   23550    304.30704    69.847671    31364.216    -10760.58    927.94435   -11688.524   0.49303291 
   23600    299.13735    22.598387    31380.556   -10727.566    912.18007   -11639.746   0.49111574 
   23650    301.34163   -21.443244    31391.265   -10735.611    918.90172   -11654.513    0.4820454 
   23700    297.27326   -18.805388    31388.916   -10763.945    906.49578   -11670.441   0.47515651 
   23750    307.30302    -7.133996    31384.688   -10747.591    937.08021   -11684.671   0.47936047 
   23800    299.30137   -26.133047    31374.025   -10754.165    912.68024   -11666.845   0.49881908 
   23850    293.80178    38.036056    31362.466   -10754.928    895.90995   -11650.838    0.5031196 
   23900      287.993   -29.957214    31357.123   -10806.824    878.19683   -11685.021   0.49444959 
   23950    288.91068   -20.477345    31348.402   -10800.189    880.99517   -11681.184   0.49796734 
   24000    288.69765   -71.975902    31357.094   -10800.252    880.34557   -11680.597   0.51135122 
   24050    296.74563   -54.598634    31367.499   -10786.889    904.88684   -11691.776   0.46938313 
   24100    298.82443   -34.393932     31362.27    -10780.68    911.22586   -11691.906   0.46589482 
   24150    293.83355   -1.2584478    31366.787   -10750.543    896.00683    -11646.55   0.50040304 
   24200    283.87154    -9.773979     31369.08   -10775.034    865.62898   -11640.663   0.48413156 
   24250    285.85714   -19.467776    31359.787   -10798.967    871.68382    -11670.65   0.48737632 
   24300    270.32042    32.542935    31352.586   -10797.648    824.30661   -11621.954   0.54051538 
   24350    284.98777    -46.97152    31352.174   -10822.929    869.03279   -11691.961   0.50902807 
   24400    282.15868    44.236047     31354.71   -10805.119    860.40584   -11665.525   0.47211739 
   24450    277.65669   -99.885285    31342.801   -10830.961     846.6776   -11677.638   0.47737733 
   24500    285.86399   -37.877979      31350.4    -10821.79    871.70471   -11693.494   0.47910055 
   24550    289.97936    3.7503044    31352.365   -10806.052    884.25397   -11690.306   0.49925135 
   24600    284.76693   -95.079099    31356.387   -10827.793    868.35935   -11696.153    0.4793494 
   24650    283.74422    55.597543    31348.196   -10832.212    865.24073   -11697.453    0.4937352 
   24700    294.25574    70.253981    31330.923    -10838.81    897.29423   -11736.104   0.50498567 
   24750     278.9185    21.251586    31326.077   -10831.048    850.52535   -11681.574   0.51648019 
   24800    288.32292    36.515993    31331.557   -10799.531    879.20289   -11678.734   0.49756038 
   24850    292.96304    66.273046    31338.443   -10809.078    893.35231    -11702.43   0.47765572 
   24900    284.76219   -25.383529    31342.256   -10831.695     868.3449   -11700.039     0.485703 
   24950    295.91779   -65.969375    31328.124   -10830.623    902.36246   -11732.985   0.48419007 
   25000    280.76468   -14.050942    31331.107    -10842.68    856.15503   -11698.835   0.49222807 
   25050    285.30237     64.25138    31337.079   -10835.214    869.99212   -11705.206    0.5012303 
   25100    283.48666    11.007306    31324.392    -10847.31    864.45536   -11711.765   0.49664466 
   25150    285.31839    36.854274    31321.217   -10861.494    870.04095   -11731.535    0.5122315 
   25200     276.9436    13.691191    31316.191   -10897.808    844.50314   -11742.311   0.50334888 
   25250    273.40074   -4.8929521    31293.068   -10921.767    833.69966   -11755.466    0.4702495 
   25300    274.89725   -30.812277    31287.518   -10887.558    838.26308   -11725.821   0.49597013 
   25350    286.06197   -16.023686    31304.692   -10857.454    872.30843   -11729.763    0.5073003 
   25400    289.09548    45.365962    31310.017   -10825.894    881.55871   -11707.453   0.52055471 
   25450    280.24722    1.6215662    31316.367   -10842.773     854.5771    -11697.35   0.49185034 
   25500    286.69205    6.4775291    31323.847   -10815.761    874.22975    -11689.99   0.48853049 
   25550    276.55837    70.598937    31334.967   -10816.593    843.32842   -11659.921   0.52164982 
   25600    282.57829    74.633906    31329.882   -10799.239    861.68539   -11660.924   0.51205904 
   25650    296.17736    21.934812    31354.663   -10765.805    903.15398   -11668.959   0.47485447 
   25700    294.58451    6.4215586    31355.049   -10801.481    898.29678   -11699.778   0.49800384 
   25750    294.09952    10.982239    31356.316   -10805.996    896.81787   -11702.814   0.48813072 
   25800    291.96536   -11.628404    31347.294   -10805.909    890.31004   -11696.219   0.47495445 
   25850    301.19113    30.803485    31350.341   -10742.891    918.44279   -11661.334   0.50026547 
   25900    291.36145    21.698049      31370.1   -10733.659    888.46849   -11622.128   0.50964636 
   25950    291.96608    -126.7825    31373.725   -10755.012    890.31221   -11645.324   0.51963887 
   26000    279.17704    39.938603    31371.843   -10784.573    851.31373   -11635.887   0.50867803 
   26050    285.29286   -23.276643    31377.271   -10783.916    869.96312   -11653.879   0.51290425 
   26100     293.2381   -7.9828054    31381.397   -10763.756    894.19108   -11657.947    0.4837693 
   26150    290.87183    25.620055    31368.092   -10779.676    886.97546   -11666.651   0.46364794 
   26200    287.91861     25.57544    31367.913   -10790.802    877.96998   -11668.772   0.50045866 
   26250    283.36784   -20.543802    31365.632   -10818.366    864.09301   -11682.459    0.5102937 
   26300    283.77937   -21.531718    31358.141   -10844.644    865.34793   -11709.992   0.47933589 
   26350    286.45648    45.271558     31360.16   -10810.455    873.51142   -11683.967   0.48720343 
   26400     287.8128    23.224209     31354.62   -10843.796    877.64733   -11721.444   0.53507953 
   26450     284.0344    61.595347    31345.419   -10827.845     866.1256    -11693.97   0.47944952 
   26500    281.68538   -76.155266    31340.474   -10815.027    858.96256    -11673.99    0.4989673 
   26550      285.243   -24.983599    31349.443   -10789.346    869.81109   -11659.157   0.49809018 
   26600    294.91998   -49.894796    31348.476   -10794.149    899.31976   -11693.468   0.49924014 
   26650    294.85438    35.123859    31337.337   -10776.317    899.11971   -11675.437   0.50059371 
   26700    297.16477    50.366058    31338.078   -10771.084    906.16494   -11677.249   0.49527151 
   26750    290.80989   -41.953806    31348.563   -10762.914    886.78658     -11649.7   0.53957699 
   26800     295.4392     26.68929    31355.423   -10762.538    900.90305   -11663.441   0.51807312 
   26850    293.33378    -20.64893    31348.294   -10780.952    894.48284   -11675.435   0.48941191 
   26900    285.80511   -36.907476    31335.048   -10796.891    871.52515   -11668.416   0.50154847 
   26950    298.15018    10.839222    31340.743   -10737.859    909.16983   -11647.029   0.51542057 
   27000    288.00773   -90.958532    31334.603   -10761.914    878.24176   -11640.156   0.51627137 
   27050    288.62408   -9.7612951    31337.649   -10770.329    880.12122    -11650.45   0.52125823 
   27100    287.00331    70.171238     31336.22   -10769.254    875.17891   -11644.433   0.49970573 
   27150    303.92542    88.288455    31353.332    -10757.48    926.78067   -11684.261   0.50748388 
   27200     288.3378    28.197216    31352.971   -10768.191    879.24827   -11647.439   0.50255065 
   27250    284.77544   -15.310323     31349.57   -10774.796    868.38532   -11643.182   0.52619198 
   27300    297.21785   -24.484082    31358.127   -10747.655     906.3268   -11653.982   0.50499953 
   27350    314.39562   -23.660801    31362.692   -10719.714    958.70815   -11678.422   0.49899606 
   27400    301.62258    56.697888    31351.839    -10749.08    919.75845   -11668.838   0.49467686 
   27450    293.92446   -54.610426    31345.295   -10775.697    896.28404   -11671.981   0.51944233 
   27500    287.37785   -77.083141    31337.994   -10780.941    876.32102   -11657.262   0.49924174 
   27550     280.4203   -62.114682    31329.734   -10803.705    855.10489    -11658.81   0.49940619 
   27600    283.55248   -30.500045    31324.238   -10831.069    864.65606   -11695.725   0.51841818 
   27650    291.32832   -119.10929    31312.785   -10832.162    888.36746   -11720.529   0.51438426 
   27700      284.915    27.698884    31317.534   -10801.815    868.81087   -11670.626   0.51157037 
   27750    288.59133    -14.47249    31324.699   -10761.108    880.02138   -11641.129   0.52826324 
   27800    289.08541    69.899524    31338.692   -10760.961    881.52799   -11642.489   0.51747087 
   27850    289.85447    30.236505    31333.788   -10801.165    883.87315   -11685.038   0.50534593 
   27900     280.9049    14.355163    31319.052   -10818.084    856.58261   -11674.666   0.49830202 
   27950    289.83015    52.354039    31335.427   -10811.923    883.79898   -11695.722   0.48812185 
   28000    284.13915    38.949965    31340.119   -10806.106    866.44502   -11672.551   0.51156427 
   28050    285.06925    58.610169    31336.343   -10830.908    869.28125   -11700.189   0.49494608 
   28100    289.32578    45.856675    31336.649   -10836.181    882.26096   -11718.442   0.51999048 
   28150     283.8827    41.277526    31339.576   -10811.731    865.66302   -11677.394   0.51830542 
   28200    288.15502   -38.805217    31348.528   -10815.471    878.69088   -11694.162   0.50282693 
   28250    286.38895    27.661661    31348.834   -10804.106    873.30551   -11677.412   0.47788355 
   28300    288.86445    60.603696    31356.084   -10827.911    880.85421   -11708.766   0.47175765 
   28350    284.05885    25.840694    31347.532   -10822.989    866.20017   -11689.189   0.48926848 
   28400     284.0539   -6.0973873    31342.502   -10812.089    866.18508   -11678.274   0.51836807 
   28450    290.85518   -14.548107    31341.859   -10814.597    886.92467   -11701.522   0.51725033 
   28500    288.03678   -39.348039    31340.809   -10823.877    878.33033   -11702.208   0.49313363 
   28550    279.23029   -31.749959    31338.943   -10822.219     851.4761   -11673.695    0.5328673 
   28600     280.2173    32.993774    31325.972   -10843.284    854.48587    -11697.77   0.47389213 
   28650     269.6974    34.481641    31327.854   -10822.326     822.4068   -11644.733    0.4978596 
   28700    276.46657    70.996342    31336.636   -10807.402    843.04851   -11650.451   0.51175774 
   28750    281.10715    80.922039     31333.76   -10815.189    857.19932   -11672.388   0.49551689 
   28800    281.84104   -22.085125    31326.488   -10834.818    859.43724   -11694.255   0.50817976 
   28850    277.26551    5.5421643    31321.982   -10848.613    845.48477   -11694.098   0.52903713 
   28900    287.67698    1.6043401    31321.611   -10813.922    877.23317   -11691.155   0.53029987 
   28950     284.9492    148.01368    31319.514   -10825.975    868.91515    -11694.89   0.49755813 
   29000    286.10579    57.732047    31331.929   -10812.799    872.44203   -11685.241    0.5079269 
   29050    284.27948    -53.24662    31341.465   -10790.666    866.87296   -11657.539   0.50625682 
   29100    290.86683    29.994948    31338.574   -10786.254    886.96021   -11673.214   0.48153077 
   29150    283.15136    38.069154    31342.634   -10789.665    863.43288   -11653.098   0.48389637 
   29200    287.03266    45.811545    31353.158   -10780.941     875.2684    -11656.21   0.53360048 
   29250    287.78989   -62.671875    31350.316    -10775.98    877.57749   -11653.557   0.52995787 
   29300    290.35062   -23.163453     31348.37   -10794.371     885.3861   -11679.757   0.47278482 
   29350    288.41909   -5.4776455    31345.848    -10786.67    879.49615   -11666.166   0.52020813 
   29400    290.26737    58.092157    31354.153   -10792.802    885.13222   -11677.935   0.50096849 
   29450    284.71729   -9.5626909    31337.508   -10775.991    868.20799   -11644.199   0.50751896 
   29500    287.04748   -49.122304    31340.102   -10777.857    875.31361    -11653.17   0.50982499 
   29550    272.48046   -26.124553    31340.489   -10798.881    830.89339   -11629.775   0.51992102 
   29600    293.24092   -62.386277     31336.83   -10793.457    894.19968   -11687.657   0.48103277 
   29650    290.76913   -63.420396    31328.516   -10785.761    886.66229   -11672.423   0.50452855 
   29700    286.34072   -46.737552    31336.033   -10777.234    873.15841   -11650.392   0.54317836 
   29750    291.46486   -36.949182    31335.815   -10823.632    888.78383   -11712.416   0.52740582 
   29800    287.02993   -50.255701    31332.209    -10852.98    875.26007   -11728.241   0.49990603 
   29850     280.8759    4.1953066    31325.646   -10860.559    856.49416   -11717.053    0.4903197 
   29900    278.63714    17.012331    31324.424   -10835.724    849.66736   -11685.391   0.50046239 
   29950    277.22344    31.195039    31330.478   -10845.273    845.35649   -11690.629    0.4954646 
   30000    294.45029     67.71734    31339.638   -10847.145    897.88751   -11745.033    0.4852217 
   30050    280.82822   -60.812711    31331.787   -10879.217    856.34877   -11735.566   0.50546778 
   30100    284.91642   -11.281037    31312.527   -10855.861    868.81521   -11724.677   0.49357283 
   30150    281.59454    7.4610632    31319.211   -10862.023    858.68558   -11720.708    0.5130046 
   30200    279.97426    22.790626    31330.965   -10844.775    853.74474    -11698.52   0.50348921 
   30250    282.16759    10.378108    31334.648   -10855.667      860.433     -11716.1   0.51515011 
   30300    283.29377    70.864057    31334.458   -10850.803    863.86715    -11714.67   0.47784184 
   30350    280.28811   -42.396056    31327.174   -10856.865    854.70178   -11711.567    0.4850791 
   30400    277.70017    17.911303    31341.255   -10827.459     846.8102    -11674.27   0.47873265 
   30450    282.42822   -78.459714    31331.986   -10881.178    861.22775   -11742.405   0.50421008 
   30500     271.6285    -22.59604    31314.825    -10909.24    828.29545   -11737.535   0.52093194 
   30550    274.17692   -23.426086    31312.369   -10894.564    836.06651    -11730.63   0.52464987 
   30600    276.85879   -72.700919    31311.368   -10881.807    844.24453   -11726.051   0.49463234 
   30650    281.49525    16.941012    31317.627   -10873.461     858.3828   -11731.844   0.48999779 
   30700    285.19289   -20.173702      31329.1    -10858.92    869.65826   -11728.578   0.48237667 
   30750    284.73647   -31.741768    31326.201   -10873.789    868.26648   -11742.055    0.4898969 
   30800    288.35622    9.5737661    31320.975    -10836.82    879.30444   -11716.124   0.51034644 
   30850    285.38592    20.842273    31336.532   -10835.526    870.24688   -11705.773   0.49999399 
   30900    295.80164    90.668604    31351.048   -10779.466    902.00825   -11681.474   0.49726742 
   30950    292.81448    71.114963    31355.167   -10794.801    892.89931     -11687.7    0.5114459 
   31000    292.35073   -2.6277344    31351.077   -10780.201    891.48516   -11671.686   0.52754414 
   31050     286.3971   -74.404299    31341.486   -10784.756    873.33034   -11658.086   0.49846474 
   31100    272.92435   -52.990805    31349.942   -10787.049    832.24695   -11619.296   0.48109004 
   31150     284.0595    38.423903    31349.362   -10786.332    866.20214   -11652.535   0.49716532 
   31200     293.1446    123.79302    31352.757   -10779.454    893.90597    -11673.36   0.48333706 
   31250    296.60094    80.357154    31363.816   -10770.471    904.44562   -11674.917   0.49481094 
   31300    296.00228    78.385538    31366.489   -10768.612    902.62008   -11671.232   0.51822903 
   31350    294.29249     104.2371    31373.425   -10734.357    897.40631   -11631.764    0.5148095 
   31400    296.69612    8.6556292     31381.21   -10748.863    904.73586   -11653.599   0.48252809 
   31450    294.94558   -35.916214    31367.113   -10779.993    899.39781   -11679.391   0.48493321 
   31500    285.05827   -150.48602    31366.578   -10792.896    869.24776   -11662.143   0.51865558 
   31550    295.47609   -24.169571    31358.003   -10756.633    901.01553   -11657.648   0.47984287 
   31600    288.55145    59.312203    31354.133   -10784.649    879.89977   -11664.549   0.48518078 
   31650    292.66984    38.903902    31350.127   -10780.438    892.45824   -11672.897   0.51887054 
   31700    296.48811   -25.278682    31349.734   -10785.794    904.10156   -11689.895   0.50547124 
   31750    293.19165   -24.708015    31354.592   -10768.548    894.04943   -11662.598   0.49434673 
   31800    300.03024   -46.579994     31348.94   -10742.377    914.90282    -11657.28   0.53163487 
   31850    296.39958     -64.1233    31345.674   -10770.274    903.83159   -11674.106   0.53384532 
   31900    284.79467   -65.619031    31334.892   -10799.378    868.44394   -11667.822   0.49659135 
   31950    297.41554     25.28331    31322.584   -10787.162    906.92962   -11694.092   0.49818774 
   32000    300.14914   -99.319201    31323.242   -10794.042     915.2654   -11709.308   0.53171239 
   32050    290.52235    97.754338    31316.724   -10808.918    885.90976   -11694.828   0.50433817 
   32100    300.13209   -57.320372    31313.992   -10803.774    915.21341   -11718.987   0.50341763 
   32150    296.91601    35.467273    31306.971   -10804.974    905.40639   -11710.381    0.5392197 
   32200    287.54648    5.1101384    31300.813   -10826.283    876.83523   -11703.118    0.5375935 
   32250    278.73572   -69.024305    31309.947   -10854.617    849.96798   -11704.585   0.52735787 
   32300    281.26679   -32.351797    31300.372   -10839.649    857.68615   -11697.335   0.50799828 
   32350    283.97195   -15.414109    31312.747   -10831.267    865.93516   -11697.203   0.50851339 
   32400    285.21242    17.947608    31308.675   -10832.771    869.71782   -11702.489   0.51293243 
   32450    280.93249   -33.250663    31305.103   -10846.258    856.66675   -11702.925   0.51739011 
   32500     286.0485    69.454946    31300.287   -10823.903    872.26733    -11696.17   0.52842069 
   32550    290.86739    59.941329    31310.722   -10798.948    886.96191    -11685.91   0.50830825 
   32600    277.49337   -70.302151    31306.579   -10794.022    846.17958   -11640.201   0.53702391 
   32650    293.12068   -50.414455    31319.804   -10769.937    893.83303    -11663.77    0.5530353 
   32700    294.76466    44.847992    31328.561   -10778.242    898.84613   -11677.088   0.53039652 
   32750    287.10972    39.948803    31330.331   -10796.388    875.50338   -11671.891   0.49633305 
   32800    294.60167    0.4573848    31344.669   -10790.094     898.3491   -11688.443    0.4984101 
   32850    292.98693    39.319779     31338.91   -10755.152    893.42517   -11648.577     0.516901 
   32900    282.05523   -2.2221758     31338.81   -10769.835    860.09039   -11629.925    0.5303113 
   32950    288.89053    77.480115    31339.431   -10803.406    880.93373    -11684.34   0.50614066 
   33000     287.4555    34.180737    31325.717    -10787.03     876.5578   -11663.588   0.52425551 
   33050    283.91867    44.044401    31327.089   -10788.718    865.77269   -11654.491   0.54622023 
   33100    284.13181    21.280856    31320.395   -10800.568    866.42265   -11666.991   0.52727281 
   33150     283.7714    15.540299    31316.671   -10807.651    865.32361   -11672.974   0.50603754 
   33200    288.02408    9.9168919    31316.449   -10793.096    878.29162   -11671.387   0.50897578 
   33250    286.26302    39.805179    31306.172   -10810.951     872.9215   -11683.872   0.54844411 
   33300    284.24692    68.338215    31314.864   -10803.508    866.77365   -11670.281   0.50654515 
   33350    290.56247    51.709498    31314.312     -10799.5    886.03209   -11685.532   0.51733689 
   33400    287.79036     13.62973    31312.027   -10809.867    877.57891   -11687.446   0.52391528 
   33450    288.19205   -114.29893    31299.262   -10816.974     878.8038   -11695.777   0.55662041 
   33500    288.11193    20.827049    31294.459   -10840.864    878.55948   -11719.424   0.54500637 
   33550    291.97927    21.751458    31309.862   -10809.162    890.35243   -11699.514    0.4874219 
   33600    283.22875   -61.096415    31314.962    -10816.81    863.66886   -11680.479   0.54007159 
   33650    275.36086     55.98238    31295.543   -10844.977    839.67679   -11684.653   0.53142961 
   33700    292.85337   -30.677366    31309.868   -10816.117    893.01789   -11709.134   0.51065703 
   33750    289.18697    76.539873    31296.364   -10825.269     881.8377   -11707.107   0.51046629 
   33800    285.06381    114.82428    31296.033   -10793.783    869.26466   -11663.047   0.55809274 
   33850    288.62665   -3.0016072    31317.674   -10763.755    880.12908   -11643.884   0.55175894 
   33900    296.35521    38.828666    31335.563     -10751.9    903.69629   -11655.596   0.52456258 
   33950    291.83568     79.05517    31336.309   -10770.962    889.91459   -11660.877   0.51604836 
   34000    284.03955   -25.843947    31320.947   -10799.245    866.14132   -11665.386   0.52808976 
   34050    278.58526    43.509301    31311.716   -10824.833    849.50918   -11674.342   0.53189099 
   34100    284.08449   -78.899177    31313.462   -10822.078    866.27834   -11688.356   0.52682516 
   34150    300.66891   -13.766595    31316.028    -10806.99    916.85036    -11723.84   0.52065194 
   34200    283.12665    108.23685    31306.842   -10800.803    863.35754    -11664.16   0.51481715 
   34250     279.8485  -0.95240741    31319.733   -10790.057    853.36126   -11643.418    0.5347383 
   34300    281.70035    26.184416    31332.542   -10788.308    859.00823   -11647.316   0.55801307 
   34350    285.96787    80.917637    31323.935   -10832.794    872.02147   -11704.815   0.48530104 
   34400    291.15627    62.394662    31324.469   -10828.477    887.84281    -11716.32   0.50020512 
   34450    281.04063    37.344059    31322.606   -10801.433    856.99649    -11658.43   0.56496548 
   34500    288.06088  -0.87485876    31337.947   -10809.549    878.40383   -11687.952    0.5148937 
   34550    289.87318   -66.823151    31345.969   -10771.575    883.93021   -11655.505   0.47241221 
   34600    288.05132   -86.055723    31352.329   -10730.553    878.37468   -11608.928   0.52600033 
   34650    289.37664   -9.5669702    31361.933   -10753.164    882.41606    -11635.58   0.56533391 
   34700    293.71514    -8.963283     31354.12   -10771.921    895.64574   -11667.567   0.51251291 
   34750    292.93721   -9.5656738     31353.59   -10813.213    893.27354   -11706.486   0.47201575 
   34800    290.61859    19.622354    31341.251   -10793.632    886.20322   -11679.835   0.52507026 
   34850     291.5594     6.264851    31335.204   -10771.492     889.0721   -11660.564   0.53603869 
   34900    297.27818    54.091438    31347.554   -10784.041    906.51078   -11690.552   0.51495208 
   34950    286.93891    47.660577    31353.207   -10790.019    874.98253   -11665.002   0.50772233 
   35000    290.56243  -0.22557395    31346.801   -10791.948    886.03198    -11677.98   0.51295802 
   35050     291.0138   -10.495159    31337.315   -10789.073    887.40836   -11676.482   0.50605953 
   35100      291.881    77.763546    31343.807   -10773.512    890.05278   -11663.565   0.49309585 
   35150    298.78585   -14.766829     31355.87     -10788.9    911.10822   -11700.008   0.53749932 
   35200    296.45321    112.49861    31345.227   -10796.382    903.99515   -11700.377   0.52994025 
   35250    297.47393    50.035843    31348.017   -10791.555    907.10768   -11698.663   0.50227961 
   35300    290.90987    54.391236    31325.728    -10778.65    887.09145   -11665.741   0.51782952 
   35350    289.04174   -66.990809    31342.702    -10803.26    881.39483   -11684.655   0.49247339 
   35400    287.23144   -57.492501      31327.9   -10778.411    875.87455   -11654.286   0.53513019 
   35450    281.96125   -88.321103    31325.733   -10814.848     859.8038   -11674.651   0.53418223 
   35500     286.3636      48.2496    31333.599    -10812.05    873.22818   -11685.278   0.51972089 
   35550    289.52685   -36.730519    31339.368   -10795.461    882.87411   -11678.336   0.51038057 
   35600      291.828     48.05836    31354.057   -10787.593    889.89116   -11677.484   0.50979183 
   35650    296.24831   -29.756926    31352.251   -10763.467    903.37031   -11666.838   0.54272869 
   35700    286.94089     96.36108    31354.793   -10770.123    874.98857   -11645.111   0.51773588 
   35750    288.63977     30.85131    31347.444   -10768.858    880.16907   -11649.027   0.48126538 
   35800    294.83725    45.002517    31358.197   -10710.708    899.06746   -11609.775   0.49822034 
   35850    298.38225   -10.096354    31362.737   -10730.494    909.87747   -11640.371   0.53455314 
   35900    295.89856     97.53597    31366.795   -10731.749     902.3038   -11634.053   0.53070825 
   35950     289.1868   -76.536191    31377.916   -10772.182    881.83718   -11654.019   0.50178712 
   36000    292.58426   -18.244403    31363.616   -10783.788    892.19727   -11675.986   0.50797342 
   36050    293.51126      24.5376    31363.322   -10774.456    895.02404    -11669.48   0.52473167 
   36100    288.40739    19.199816    31346.065    -10778.73    879.46046    -11658.19   0.51232332 
   36150    288.70357   -29.566734     31338.23   -10785.543    880.36364   -11665.907   0.48367705 
   36200    286.35627   -34.464256    31330.795   -10804.257    873.20585   -11677.462   0.51574605 
   36250    285.34159   -8.5843852    31325.173   -10809.507     870.1117   -11679.618   0.53431814 
   36300    277.74046    13.019022    31315.376   -10815.316    846.93305    -11662.25   0.51115908 
   36350    282.23316   -122.82308    31320.478   -10796.222    860.63297   -11656.855   0.51524667 
   36400    280.42704   -12.598383    31325.679   -10808.362    855.12543   -11663.488   0.54708024 
   36450    285.96827    9.7891516    31326.739   -10782.918     872.0227   -11654.941   0.51775482 
   36500    279.51199    34.371046    31326.831   -10785.499    852.33512   -11637.834   0.52602592 
   36550    284.01808    1.9870846    31336.515    -10790.96    866.07583   -11657.036   0.51695549 
   36600     290.4109    18.645499    31328.438   -10791.002     885.5699   -11676.572   0.50322235 
   36650    294.04392   -103.77696    31330.216   -10777.658    896.64831   -11674.307   0.52621162 
   36700    293.98857   -3.5748403    31336.626    -10775.76    896.47954    -11672.24   0.51670071 
   36750    290.30645   -79.666728     31332.32   -10810.965    885.25139   -11696.216   0.52858986 
   36800    282.53044   -157.37608    31326.387   -10818.463    861.53947   -11680.002   0.52107645 
   36850    284.55606   -70.061438     31308.12   -10844.438    867.71633   -11712.154    0.5361096 
   36900    274.89021   -40.186956    31301.248   -10833.625    838.24159   -11671.866   0.53669256 
   36950    285.57843   -8.7850672    31307.246   -10806.981    870.83393   -11677.814    0.5193697 
   37000    278.37058    42.583649    31306.364   -10836.055    848.85453   -11684.909   0.49680893 
   37050    280.17485    11.960767    31315.392   -10794.295     854.3564   -11648.652   0.52708504 
   37100    280.40574  -0.18008777    31321.635   -10807.836    855.06047   -11662.896   0.51726512 
   37150    288.38341    28.309615    31332.651   -10803.625    879.38733   -11683.013   0.50112259 
   37200    285.31588     80.30198    31337.232   -10800.342    870.03331   -11670.375   0.50552811 
   37250    290.87442    13.821723    31344.018   -10799.574    886.98334   -11686.558   0.50998952 
   37300    284.74116     52.81918    31346.984   -10798.855    868.28078   -11667.136   0.51920989 
   37350     282.8109    12.178157    31344.549   -10819.974     862.3947   -11682.369   0.49913458 
   37400    296.87113    57.122112    31352.634     -10807.3    905.26952    -11712.57   0.49078811 
   37450    287.73644    7.6098313    31344.931   -10806.911    877.41449   -11684.326   0.48407375 
   37500    286.72154     69.88898    31348.929   -10794.189    874.31967   -11668.509   0.51277031 
   37550    281.61441     61.15602    31358.989   -10809.236    858.74617   -11667.982   0.48706408 
   37600    281.27515   -50.542472    31348.626    -10831.64    857.71164   -11689.352   0.51844023 
   37650    286.09282    85.187462    31344.303   -10826.178    872.40249    -11698.58    0.4929879 
   37700    279.14634   -32.954704    31336.192   -10847.413    851.22012   -11698.634   0.51568407 
   37750     271.9604   -16.886905    31324.038   -10884.715    829.30754   -11714.023    0.4826136 
   37800    277.36903   -29.630581     31330.87   -10868.383    845.80044   -11714.184   0.49992551 
   37850    276.49473    61.476697    31323.452   -10874.242    843.13436   -11717.376   0.48944365 
   37900    274.07644     4.554752     31331.23   -10858.054    835.76011   -11693.814   0.48989649 
   37950    290.85406    101.91115    31335.599    -10810.17    886.92128   -11697.091   0.49157387 
   38000    297.07845   -43.350123     31345.97   -10792.798    905.90171   -11698.699   0.52241538 
   38050    305.62123    47.136398    31352.357   -10783.612     931.9518   -11715.564   0.50434268 
   38100    295.36955    145.67617    31333.782   -10799.559    900.69066   -11700.249   0.51307919 
   38150    285.13924    64.141882    31337.935   -10801.989    869.49468   -11671.484    0.5014615 
   38200    276.69277   -19.417948    31346.003   -10798.615    843.73827   -11642.353   0.51173405 
   38250    286.41108     6.956713    31349.937   -10785.927    873.37298     -11659.3   0.48385325 
   38300     294.4589     46.12832     31360.39   -10758.129    897.91375   -11656.042   0.50504701 
   38350    296.02167    33.489717    31359.141   -10800.744     902.6792   -11703.423   0.49289875 
   38400    294.13743   -9.2352538      31360.3   -10767.209    896.93347   -11664.143   0.50976318 
   38450    283.70721   -8.6385842    31352.073   -10781.346     865.1279   -11646.474   0.50222468 
   38500    288.57109   -43.816451    31348.302   -10794.878    879.95964   -11674.838   0.50702573 
[...]
   90900     300.3956    34.379079    31351.759   -10762.267    916.01692   -11678.284   0.48704355 
   90950    284.65706   -43.678638    31352.396   -10804.868    868.02432   -11672.893   0.48818789 
   91000    277.42081   -75.487755    31347.188   -10838.592    845.95834   -11684.551   0.50161147 
   91050    275.59518   -129.87967    31322.666   -10871.107    840.39132   -11711.499   0.51131428 
   91100    282.85905   -51.570369    31316.186   -10879.523    862.54153   -11742.065   0.48298177 
   91150    276.02209   -80.055378    31303.227   -10898.398    841.69312   -11740.091   0.51223149 
   91200    270.16697     40.38686    31297.468   -10878.814     823.8387   -11702.653   0.53214221 
   91250    276.77129   -2.6789538    31313.239   -10844.677    843.97771   -11688.655   0.49895771 
   91300     281.9958    12.873261    31321.661   -10845.816    859.90917   -11705.726   0.49669746 
   91350    289.87005    69.228914    31333.312   -10803.059    883.92064   -11686.979   0.49513517 
   91400    286.71354     32.67458    31333.626   -10815.909    874.29528   -11690.205   0.50242881 
   91450     288.7219   -20.394618    31350.025    -10783.76    880.41953    -11664.18   0.50887199 
   91500    310.80837    105.88683    31367.021   -10732.868     947.7693   -11680.637   0.48737197 
   91550    306.25624    130.96804    31371.311   -10747.405    933.88819   -11681.293   0.50810834 
   91600    285.77288    8.2471407    31356.331   -10751.512    871.42688   -11622.939   0.50403616 
   91650    287.58609   -28.524912    31361.566   -10764.003      876.956   -11640.959    0.5097051 
   91700    285.59306   -72.649927    31346.632   -10795.423    870.87852   -11666.301   0.50098746 
   91750    289.17895   -44.716059    31344.062   -10783.135    881.81323   -11664.948   0.50324416 
   91800    289.19806    41.184858     31351.68   -10746.611    881.87149   -11628.483   0.50917156 
   91850    295.16614    40.933033    31358.961   -10758.726    900.07038   -11658.796   0.52769027 
   91900    299.05531    86.560238    31361.924   -10766.486    911.92989   -11678.416   0.48137078 
   91950       301.32    31.872389    31360.794   -10728.209    918.83578   -11647.044   0.48126913 
   92000    286.42054    7.3820874    31365.932    -10774.49    873.40184   -11647.892   0.52331188 
   92050    290.47239    40.753748    31365.693   -10780.765     885.7574   -11666.522   0.50672484 
   92100    300.46137    31.835134    31358.376   -10769.271    916.21748   -11685.488   0.47193031 
   92150    292.91777   -58.782891    31353.417   -10774.976    893.21429   -11668.191   0.50274144 
   92200    286.46222   -50.677397    31350.971   -10794.146    873.52894   -11667.675   0.52790248 
   92250    290.41015   0.30026361     31354.49   -10765.059    885.56763   -11650.627   0.51762019 
   92300    291.99477    113.97432    31359.464   -10747.373    890.39969   -11637.772   0.48163585 
   92350    289.03138    109.40437    31356.471   -10778.085    881.36323   -11659.449   0.50320828 
   92400    286.20049   -23.653765    31354.601   -10756.602    872.73082   -11629.333   0.53288617 
   92450    289.60098   -54.111755    31357.386   -10794.846    883.10017   -11677.946   0.49391517 
   92500    294.13668    51.845581    31355.979   -10768.274    896.93117   -11665.205   0.49002828 
   92550    296.98919     92.89577    31372.845   -10755.972    905.62955   -11661.602   0.51563782 
   92600    297.87427    64.759375    31376.211   -10736.284    908.32846   -11644.612    0.5050521 
   92650    297.55588   -16.289809    31367.836   -10751.239    907.35759   -11658.597   0.50744596 
   92700    299.78691   -56.087202    31363.802   -10784.414    914.16081   -11698.574   0.50127973 
   92750    283.94775   -31.429633    31343.027   -10814.868    865.86137    -11680.73   0.49439846 
   92800    284.13257   -33.353898    31346.825   -10787.784    866.42496   -11654.209   0.50892694 
   92850    287.63173    90.911477    31344.006   -10802.115     877.0952    -11679.21   0.52603096 
   92900    283.50587    11.261381    31343.798   -10805.199    864.51391   -11669.713   0.50627476 
   92950     280.5349   -26.843067    31347.503   -10833.396    855.45434    -11688.85   0.48782458 
   93000    290.07924   -51.966388    31340.671   -10815.826    884.55856   -11700.385   0.50956499 
   93050    281.39407    7.6222373    31329.825   -10826.523    858.07427   -11684.597   0.53762002 
   93100    273.25199    13.706798     31339.43   -10800.383    833.24606   -11633.629   0.50396723 
   93150    283.82254    70.671576    31338.985   -10792.972    865.47957   -11658.452   0.47832062 
   93200    286.12701   -48.629954    31339.949   -10812.997    872.50674   -11685.504   0.52061699 
   93250    288.28619    11.547661    31339.729   -10823.573    879.09086   -11702.664    0.5104787 
   93300    294.14669    24.789189    31333.665    -10833.78    896.96169   -11730.742    0.4924288 
   93350    279.94401  -0.93697715    31328.933   -10866.616    853.65251   -11720.269   0.50367173 
   93400    274.45281    57.259694    31317.916   -10871.991     836.9078   -11708.899   0.51312201 
   93450    282.77031   -64.984359    31321.083   -10838.732    862.27092   -11701.003   0.52081114 
   93500    279.74042    74.325204    31335.661   -10846.152    853.03167   -11699.184   0.49029141 
   93550    274.93613   -62.535661    31328.759   -10840.406    838.38164   -11678.788   0.48948063 
   93600    270.82074   -28.993444    31328.404   -10842.887    825.83228   -11668.719   0.52543125 
   93650    288.69149   -25.819365    31325.681   -10830.063    880.32678    -11710.39   0.51249697 
   93700     281.3389    53.037432    31338.477   -10837.645    857.90602   -11695.551   0.48193101 
   93750    287.88991    24.975942    31328.041   -10843.831    877.88248   -11721.713   0.51151301 
   93800    277.02451     40.61996    31324.736   -10833.853    844.74987   -11678.603   0.53130641 
   93850    275.20589    -77.59735    31340.711   -10844.606    839.20422   -11683.811   0.51456383 
   93900    275.88887   -24.205624    31331.824    -10859.24    841.28689   -11700.527   0.48024689 
   93950    278.74955    17.207155     31329.01   -10875.972    850.01014   -11725.983   0.49019193 
   94000    289.78466    1.2330503    31331.285   -10844.999    883.66026    -11728.66   0.49895309 
   94050    297.66032   -13.844565    31340.776   -10796.411    907.67605   -11704.087   0.50754507 
   94100    290.37878    112.44833    31340.317   -10804.081    885.47196   -11689.553   0.51003551 
   94150    291.62233    31.827515    31340.561    -10784.87      889.264   -11674.134   0.51370224 
   94200    296.05448    19.387903    31350.994   -10761.367    902.77926   -11664.146    0.5197535 
   94250    281.06869   -76.398101    31356.603   -10802.271    857.08205   -11659.353   0.51057368 
   94300    291.74186   -64.669106    31351.519   -10781.728     889.6285   -11671.357   0.49085138 
   94350     289.3077   -13.899055    31347.778   -10791.739    882.20584   -11673.944   0.50137429 
   94400    291.66439    8.6644255    31343.887   -10782.101    889.39225   -11671.493   0.48129311 
   94450    292.19796    103.17953    31347.432   -10728.786    891.01931   -11619.805    0.5232443 
   94500    286.35307   -51.780095    31352.127   -10750.442    873.19608   -11623.638   0.54235932 
   94550    290.63774    25.676087    31354.261   -10777.672    886.26162   -11663.933   0.49975005 
   94600    300.78884   -10.867127    31345.787   -10786.281    917.21608   -11703.497   0.50726382 
   94650    297.01479   -50.155584    31327.743   -10774.826    905.70759   -11680.534   0.52541374 
   94700      283.174   -10.628843    31329.051   -10801.965    863.50194   -11665.467   0.49634733 
   94750    279.15863   -106.77977    31332.153   -10804.142    851.25759     -11655.4   0.49403622 
   94800    290.29915    -99.90096    31329.809   -10821.994    885.22912   -11707.223   0.49863269 
   94850    292.12879   -22.960986    31323.674   -10807.355    890.80839   -11698.164   0.53539231 
   94900    283.57725   -59.615052     31314.77   -10838.595    864.73158   -11703.326   0.51036004 
   94950    287.48916    21.017136    31313.171    -10843.86    876.66044    -11720.52   0.51199942 
   95000    285.99142    73.120421    31300.898   -10832.825    872.09327   -11704.919   0.52636692 
   95050    288.11837    33.487616    31305.694   -10814.891    878.57913   -11693.471   0.51410153 
   95100    282.83008    49.677182    31309.882   -10807.429    862.45318   -11669.882   0.48524227 
   95150    280.21032    33.071897     31317.21   -10802.926    854.46459    -11657.39   0.51506731 
   95200    287.08045   -2.2083122    31332.683   -10808.979    875.41413   -11684.393   0.50727725 
   95250    295.52813     131.2332    31331.421   -10801.605    901.17424   -11702.779   0.49393349 
   95300     298.2003   -29.201385    31338.259   -10809.451    909.32265   -11718.774   0.49893814 
   95350    293.47779    106.95386    31338.662   -10792.701    894.92198   -11687.623   0.50140098 
   95400    292.61184   -33.371451    31349.216   -10772.301    892.28139   -11664.582   0.51056627 
   95450    295.78211   -19.554707    31343.537   -10769.647    901.94869   -11671.596   0.49057303 
   95500    292.61477    49.070811    31343.141   -10767.299     892.2903    -11659.59   0.50525146 
   95550    292.01344    65.053742    31351.864   -10768.157    890.45663   -11658.614    0.5079409 
   95600    301.02613    -63.54666    31348.869   -10753.375    917.93965   -11671.315   0.50669298 
   95650    300.99449   -5.1098821    31353.985   -10770.029    917.84318   -11687.872   0.50823178 
   95700    296.26546   -2.2440422    31358.415   -10773.374    903.42263   -11676.797   0.51171587 
   95750    295.78284     100.4551    31355.075    -10770.18    901.95094   -11672.131   0.50902249 
   95800    295.51548     34.43451    31351.979   -10750.205    901.13565   -11651.341   0.51404078 
   95850    294.16077     26.39042    31356.439     -10779.1    897.00464   -11676.104    0.5079156 
   95900    301.80472    75.469931    31350.861   -10766.617    920.31387   -11686.931   0.49956943 
   95950     289.2972    67.271058     31349.79   -10772.854    882.17381   -11655.028   0.50250224 
   96000    297.85589   -25.814953    31353.432   -10764.214    908.27242   -11672.486   0.49532667 
   96050    312.42739   -3.9892802     31369.01   -10738.596    952.70629   -11691.302   0.50313599 
   96100    301.09025    109.82394    31380.053   -10743.141    918.13517   -11661.276   0.46610158 
   96150    303.18454    19.571539    31380.372   -10726.353    924.52144   -11650.874   0.50929336 
   96200    300.63641    6.9248821    31375.569   -10738.896    916.75125   -11655.648   0.50877391 
   96250     297.2045    10.396032    31361.166   -10757.635    906.28608   -11663.921   0.52555868 
   96300    295.92217     14.75541    31353.113   -10754.489    902.37579   -11656.865   0.50107509 
   96350    292.13965   -1.2335425     31345.13     -10765.2    890.84149   -11656.042   0.50801846 
   96400    287.34631   -7.5743816    31329.631    -10777.29    876.22483   -11653.515   0.49383287 
   96450    301.51724    26.563188    31323.125   -10783.602    919.43724   -11703.039   0.51437082 
   96500    291.56506   -41.712169    31321.548   -10776.901    889.08938   -11665.991   0.50576475 
   96550    278.24845   -128.89316    31319.923   -10788.268    848.48211   -11636.751   0.53561059 
   96600    279.11231   -18.798491    31314.157   -10785.036    851.11635   -11636.153   0.54718304 
   96650    291.34251    36.743206    31304.132   -10792.898    888.41074   -11681.309   0.51330317 
   96700     286.3576   -44.667905    31305.178   -10777.418     873.2099   -11650.628   0.53705685 
   96750    289.74461    31.220883    31305.923   -10781.929    883.53814   -11665.468   0.52128117 
   96800    292.27501   -69.543738    31306.832   -10815.043    891.25425   -11706.297     0.507246 
   96850    289.16917   -21.462586    31306.071   -10800.035    881.78341   -11681.819    0.5090972 
   96900    290.48081   -15.902413    31309.622   -10814.537    885.78308    -11700.32   0.50987466 
   96950    291.74441     96.29207    31301.575   -10812.311    889.63626   -11701.948   0.51878888 
   97000    293.30603   -11.716014    31296.618    -10809.29    894.39821   -11703.688   0.54361105 
   97050    296.61814     23.95363    31290.041   -10781.127    904.49808   -11685.625   0.54127534 
   97100    293.55081    5.9248065    31309.669    -10786.77    895.14465   -11681.914   0.53270872 
   97150     292.9897    57.925611    31314.229   -10771.124    893.43361   -11664.558   0.50066969 
   97200     295.9949    6.6078469    31312.954   -10774.351    902.59758   -11676.949   0.50568843 
   97250    286.45872    20.985199    31315.336   -10734.947    873.51826   -11608.465    0.5373221 
   97300    284.83833   -11.865206    31338.994   -10749.795    868.57708   -11618.372     0.522377 
   97350    294.11848   -26.347699    31346.497   -10763.706    896.87567   -11660.581   0.50847225 
   97400    285.01154  -0.31262854    31326.489   -10788.545    869.10526    -11657.65   0.53683513 
   97450    305.95469    10.067856    31335.649   -10779.384    932.96865   -11712.353   0.51376033 
   97500    297.42183   -27.477013    31348.722   -10751.998    906.94882   -11658.947   0.50884997 
   97550    295.66383   -36.142477     31344.61   -10732.977    901.58802   -11634.565   0.50665188 
   97600    292.95835    37.316953    31355.165   -10737.261    893.33802   -11630.599   0.51757605 
   97650    295.90161    90.654949    31363.183   -10729.148     902.3131   -11631.461   0.50007696 
   97700    305.84272     60.91313     31371.71   -10719.636    932.62722   -11652.263   0.51178754 
   97750    286.39048   -97.607161    31352.865   -10772.944    873.31016   -11646.254    0.5058111 
   97800    291.49075   -8.1017364    31350.822   -10759.068    888.86277   -11647.931   0.53965173 
   97850    293.00431   -56.106506    31340.644   -10758.434    893.47816   -11651.912   0.51250691 
   97900    288.82248    -149.6387    31348.866   -10752.656    880.72621   -11633.382   0.53242501 
   97950     288.1727  -0.95330351    31352.336   -10790.173    878.74479   -11668.917   0.50499585 
   98000    291.87041   -36.290982    31338.484   -10796.217    890.02048   -11686.237   0.49498389 
   98050    293.92286   -64.527456    31329.589   -10815.699    896.27916   -11711.978   0.50829241 
   98100    283.67908    46.025404    31331.549    -10822.65    865.04211   -11687.693   0.51533645 
   98150    277.18675   -76.196024    31319.922   -10831.593    845.24461   -11676.838   0.52289848 
   98200    286.18407   -28.980422    31324.394   -10810.105    872.68074   -11682.786   0.51916246 
   98250    295.80597    97.413768    31324.862   -10791.939    902.02146    -11693.96    0.5155812 
   98300    291.20242   0.49712918    31337.687   -10782.456    887.98354   -11670.439   0.51601283 
   98350    291.31842    16.495731    31335.444   -10800.571    888.33728   -11688.908   0.52198403 
   98400    287.03882   -3.5238359    31330.736   -10813.013     875.2872   -11688.301   0.50070643 
   98450    281.67557    4.5866519    31312.299   -10807.904    858.93267   -11666.837   0.52144454 
   98500    282.26748  0.023108237    31330.881   -10793.063    860.73761   -11653.801   0.51544144 
   98550    279.36912  -0.61560922    31338.924   -10802.328    851.89946   -11654.228   0.52165288 
   98600    302.12715   -11.248378    31334.727   -10779.503    921.29708     -11700.8   0.50976654 
   98650    293.47594   -1.4103994    31326.489   -10788.405    894.91635   -11683.321   0.52871987 
   98700    292.03505   -34.025136    31335.733    -10764.87    890.52254   -11655.393   0.52775671 
   98750    276.83923   -35.000015    31347.121   -10776.675    844.18489    -11620.86   0.50826177 
   98800    287.49941    65.709884    31334.747   -10766.108     876.6917     -11642.8   0.51744009 
   98850    290.03767    42.751617    31332.233   -10782.654    884.43177   -11667.086   0.51197877 
   98900    291.82401    70.937575    31332.552   -10790.945    889.87898   -11680.824   0.52681002 
   98950     286.1808   -14.203854    31323.842   -10821.725    872.67076   -11694.396   0.50471064 
   99000    289.75099     66.33396    31331.698   -10793.081     883.5576   -11676.638   0.49315102 
   99050    288.36899   -34.831499    31340.259   -10811.275    879.34336   -11690.619   0.51616178 
   99100     290.9923   -54.912116    31338.867   -10822.695     887.3428   -11710.037   0.49725393 
   99150     287.7431    97.943647    31336.192   -10792.329     877.4348   -11669.764   0.51175341 
   99200    281.64947    59.040523    31341.686   -10810.541    858.85307   -11669.394   0.49789552 
   99250    293.94989   -43.933674    31350.988   -10756.715    896.36157   -11653.077   0.51640551 
   99300    289.63422    49.580353    31355.599   -10766.507    883.20152   -11649.709   0.48830867 
   99350    293.53737    2.8637136    31349.443   -10767.485    895.10366   -11662.589   0.50309832 
   99400    290.36856   -31.910334    31346.892   -10787.072     885.4408   -11672.513   0.50832919 
   99450    297.90562    51.610566    31339.928   -10773.231    908.42407   -11681.655   0.50182309 
   99500    295.28022   -12.646266    31346.984   -10760.162    900.41826    -11660.58   0.52959685 
   99550    289.47675     36.23796    31353.123    -10754.33    882.72135   -11637.052   0.49538612 
   99600    293.69905    22.902133    31358.429   -10766.891    895.59668   -11662.488   0.48895671 
   99650    289.51442   -1.0947467    31361.406   -10790.798    882.83622   -11673.634   0.52053198 
   99700    288.50066   -4.3315999    31348.844   -10796.594    879.74489   -11676.338   0.50687347 
   99750    289.36449   -16.046832    31342.279   -10794.461    882.37901    -11676.84   0.49368232 
   99800    283.61075    72.576514    31338.482    -10801.27    864.83373   -11666.104   0.48404182 
   99850    290.29997    -94.81047    31343.813   -10815.307    885.23162   -11700.538    0.5296196 
   99900    294.32719    30.632399     31322.77   -10818.974    897.51211   -11716.486   0.52227685 
   99950    293.17718   -32.020085    31316.699   -10806.223    894.00532   -11700.228   0.50538557 
  100000     293.4223   0.89784339    31342.804   -10805.128    894.75276   -11699.881   0.49118526 
Loop time of 31.7216 on 12 procs for 100000 steps with 1024 atoms

Performance: 1361.850 ns/day, 0.018 hours/ns, 3152.430 timesteps/s
99.5% CPU use with 12 MPI tasks x no OpenMP threads

MPI task timing breakdown:
Section |  min time  |  avg time  |  max time  |%varavg| %total
---------------------------------------------------------------
Pair    | 22.652     | 24.205     | 25.445     |  21.0 | 76.30
Neigh   | 0.83791    | 0.89381    | 0.97646    |   4.1 |  2.82
Comm    | 3.7699     | 5.0035     | 6.553      |  47.1 | 15.77
Output  | 0.07417    | 0.084373   | 0.19046    |  11.0 |  0.27
Modify  | 1.0838     | 1.1053     | 1.1254     |   1.4 |  3.48
Other   |            | 0.4299     |            |       |  1.36

Nlocal:    85.3333 ave 92 max 79 min
Histogram: 2 2 0 1 0 2 2 0 2 1
Nghost:    484.5 ave 488 max 478 min
Histogram: 1 0 1 2 0 0 0 1 1 6
Neighs:    0 ave 0 max 0 min
Histogram: 12 0 0 0 0 0 0 0 0 0
FullNghs:  2754.33 ave 2975 max 2537 min
Histogram: 1 3 0 1 0 2 2 0 2 1

Total # of neighbors = 33052
Ave neighs/atom = 32.2773
Neighbor list builds = 6042
Dangerous builds = 0

undump              1
unfix               2
unfix               3
unfix               4




################################################
#######         Run Simulation         #########
################################################

reset_timestep      0
log                 log.run_${NAME}
log                 log.run_ice_240K_1atm_mW
