
# Set production fixes - Nose/Hoover
#
fix                 2 all nph iso ${PRES} ${PRES} ${PCOUPL}
fix                 2 all nph iso 1 ${PRES} ${PCOUPL}
fix                 2 all nph iso 1 1 ${PCOUPL}
fix                 2 all nph iso 1 1 10000.0
fix                 3 all temp/csvr ${TEMP} ${TEMP} ${TCOUPL} 837492
fix                 3 all temp/csvr 289 ${TEMP} ${TCOUPL} 837492
fix                 3 all temp/csvr 289 289 ${TCOUPL} 837492
fix                 3 all temp/csvr 289 289 5000.0 837492

# Define Order parameter
#
compute             2 all orientorder/atom nnn NULL cutoff 3.5
thermo              1000
thermo_style        custom step temp press vol etotal ke pe c_1[4]

# Run 1ns simulation
dump		    1 all custom 1000 prod.${NAME}.dump id type x y z vx vy vz c_2[*]
dump		    1 all custom 1000 prod.ice_240K_1atm_mW.dump id type x y z vx vy vz c_2[*]
run                 200000
Neighbor list info ...
  update every 1 steps, delay 0 steps, check yes
  max neighbors/atom: 2000, page size: 100000
  master list distance cutoff = 6.3065
  ghost atom cutoff = 6.3065
  binsize = 3.15325, bins = 12 10 10
  2 neighbor lists, perpetual/occasional/extra = 1 1 0
  (1) pair sw, perpetual
      attributes: full, newton on
      pair build: full/bin/atomonly
      stencil: full/bin/3d
      bin: standard
  (2) compute orientorder/atom, occasional, copy from (1)
      attributes: full, newton on
      pair build: copy
      stencil: none
      bin: none
Per MPI rank memory allocation (min/avg/max) = 5.585 | 5.668 | 5.709 Mbytes
Step Temp Press Volume TotEng KinEng PotEng c_1[4] 
       0     293.4223   0.89987312    31342.804   -10805.128    894.75276   -11699.881   0.49118526 
    1000    275.55224   -112.56346    31352.152   -10832.221    840.26036   -11672.482   0.48533235 
    2000    284.09955    45.012851    31337.414   -10815.583    866.32427   -11681.907   0.53219062 
    3000    288.51448    203.18837    31294.674   -10829.751    879.78701   -11709.538   0.49154979 
    4000    295.06395    324.34989    31216.045   -10800.983    899.75878   -11700.742    0.5355145 
    5000    289.36401    369.19824    31236.499   -10779.252    882.37755   -11661.629   0.53824365 
    6000     288.9997    402.90831     31195.18   -10755.679    881.26663   -11636.945   0.56288658 
    7000    299.82029    247.61495    31199.628   -10768.692    914.26261   -11682.955   0.54615891 
    8000    294.19072    280.33905    31217.456   -10730.198    897.09597   -11627.294   0.55667634 
    9000    304.38457    154.51461    31310.134   -10728.047    928.18079   -11656.228   0.50316385 
   10000    297.16318   -149.53805    31432.642   -10736.375    906.16008   -11642.535   0.48238547 
   11000    290.58262     -392.348    31520.158   -10761.247    886.09355   -11647.341   0.45842235 
   12000    286.10695   -551.52034    31561.772   -10804.032    872.44557   -11676.477   0.45328924 
   13000    303.11388   -233.42106     31501.71   -10768.251    924.30596   -11692.557   0.44897525 
   14000    293.79566   -316.34346    31466.559    -10762.24    895.89128   -11658.132   0.49056126 
   15000    295.21193   -232.87416    31461.361   -10794.389    900.21001   -11694.599   0.47301271 
   16000    283.87176   -205.71457    31416.985   -10817.126    865.62967   -11682.756   0.47913958 
   17000    286.44892   -6.2587687     31368.69   -10814.229    873.48837   -11687.717   0.50749244 
   18000    265.63047   -3.6451415    31296.236   -10863.074    810.00524    -11673.08   0.53169441 
   19000     279.7267    91.395093    31274.172   -10834.927    852.98983   -11687.917   0.53232085 
   20000     286.6285    360.32929    31188.991   -10834.219    874.03596   -11708.255   0.53184669 
   21000    273.84697    560.88741     31117.18   -10844.892    835.06037   -11679.953   0.55659813 
   22000    301.41997    754.75694    31086.896   -10797.229    919.14062    -11716.37   0.58257151 
   23000    299.38654    565.70382    31141.155   -10776.626    912.93995   -11689.566    0.5739386 
   24000    289.34729    235.74197     31233.97   -10790.825    882.32655   -11673.152   0.53990742 
   25000      290.865   -75.913046    31370.525   -10779.239    886.95462   -11666.194   0.48922564 
   26000    284.70403   -191.71666    31412.853   -10831.217    868.16754   -11699.385   0.46438284 
   27000    275.15219   -405.97895    31453.585   -10843.583    839.04047   -11682.623   0.47386231 
   28000    290.42006   -296.98629    31447.073   -10805.773    885.59785   -11691.371   0.44753772 
   29000    288.62368     -211.569    31403.844   -10838.557    880.12001   -11718.677   0.44706032 
   30000    291.43023   -100.31738    31415.979   -10792.466    888.67822   -11681.144   0.48291848 
   31000    295.75011   -116.53977    31386.472   -10788.937    901.85113   -11690.788   0.49136154 
   32000     292.3851   -81.430862    31375.901   -10780.984    891.58996   -11672.574   0.50645057 
   33000    293.18472   -69.768789     31394.67   -10771.564     894.0283   -11665.592   0.49198215 
   34000    286.86505   -189.83256    31423.045   -10761.331    874.75729   -11636.088   0.47583027 
   35000    287.24366   -206.30855    31442.344   -10812.763    875.91183   -11688.675   0.46668167 
   36000     280.0798   -217.45655    31444.145   -10808.494    854.06658   -11662.561   0.47590527 
   37000    288.78129    172.61068    31294.595   -10814.174    880.60062   -11694.775   0.51183148 
   38000    289.98961    298.33752    31195.841   -10797.096    884.28525   -11681.382   0.52897581 
   39000    286.05465    495.38091    31177.535   -10809.299     872.2861   -11681.585    0.5568147 
   40000    286.46869    363.00741     31164.04   -10838.918    873.54866   -11712.467   0.56897447 
   41000    280.66078    239.56715    31196.993   -10843.858    855.83819   -11699.696   0.53160086 
   42000    285.56208    53.486423    31276.302   -10819.785    870.78407    -11690.57   0.52985077 
   43000    283.23411   -8.6573106    31308.926   -10857.701    863.68521   -11721.386   0.50115344 
   44000     275.8988   -97.498379    31346.348   -10850.671    841.31716   -11691.988   0.48307833 
   45000    283.77694    -121.6137    31413.143   -10818.009    865.34051    -11683.35   0.47168303 
   46000    284.68936   -386.28667    31522.343   -10842.923    868.12281   -11711.046   0.42408306 
   47000    281.33775   -824.49557    31671.143   -10829.072    857.90253   -11686.975   0.42403885 
   48000     289.1415   -998.17303     31745.28   -10753.399    881.69902   -11635.098   0.39714373 
   49000    298.99611   -466.26978    31560.772   -10740.727    911.74937   -11652.476   0.44842575 
   50000    298.66049     -188.033    31449.006   -10755.182    910.72593   -11665.908   0.46970301 
   51000    288.38494    33.500945    31355.863   -10741.768    879.39199    -11621.16   0.50233109 
   52000     299.4037    131.62102    31333.232   -10725.841    912.99226   -11638.834   0.50353514 
   53000    301.52179    306.30846    31256.563   -10753.656    919.45111   -11673.107   0.51644643 
   54000    288.10276    320.28247    31230.913   -10777.929    878.53152    -11656.46   0.55522209 
   55000    297.18146    462.56156    31202.982    -10779.12    906.21584   -11685.336   0.53892597 
   56000     299.0154    330.59406     31240.89   -10785.941     911.8082   -11697.749    0.5458556 
   57000    291.47985    113.56146    31309.885   -10760.472    888.82952   -11649.302   0.55058803 
   58000    281.98555   -358.18338    31503.732    -10779.19    859.87789   -11639.068   0.48189083 
   59000    287.72186   -460.38618    31508.593   -10822.295    877.37004   -11699.665   0.45073044 
   60000    295.90668   -344.55815    31522.633   -10787.309    902.32857   -11689.638   0.41579391 
   61000    292.08774   -334.61597     31503.19   -10764.402    890.68321   -11655.085   0.44773336 
   62000    293.63587   -294.74883    31466.777   -10767.078    895.40403   -11662.482   0.45907174 
   63000    308.94628   -16.315615    31419.803   -10717.695    942.09111   -11659.786   0.47287195 
   64000    306.37624    78.731486    31372.767   -10719.591    934.25412   -11653.845   0.51982563 
   65000    299.53098     126.3819      31307.1   -10748.911    913.38038   -11662.292   0.52311093 
   66000    295.29854    273.94466    31267.084   -10771.666    900.47413    -11672.14   0.52299182 
   67000    283.56025    368.74739    31223.454   -10780.915    864.67976   -11645.595   0.55037758 
   68000    289.79728    379.96169    31213.232   -10769.635    883.69876   -11653.334   0.53210736 
   69000    295.10495     65.12563    31356.587   -10773.049    899.88378   -11672.932   0.50721382 
   70000    286.30905    -305.9166    31469.372   -10753.579    873.06185   -11626.641   0.48361311 
   71000    301.04896   -486.64518    31518.294   -10792.442    918.00927   -11710.451   0.46412663 
   72000    294.41056   -537.15977    31541.639   -10784.536    897.76633   -11682.303   0.45804989 
   73000    287.91461    -482.4461    31490.696   -10825.052     877.9578    -11703.01   0.44035682 
   74000    280.76093   -231.89149    31425.449   -10834.058    856.14359   -11690.202   0.49399902 
   75000    283.14239   -124.92328    31388.591   -10814.398    863.40555   -11677.804   0.50369495 
   76000    289.40834   -123.73529    31357.784    -10782.65    882.51274   -11665.163   0.50544216 
   77000    287.33027    67.963481    31362.158    -10784.98    876.17591   -11661.156   0.49333591 
   78000    283.69801    96.012653    31288.205   -10799.114    865.09982   -11664.214   0.51252275 
   79000    283.87297    179.19601    31232.506   -10799.293    865.63333   -11664.926    0.5496961 
   80000    287.77472    311.18344    31202.195   -10773.704    877.53121   -11651.236   0.53749843 
   81000    292.87747     413.1014    31214.828   -10764.998     893.0914   -11658.089   0.53150203 
   82000    299.69395    433.41814    31216.096   -10728.189    913.87735   -11642.066   0.54319656 
   83000    287.03678    417.94741    31189.972   -10758.265    875.28097   -11633.546   0.55036005 
   84000    277.24555    287.27675    31236.496   -10811.597    845.42391   -11657.021   0.56876906 
   85000    300.92615   -56.161788    31385.745   -10790.862    917.63478   -11708.497   0.49032287 
   86000     295.4298   -119.73604    31403.573   -10759.382    900.87439   -11660.256     0.509189 
   87000    283.51123   -180.70342    31430.097   -10791.545    864.53027   -11656.075   0.46963164 
   88000    287.95236   -275.68118    31442.187   -10775.117     878.0729    -11653.19   0.48045439 
   89000    291.87928   -165.96208    31422.654   -10775.549    890.04753   -11665.596   0.50133087 
   90000    288.79069   -135.47085    31371.624   -10764.416    880.62928   -11645.045   0.50254097 
   91000    290.18733   -45.836096    31342.827   -10810.068    884.88816   -11694.956   0.52174602 
   92000    290.08086    83.373094    31308.743   -10808.002    884.56349   -11692.565   0.49311546 
   93000    292.37087    256.82561    31263.304    -10743.54    891.54659   -11635.087   0.51328975 
   94000    290.29941    178.65502    31244.893    -10766.73    885.22993    -11651.96   0.58252212 
   95000    284.40838    336.73412    31203.511   -10835.892    867.26601   -11703.158   0.53803786 
   96000    289.88306    322.41236    31202.113   -10805.703    883.96033   -11689.663   0.54476034 
   97000    286.84759    295.45716    31196.941   -10818.518    874.70406   -11693.222   0.55505205 
   98000    296.30471    283.39846    31264.927   -10764.069    903.54231   -11667.612   0.54326892 
   99000    295.02266    92.779067    31341.379   -10763.006    899.63285   -11662.639   0.52484476 
  100000    281.81915   -182.35251    31443.295   -10821.763    859.37048   -11681.133   0.45875865 
  101000    285.22745   -261.00934     31516.86   -10784.108    869.76365   -11653.872   0.46673311 
  102000    286.13145   -265.19596    31465.782   -10789.341    872.52029   -11661.862   0.47142727 
  103000    297.65545   -175.38054    31422.375   -10778.902     907.6612   -11686.563   0.46481956 
  104000    294.94261   -161.10058    31423.984   -10800.975    899.38876   -11700.364   0.48441478 
  105000    291.80591   -220.88738    31405.828   -10806.917    889.82379   -11696.741   0.49734201 
  106000    288.81081   -86.234491    31398.406   -10763.067    880.69065   -11643.758   0.51318937 
  107000    282.29598    121.30685    31331.811   -10783.333    860.82453   -11644.158   0.50348198 
  108000    300.84569    96.817971    31300.147   -10764.489    917.38941   -11681.879   0.51064294 
  109000     284.6646    239.08914    31215.364   -10801.049    868.04731   -11669.096   0.55646616 
  110000    302.76721    673.97551    31096.037   -10735.246    923.24885   -11658.495   0.61514379 
  111000    301.95776    776.10241    31030.706   -10777.124    920.78052   -11697.905   0.60954225 
  112000    287.22609    638.87266    31089.104   -10836.683    875.85825   -11712.541   0.58665068 
  113000    283.87299    383.95832    31174.104   -10809.512    865.63341   -11675.145    0.5499507 
  114000    291.24711    192.12686     31264.55   -10807.212    888.11983   -11695.332   0.53254345 
  115000    293.55736    63.022833    31327.382   -10772.327    895.16463   -11667.492   0.52014229 
  116000    283.97098   -164.30406     31407.52   -10784.545    865.93221   -11650.478   0.48778867 
  117000    293.92203   -349.32935    31444.804   -10795.902    896.27665   -11692.179   0.47712369 
  118000    289.30479   -405.46479    31491.441   -10782.643    882.19696    -11664.84   0.46432296 
  119000    282.05947   -321.75649    31455.765   -10843.891    860.10332   -11703.994   0.46891616 
  120000    282.85641   -540.37717    31515.844   -10831.304    862.53346   -11693.837   0.42841483 
  121000    292.56715   -348.53524    31492.419   -10813.221     892.1451   -11705.366   0.45538984 
  122000    286.71094   -93.484164    31387.925   -10806.078    874.28736   -11680.366   0.48557995 
  123000    294.85623    225.06472    31306.326   -10762.172    899.12536   -11661.297   0.51039106 
  124000    292.02611    213.93715    31259.783   -10791.393    890.49527   -11681.888   0.52157462 
  125000    274.81578    139.55859    31260.033    -10801.78    838.01463   -11639.795   0.55737785 
  126000    293.58236    175.46754    31300.357   -10813.237    895.24084   -11708.478   0.52656859 
  127000    288.36068    234.29475    31259.321   -10826.486    879.31802   -11705.804   0.52517306 
  128000    283.43178     130.5052    31269.526   -10842.208    864.28798   -11706.496   0.49982448 
  129000    281.74785    153.09417     31240.78    -10873.71    859.15308   -11732.863   0.51977967 
  130000     281.5926    295.33114    31186.424   -10872.565    858.67966   -11731.245   0.53977913 
  131000    276.82238    173.51641    31223.706   -10838.926     844.1335   -11683.059   0.57880679 
  132000    295.38493    63.759355    31367.423   -10806.867    900.73756   -11707.605   0.47854478 
  133000     292.9615   -430.02906    31498.385   -10781.697    893.34763   -11675.045   0.46993551 
  134000    289.57674   -350.89649     31502.12   -10752.833    883.02623    -11635.86   0.48346431 
  135000    278.85643   -418.11894    31471.346   -10825.806    850.33607   -11676.142    0.4852822 
  136000    272.76762   -394.29971    31447.294   -10849.331    831.76904     -11681.1   0.46679296 
  137000     280.3482   -236.27031    31413.377   -10816.949    854.88501   -11671.834   0.49027496 
  138000    285.44689   -206.43997    31375.464    -10784.41     870.4328   -11654.842   0.47717036 
  139000    292.84163    108.67888    31317.135   -10792.675    892.98208   -11685.657   0.51295771 
  140000    300.22075     161.2201    31270.409    -10764.86    915.48374   -11680.343   0.53173433 
  141000    299.06857    290.97985    31216.511   -10791.971    911.97034   -11703.941    0.5282235 
  142000     281.2557    505.25748    31135.819   -10812.194    857.65232   -11669.846   0.56947722 
  143000    278.49558    630.61537    31065.355   -10822.078     849.2357   -11671.314    0.5799753 
  144000    293.07492    433.91568    31173.954   -10788.752    893.69347   -11682.445   0.55433256 
  145000    293.18245    71.907575    31330.061   -10787.183    894.02138   -11681.205   0.49600795 
  146000    283.93525   -105.50886    31380.306    -10796.24    865.82327   -11662.063    0.4965657 
  147000    297.94802   -152.46108    31457.651   -10765.852    908.55335   -11674.405   0.48346362 
  148000    297.00497   -98.405726    31396.073   -10798.658    905.67764   -11704.336    0.4762803 
  149000    290.50417   -167.52815    31412.327   -10823.958    885.85433   -11709.812   0.47435399 
  150000    286.13331   -128.04069    31411.768   -10794.293    872.52594   -11666.819   0.47382631 
  151000    287.58385   -176.81795    31394.529   -10794.554    876.94919   -11671.503   0.49794738 
  152000    293.44316   -29.772175    31366.584   -10749.992    894.81638   -11644.809   0.50643515 
  153000    301.58982    99.275769    31318.155   -10776.532    919.65855    -11696.19   0.49739398 
  154000    297.66003    577.88892    31132.076   -10780.346    907.67518   -11688.022   0.55980489 
  155000    293.56254    1079.3224    30925.964   -10770.717    895.18042   -11665.897   0.63136936 
  156000    288.30075    1004.6754    30981.636   -10786.635    879.13527    -11665.77   0.61110471 
  157000    278.14808    595.63476    31071.943   -10834.349    848.17604   -11682.525   0.57283151 
  158000    278.24294    275.79397    31139.218   -10874.954    848.46532    -11723.42     0.561078 
  159000    282.76696    162.30138    31284.314   -10818.991    862.26072   -11681.252   0.52331779 
  160000    293.74949    38.041555    31338.178   -10790.641     895.7505   -11686.392   0.48158752 
  161000    292.65822   -18.204425    31342.736   -10808.475    892.42282   -11700.898   0.48769137 
  162000      292.035   -62.382081    31385.959   -10813.888    890.52239    -11704.41     0.507015 
  163000    282.50504   -253.72651    31414.988   -10820.143    861.46203   -11681.605   0.47599741 
  164000    283.61424   -286.58289    31456.734   -10835.053    864.84439   -11699.898   0.47691649 
  165000    286.96779    -492.0408    31547.466   -10816.841    875.07058   -11691.911   0.43428969 
  166000     281.5457   -633.78626    31548.687   -10803.931    858.53665   -11662.468   0.43441796 
  167000    285.21512   -503.39998    31472.724   -10832.308    869.72604   -11702.034   0.48793226 
  168000    279.42124   -94.215219     31368.39   -10854.747    852.05837   -11706.806   0.48634391 
  169000     286.9197    180.87447    31254.192   -10845.258    874.92394   -11720.182    0.5306625 
  170000    286.61608    254.96349    31199.894   -10844.947    873.99808   -11718.945   0.54418555 
  171000    284.16193    430.13921    31170.657   -10850.028     866.5145   -11716.543   0.56811232 
  172000    285.07651    308.03055    31191.426   -10851.072    869.30338   -11720.376   0.54314081 
  173000    290.43904    289.70612    31189.159   -10826.733     885.6557   -11712.389   0.54677175 
  174000     294.1612    282.77017    31232.074   -10791.964    897.00596    -11688.97   0.57849182 
  175000    293.76561    103.31456    31307.947   -10780.039    895.79965   -11675.838   0.51204622 
  176000    291.83878   -156.02823    31401.119   -10778.048    889.92404   -11667.972    0.5228993 
  177000    294.81288   -550.23764    31546.295   -10777.367    898.99316    -11676.36   0.47640396 
  178000    301.42102   -781.19787    31654.515   -10788.804    919.14382   -11707.948   0.41677355 
  179000    291.94332   -673.39929    31636.338   -10765.045    890.24283   -11655.288   0.46801359 
  180000    283.77794   -303.65238    31501.073   -10787.396    865.34355    -11652.74   0.47322212 
  181000    284.10035   -10.417077    31375.757   -10796.543     866.3267    -11662.87   0.47592647 
  182000    287.64341    45.004428    31316.307   -10802.831     877.1308   -11679.962   0.51269655 
  183000    292.42175    12.039117    31323.469   -10778.585    891.70172   -11670.287   0.51436044 
  184000    290.30981    119.22167     31263.87   -10822.681    885.26165   -11707.943   0.53408718 
  185000      283.955    182.25319     31238.96   -10829.414    865.88348   -11695.298   0.50190951 
  186000    277.75244    27.349382    31304.638   -10815.197    846.96959   -11662.167    0.5236723 
  187000    289.70373   -86.612807     31310.63   -10805.152    883.41349   -11688.566   0.53377258 
  188000    290.19772   -26.898304    31338.499   -10815.283    884.91984   -11700.203   0.49469485 
  189000    278.12863   -56.182644    31355.639   -10820.826    848.11673   -11668.943   0.52726665 
  190000    276.91537   -273.25821    31408.305   -10834.833    844.41705    -11679.25   0.46552027 
  191000    285.19713   -393.33031    31501.481   -10818.759    869.67119    -11688.43   0.44469828 
  192000    286.88857   -376.95988    31513.759   -10808.591    874.82901    -11683.42   0.47449826 
  193000    299.15566    -416.0953    31508.706   -10791.989     912.2359   -11704.225   0.45874857 
  194000    285.49313   -110.07012    31396.691   -10794.325    870.57382   -11664.898   0.50996965 
  195000    287.22874    137.73805    31322.132   -10801.878    875.86633   -11677.745   0.50467978 
  196000    285.30677    252.48492    31252.932   -10795.069    870.00553   -11665.075   0.52440965 
  197000    281.70592    210.47193    31239.753   -10829.879    859.02521   -11688.905   0.52215151 
  198000    296.50795       249.74    31266.882   -10805.599    904.16206   -11709.761   0.50286339 
  199000    288.48636    162.32777    31282.804   -10793.903    879.70126   -11673.604    0.5625857 
  200000    282.20458    134.86153    31273.267   -10813.962    860.54582   -11674.508   0.52426525 
Loop time of 65.2432 on 12 procs for 200000 steps with 1024 atoms

Performance: 1324.276 ns/day, 0.018 hours/ns, 3065.455 timesteps/s
99.5% CPU use with 12 MPI tasks x no OpenMP threads

MPI task timing breakdown:
Section |  min time  |  avg time  |  max time  |%varavg| %total
---------------------------------------------------------------
Pair    | 45.611     | 48.853     | 51.289     |  30.2 | 74.88
Neigh   | 1.6925     | 1.7929     | 1.8517     |   5.0 |  2.75
Comm    | 7.7379     | 10.167     | 13.449     |  67.3 | 15.58
Output  | 0.26893    | 0.27037    | 0.28578    |   0.9 |  0.41
Modify  | 3.4605     | 3.5165     | 3.5492     |   1.5 |  5.39
Other   |            | 0.6432     |            |       |  0.99

Nlocal:    85.3333 ave 91 max 78 min
Histogram: 1 1 1 2 0 0 3 0 1 3
Nghost:    484 ave 490 max 481 min
Histogram: 3 1 2 2 1 1 0 1 0 1
Neighs:    0 ave 0 max 0 min
Histogram: 12 0 0 0 0 0 0 0 0 0
FullNghs:  2754.83 ave 2967 max 2475 min
Histogram: 1 0 1 2 1 1 2 1 1 2

Total # of neighbors = 33058
Ave neighs/atom = 32.2832
Neighbor list builds = 12130
Dangerous builds = 0

Total wall time: 0:01:36
