LAMMPS data file via write_data, version 29 Oct 2020, timestep = 800000

4175 atoms
1 atom types

-0.6467601276006931 50.64676012759698 xlo xhi
-0.6467601276006931 50.64676012759698 ylo yhi
-0.6467601276006931 50.64676012759698 zlo zhi

Masses

1 18.015

Atoms # atomic

13 1 3.9636359611313923 1.2984879737749195 2.83496135047644 0 0 0
1429 1 7.610997798185766 1.88664855167597 0.7738309500390859 0 0 1
2256 1 8.493567853881299 2.014864340287872 3.2832525137505035 0 1 0
396 1 22.418245016611245 0.19245283141256997 0.8917034654805596 0 0 0
3570 1 49.94506507623711 24.807604619777003 3.048621182985201 -1 0 1
2192 1 11.805188871334922 -0.09509742178064728 10.800307605436632 0 1 0
3750 1 28.90567872496915 1.2071155431934395 1.8318345559133786 0 1 1
3974 1 33.62636583383107 1.783903581631229 0.32747036255709683 0 1 1
2131 1 35.99510242455501 0.5921550815851673 1.177783946858822 0 1 0
1826 1 37.926814323144576 2.0043560723009537 -0.31985638323729676 0 0 1
1465 1 40.06182569942825 0.11461163815705777 -0.2955605990735549 0 0 1
514 1 42.825392465369546 2.7187694831283533 1.648420197787491 0 0 0
2167 1 2.1113946621518678 24.43168160024594 11.482494395007732 0 0 0
2095 1 50.63388158427932 2.5906852535518112 3.140533550033914 -1 0 1
2177 1 0.5494374669343445 24.75119780563808 9.096478424846637 0 0 0
639 1 5.002690757903286 3.086758157895493 1.0934844951225244 0 0 0
134 1 10.356044295625132 5.994312457581297 -0.022610188031999434 0 0 0
379 1 12.166216060498849 5.102910039275198 1.9199234071469324 0 0 0
3975 1 14.100795029851756 2.921265660883685 1.9094224890163694 0 1 1
2444 1 16.67627910731105 3.86719596056159 1.90060072874024 0 1 0
2792 1 37.15627154432768 -0.41451847536084385 14.067595215168188 0 1 0
2594 1 21.950797016810892 3.4675428499849694 0.6007884130759735 0 1 0
2162 1 20.754046505198737 3.167118108761192 2.8615602164501426 0 1 0
600 1 24.540356947392166 4.113777279321672 0.6622046320519153 0 0 0
1838 1 28.59792502973616 3.2233189897790604 -0.16951227736645175 0 0 1
179 1 29.11258224903387 5.746111713009345 0.784199327200203 0 0 0
1914 1 36.460250516460185 5.494487394028397 2.4409741294604896 0 0 1
1939 1 38.62576485067952 3.988013236800282 1.5207458563262497 0 0 1
1638 1 45.360936762129796 3.7762836985254387 2.010775002078087 -1 0 1
257 1 49.34497389221136 4.055557093545975 0.606225308167756 -1 0 0
312 1 0.9959419010005248 7.275773853460978 2.524170006756727 1 0 0
2203 1 4.956215647685061 5.542746979997968 2.005749531753736 0 1 0
2001 1 5.353902098834817 7.941236148386675 0.18715244456786073 1 0 1
494 1 8.449721857484223 7.3762907102846125 1.2742584002769652 0 0 0
1626 1 15.799383936250411 8.394962375141624 0.6575890093711634 0 0 1
593 1 20.246670655658615 8.563387501390507 1.7980609884675811 0 0 0
1351 1 24.964545117521364 8.686220798936931 0.5199618269365613 0 0 1
3864 1 21.323159637663842 6.143080052314798 0.30555809809376766 0 1 1
1969 1 24.953233252866028 6.499617057191039 2.2388697274569895 0 0 1
1480 1 31.733080634858453 5.464836653170673 1.81974252829208 0 0 1
1869 1 6.444874699828758 12.256476486748461 -0.6026012410076593 0 0 1
516 1 33.36029373567867 7.629756588308512 1.147041041254433 0 0 0
663 1 40.61789724765761 7.903151385571917 0.13519692763695068 0 0 0
589 1 44.910961506221575 8.875386537875146 1.829666332378816 0 0 0
2785 1 47.92639510663109 -0.16274922064051417 3.0079900123908527 0 1 0
451 1 49.70290056055194 6.681901627203937 1.5470797551398316 0 0 0
1744 1 0.9019132474738092 11.056549243591913 0.12462889567074564 0 0 1
2025 1 1.1075634298205002 10.069015300105548 2.741073381937826 1 0 1
473 1 6.094108690853207 10.424327741253903 1.4891381429703112 0 0 0
540 1 8.268349168701878 10.94345740589077 3.2019971608420246 0 0 0
1816 1 10.139099972291264 9.181602637898385 2.567304035979923 0 0 1
1841 1 11.869065006207382 10.762128120696588 1.4522874868776805 0 0 1
118 1 14.190180358529267 9.871646186509235 2.320281213781406 0 0 0
412 1 18.05518940372067 9.49088014195655 0.25707539734340923 0 0 0
530 1 22.61194239390702 9.959116623227503 1.7332524171699992 0 0 0
710 1 50.303320905196 24.29335097918064 -0.31213614456887556 0 0 0
188 1 26.147054311743883 11.268023303737454 1.0332565069948367 0 0 0
1768 1 29.791300009456368 9.909695106682697 0.6834739432908337 0 0 1
2024 1 30.44939615680431 -0.6405618474477798 1.0773904709314608 0 0 1
348 1 40.893110824591965 10.960454471096764 -0.6216887625641537 0 0 0
255 1 37.483047601766536 11.049742949323457 1.0455305723467445 0 0 0
1647 1 39.9358926339232 12.80964554981742 1.5577086749331328 0 0 1
3890 1 40.674777331052645 -0.6204383192137651 8.749093428385413 0 1 1
123 1 47.48560395602796 9.6416015312572 1.8486328251513413 0 0 0
456 1 2.0743511432631223 13.40648947933103 0.35688934607982414 1 0 0
633 1 8.088274484107787 14.619300179521863 0.09077716868664021 0 0 0
1716 1 24.166096553514684 14.838849084046924 -0.5897849797391431 0 0 1
1918 1 11.80521823056053 13.493939541593853 2.2086669399647074 0 0 1
80 1 13.465189334711665 14.317680599287645 0.03445071316619441 0 0 0
1628 1 16.081993028783423 14.372023777210758 0.4555397193919297 0 0 1
556 1 20.382439518184064 13.528117565721637 0.5890400885154836 0 0 0
2103 1 17.978998961870246 12.381422199205923 0.06658868184181599 0 0 1
3870 1 21.498329514895687 14.045720489394427 3.0366916205209553 0 1 1
155 1 24.53199903863073 14.452340544564874 2.200075919845712 0 0 0
560 1 22.732810720631615 24.560631863478495 12.887310119818933 0 0 0
1551 1 24.32099354285125 11.670960014769843 3.26623903315758 0 0 1
1469 1 29.30649561839654 12.55138575575978 0.6091368112756002 0 0 1
2068 1 33.88682646303916 13.000598073999466 1.2756211909815196 0 0 1
249 1 37.630046995826234 14.343502347541035 0.30793751555433246 0 0 0
1653 1 42.49185143120651 13.410477305000546 0.19155317949817474 0 0 1
631 1 47.092785833062834 12.077137503008318 0.5058604658808641 0 0 0
607 1 0.7338168043437263 15.688563748004313 -0.1215405537094808 0 0 0
476 1 11.186080594183863 16.912115995707662 -0.44290729449844224 0 0 0
362 1 -0.10356068418594011 17.372328067663776 2.0363593409583003 1 0 0
3547 1 18.887147769604663 24.893819702157607 1.926745304100319 0 0 1
1413 1 4.58688822800761 16.40934733180386 2.1441786076809937 0 0 1
1525 1 6.197793749486959 16.558124821761094 -0.19498851458148608 0 0 1
561 1 11.628886822335511 16.557702379638428 2.397941836834353 0 0 0
2619 1 2.870934483159493 24.489427884218532 0.6860874392124061 0 0 0
1666 1 18.36171917650048 18.184597484233304 0.10768682540953545 0 0 1
230 1 28.00372425592326 15.933456371401611 1.0216312928335511 0 0 0
2105 1 30.33030701692427 16.326158273868337 1.707661507219191 0 0 1
671 1 46.63618817557931 3.632670205358801 -0.17542990583498236 0 0 0
2085 1 35.22526421813493 15.420858868361993 1.2381612579072747 0 0 1
1648 1 39.88319668876534 16.310959549480536 0.15090869207899393 0 0 1
2265 1 40.8162218508719 17.51455936099473 2.5908267428583924 0 0 0
1435 1 43.372089616835325 18.895694322080885 1.0353654288673027 0 0 1
187 1 46.4005189077935 16.33057533782858 1.7494069686375204 0 0 0
2364 1 6.827314630465743 -0.1399855549327994 10.343082710214354 0 1 0
505 1 2.617577494055155 18.51062179965916 2.2545049532046537 1 0 0
1968 1 2.6433481222796154 19.76301352317707 -0.2534831720410817 1 0 1
2816 1 7.668929424117422 -0.4424873840778838 15.633419138529096 0 1 0
17 1 9.8898134888098 19.449978075451924 2.5241229495161974 0 0 0
3831 1 7.084083349143221 24.62456421387411 1.5680506543603383 1 0 1
398 1 14.659281949885978 19.74386357706874 2.7845695000384874 0 0 0
298 1 14.783296827744774 21.023413294652794 0.34971618656093095 0 0 0
8 1 48.186065947959825 8.150306525954877 -0.27605642948640396 0 0 0
333 1 22.633059234249103 19.334099935051366 1.0773161175887356 0 0 0
1035 1 25.187545880758755 19.199863733275514 -0.05341935354377181 0 0 1
2091 1 27.277474191192542 18.59222560731417 1.5697280760263679 0 0 1
1474 1 29.359804233852223 20.56416649644175 1.4897490001782177 0 0 1
457 1 5.143786547926545 20.99486427641379 -0.20413028885708634 0 0 0
341 1 45.49790639947926 20.318271820402 1.3571287024297343 0 0 0
213 1 48.11754007568998 20.429862216755613 0.275189527353091 -1 0 0
139 1 49.84422574107939 19.851562187411727 2.8189318711925164 -1 0 0
447 1 0.02902143705150939 22.287083100048378 2.5605574649694645 0 0 0
3804 1 35.04212539662638 5.949181007574247 -0.07089331572238555 0 1 1
240 1 5.572928166732389 22.288264121877447 2.012604471353501 0 0 0
2632 1 11.347913776490323 22.72385852364706 1.622028936757585 0 0 0
2696 1 13.885680431469046 23.41112943060418 0.7765161271836227 0 0 0
4081 1 42.101685193210805 24.755106158920743 11.085755119348498 0 0 1
1534 1 18.889229265506668 22.111442610976805 1.840160362476721 0 0 1
1912 1 21.833133246319797 21.876843287237886 1.2670071030033665 0 0 1
1656 1 25.95763775051112 23.117369424655763 1.9668658431110875 0 0 1
2269 1 48.42712867546332 24.392193983950534 5.292707538908794 -1 0 0
2355 1 28.634472854844585 23.278993915694276 1.2978621660642684 0 0 0
353 1 49.71256454206681 -0.40964213135158856 8.589727339170175 0 0 0
378 1 34.42983476158721 24.099720356710183 1.8779002050561044 0 0 0
1584 1 37.260144681543956 24.101157182437852 2.065532294186205 0 0 1
407 1 50.260753601635 5.426898162035626 16.351235797611753 -1 0 0
689 1 17.0332191442396 24.861164971544028 7.031291716534272 0 0 0
490 1 42.07691987003579 22.808491917396367 2.356411278374309 0 0 0
1714 1 44.77765537346694 22.833669261488346 1.9252041591312432 0 0 1
2283 1 50.56745154887302 -0.0261026633560284 1.4419948330376204 0 1 0
2241 1 1.2247883381580305 22.428060365252744 0.12535779315147055 1 0 0
552 1 0.9022542802098714 1.3267329638114975 6.029869390057727 1 0 0
2640 1 6.414785838659033 0.4759941384357931 3.929460963728949 1 1 0
610 1 10.629566437837369 0.5235689357962148 3.581560085823787 0 0 0
558 1 13.509982702619425 1.135298284716821 4.110345800926027 0 0 0
2300 1 18.58125390683032 1.8291859205425154 2.8707221240774987 0 1 0
3187 1 18.308380548807985 1.329445031949654 5.518232337488953 0 1 0
522 1 22.25054480606311 1.2740778708921325 3.713729228274124 0 0 0
2764 1 20.671429527060216 1.7183675062300354 6.342489218010704 0 1 0
3597 1 24.523915472380207 2.41140247255264 2.6433126504320397 0 1 1
247 1 26.42858323988085 0.27562928842893364 2.514274812859487 0 0 0
2234 1 30.704908272413185 2.52038592207578 3.958638219461222 0 1 0
4054 1 38.610791163403164 -0.10751042831257174 4.353716524471948 0 1 1
3569 1 36.07220077598324 0.7050170772911499 3.872643067297175 0 1 1
511 1 39.99875359231072 2.179120732102755 5.407890659102474 0 0 0
1704 1 44.30222498387569 0.5071470966516096 2.8451060767247442 0 0 1
601 1 -0.39750739854265865 13.768635162546637 16.311742225477385 0 0 0
1915 1 1.9363361181811825 2.7816784251194635 4.029690441999798 0 0 1
2644 1 8.748806477005825 4.115552220878652 4.7144690068350865 0 1 0
3546 1 11.17363221448896 5.520859354250533 5.822522659048165 0 1 1
67 1 20.58652660342787 5.731028708232896 3.9904044942396544 0 0 0
605 1 25.510503002235232 2.985189784996668 5.417588387594445 0 0 0
674 1 27.187028046086876 5.340916413835912 5.492040300159874 0 0 0
604 1 29.938610914726603 4.590400555426687 5.753982275643114 0 0 0
1422 1 33.01396060427783 3.174968309806687 2.634304009383007 0 0 1
69 1 34.81178677545142 4.4720147562294175 4.413139247065453 0 0 0
3960 1 35.87870209514035 2.709785033739642 5.810303450075105 0 1 1
582 1 40.82500074054823 3.6846450766898275 3.379831709516215 0 0 0
327 1 46.563840864480106 2.0758345132102196 4.059489406025404 0 0 0
2298 1 48.48439380631197 3.7781948051142376 4.835860541251622 0 1 0
1898 1 2.7360599285269855 5.446507332066944 3.8368300281356733 1 0 1
1180 1 0.6188960628036722 6.780338531211209 5.756294710001581 1 0 0
64 1 4.728510591889446 6.83357501227173 5.344697377272476 1 0 0
2040 1 7.287861223838239 6.399751971140744 3.7072767896450625 1 0 1
2178 1 7.9358225270200045 8.191436108287947 5.81645374395131 1 1 0
335 1 10.589064053165698 8.126086828590886 5.145882142939343 0 0 0
440 1 13.034593083565069 7.375248245450184 3.3493005506952773 0 0 0
380 1 16.25657046439001 6.397549315141709 2.7404396316156068 0 0 0
1581 1 14.737964810006037 6.972029332131645 5.170560826743586 0 0 1
542 1 18.46780168523398 7.81806594044556 3.859940581094328 0 0 0
2665 1 23.015431307459902 7.027807045117592 4.11575341604876 0 1 0
699 1 27.650487414260276 6.537932213444492 3.2552365645370713 0 0 0
2182 1 30.674719775742666 6.644677422468778 4.0505793085870385 0 1 0
281 1 34.63362076132833 7.099609653657869 5.34783947706908 0 0 0
599 1 33.451392480197036 8.996713450918103 3.342665520586356 0 0 0
166 1 37.20184700568449 8.337298093947487 2.5109888300310237 0 0 0
2823 1 37.04597846808683 8.198370613195557 5.214764258086644 0 0 0
156 1 40.1525478252017 8.179651190875433 2.828108635482534 0 0 0
2041 1 41.150882954724835 6.091992128621685 4.454825370051041 0 0 1
2573 1 43.7475008773729 6.466176361681595 5.061355873216013 0 1 0
3305 1 45.5970828291301 6.356081975309146 2.9436972271580277 0 1 0
2306 1 48.15134681252988 6.195532049113382 3.7347748829794494 0 1 0
1592 1 49.14045318043014 7.566157310775772 5.590047813619345 0 0 1
409 1 -0.4788252490036422 10.872963113727254 4.75255272232158 0 0 0
1695 1 3.6974702916252626 11.40350893992573 3.025677826203097 0 0 1
289 1 4.937961418121464 11.533921353293001 5.581981747993861 0 0 0
167 1 7.748148231326585 10.80050633075286 5.585045806467364 0 0 0
566 1 11.68689613251902 10.191521510615084 6.498868883036697 0 0 0
219 1 17.324833152822208 11.17865710153401 2.5985723962505785 0 0 0
323 1 15.043365856523344 11.364083949653292 4.673437767485466 0 0 0
534 1 19.08352406981967 11.957287290008372 4.709277418514338 0 0 0
838 1 22.729787957136793 9.41050928321561 5.5132691068863355 0 0 0
351 1 21.925075862910226 12.3477340276028 4.847266560959999 0 0 0
430 1 28.73788348935311 8.977481845870058 3.37245744352012 0 0 0
339 1 26.54091272746092 10.121951843916776 4.472833468921304 0 0 0
192 1 31.173818882773013 9.757622313680606 4.499686574298209 0 0 0
1689 1 35.203929113686264 11.22756774772719 2.710144057416789 0 0 1
293 1 40.814627147216555 10.623872200924449 3.3288204679024047 0 0 0
654 1 43.778922446943646 10.571033292573539 3.607154342529152 0 0 0
259 1 46.61460677072232 10.36471373678713 6.217742650307921 0 0 0
1874 1 48.391388450774606 9.681747611502944 4.2438769793698645 0 0 1
565 1 3.1047428388495084 14.004717375804448 2.7837256902608174 0 0 0
637 1 9.012189082393531 13.553358313759775 2.5422781894783877 1 0 0
946 1 12.194144510804493 12.554651950505454 4.8535744218656305 0 0 0
1856 1 27.12286224733727 13.576742595520122 2.4801245403573597 0 0 1
43 1 31.423636172539148 13.672772985265219 2.317841475716763 0 0 0
2065 1 30.962054243893217 12.65589955516338 4.7668561830198 0 0 1
652 1 35.78482034867217 12.71770133401409 5.231124413405636 0 0 0
98 1 37.36442276493001 14.349761918338878 3.4077995725615695 0 0 0
2678 1 40.154698373810305 13.990615782600301 4.427221182022508 0 1 0
121 1 42.86213743603572 13.480481976194865 3.047659771759065 0 0 0
189 1 45.812733914337045 12.685904503602021 4.61145286060705 -1 0 0
395 1 47.43263733640835 13.881687135438211 2.559436292415778 0 0 0
635 1 50.012590226395055 13.501490860818441 4.128984380502957 -1 0 0
62 1 0.7515257221301788 15.309005350684565 3.753233497366649 0 0 0
2490 1 8.446947095646715 15.100535563314088 4.520986840352528 0 0 0
136 1 5.953232911272799 16.76362856085183 4.474281042572432 0 0 0
687 1 9.973800904598452 17.392414412649032 4.539859724079277 0 0 0
2188 1 14.14218083797021 17.25003464816886 3.332431358433879 0 0 0
449 1 13.921947866840647 16.790246601040863 5.812937462002482 0 0 0
3687 1 16.345808788551885 15.60960503479992 3.003662396885194 0 0 1
1866 1 18.175328500439566 17.619109114746866 3.1410183507746323 0 0 1
1712 1 20.514364621883594 16.310141277033402 4.211186440646136 0 0 1
1916 1 22.348013459220738 18.18549301624093 3.651183656365215 0 0 1
2042 1 24.531578270223484 16.540302245598028 4.133374990495702 0 0 1
696 1 28.521063130983187 17.809920961824023 5.477098096914752 0 0 0
1481 1 30.85284250757722 17.934399109782387 3.9560929592684637 0 0 1
1196 1 33.41484477768847 17.464195098013704 5.237562035009334 0 0 0
85 1 35.77329836039095 17.48967132904327 3.3255987185069573 0 0 0
1288 1 37.61536354358338 16.928631235016855 5.358488635278331 0 0 0
1459 1 40.13144129144028 16.573524065279802 5.077813177715156 0 0 1
613 1 44.124457496694674 16.856175042342105 5.1515172409747425 0 0 0
42 1 43.621168385059995 16.14402048522274 2.571944549234062 0 0 0
344 1 47.243542395462235 18.671636370746132 3.0325506703618954 -1 0 0
1822 1 2.856930341949521 19.98195859686335 4.3345021021841 0 0 1
84 1 5.6747075887158305 19.577604530413165 5.007746348064521 0 0 0
54 1 11.557025086144652 18.748416487220556 6.628128758185804 1 0 0
376 1 15.957375368512217 20.901783343135115 4.83543443603609 0 0 0
2559 1 18.25657800908703 20.02732334202269 3.981135332588635 0 0 0
105 1 22.09042761052422 19.85340914064804 5.919523698294995 0 0 0
1609 1 26.335402502983587 18.845610779295896 4.038187322079075 0 0 1
1632 1 26.051883930109913 21.580950856401397 4.450924396729287 0 0 1
1531 1 31.36975139803029 20.650856752887893 3.631221976165385 0 0 1
128 1 33.842361842516354 21.625765773947087 3.052445572790786 0 0 0
523 1 35.69364945374862 19.847504772222454 1.961585088721122 0 0 0
931 1 37.82188596541662 21.512978483040524 2.768401288133166 0 0 0
1693 1 40.515396092328025 20.523154198317513 2.9537858822740732 0 0 1
4172 1 41.613910207355076 20.79117959555545 5.471897503434415 0 0 1
252 1 44.4931825813642 21.22352304888413 5.8237349078040905 0 0 0
33 1 45.98403898785876 18.864691616875582 5.324867154106797 -1 0 0
672 1 50.16591372542649 20.031827085686146 5.498421477647562 -1 0 0
2098 1 18.00702696921463 3.834284309156348 -0.5019797155478921 0 0 1
1880 1 2.812955889237237 22.899215821347724 3.3547608786552905 1 0 1
596 1 7.482670527379813 20.93871985850729 3.4617552937498495 0 0 0
1485 1 14.661037436406875 24.675470617609268 3.2365674915386946 0 0 1
2325 1 12.04687919725866 20.871457799847242 3.3321938670308784 0 0 0
49 1 11.224011014291483 21.543341125742515 5.934182888973207 0 0 0
2478 1 8.649454732603195 22.627750965428238 5.293067443824354 0 0 0
1818 1 15.031061250538105 23.549805357643045 5.668237221212004 0 0 1
2558 1 22.516130536944896 23.474881537517643 3.5265977635293595 0 0 0
1 1 23.53697200886387 21.914263323818037 5.480749589244903 0 0 0
625 1 32.39220953943585 23.875137043536135 5.743427752009912 0 0 0
660 1 29.98109012860842 22.766241038665335 4.7948834627177535 0 0 0
168 1 45.25329445052577 23.54836786333511 4.531237740109978 0 0 0
2584 1 9.459088688215388 24.141971710062037 3.164051567685667 0 0 0
2217 1 38.497726301930896 23.119420815914008 -0.2583231872481313 0 0 0
282 1 3.3568678027182424 1.393044004091156 7.628217179548885 0 0 0
73 1 5.8966692891880506 1.3885509353162058 6.359348456920792 1 0 0
2539 1 10.393594533276673 0.32581222993787495 6.902403273719553 0 1 0
2205 1 12.581380701285497 2.0220514489224444 8.965880096035152 0 1 0
2496 1 14.0343846906257 1.2575788734179012 6.791244342623296 0 1 0
1774 1 16.358105599858504 2.5358845711929514 7.001120400093931 0 0 1
169 1 21.019796695072365 0.5002394025428534 8.756506443416315 0 0 0
2641 1 25.503634637769373 0.8317752081232681 7.3702141381299615 0 1 0
683 1 27.929680318495592 0.2930195702774475 9.106963422069049 0 0 0
2707 1 32.22901371372816 0.8616008242808815 6.037839206136736 0 1 0
21 1 34.05131050442117 2.020368198660861 7.580759383871289 0 0 0
2588 1 42.02606703546307 0.737487859736627 6.71587423796605 0 1 0
162 1 46.13157833222325 1.429841809810203 8.60612673319729 0 0 0
2580 1 44.57405322999166 2.0886592916545683 6.239996562921547 -1 1 0
1557 1 32.19740335824025 9.777091296780124 -0.5841712082056123 0 0 1
78 1 2.402294873229272 7.2859663843571605 -0.3210036338540757 0 0 0
506 1 0.7637728618346222 5.029410068763119 7.892722800777074 1 0 0
16 1 2.8423277614594844 3.9055320230870487 9.166691010549727 1 0 0
541 1 5.041523924833052 5.329014574269327 7.415974478286795 0 0 0
641 1 7.380296044093242 3.575195822908663 6.910189934291613 0 0 0
280 1 9.558324943257215 2.7231979316478268 8.371901632701523 0 0 0
1761 1 10.583792102892003 5.477467615054548 8.43596406882884 0 0 1
2315 1 13.632200690698932 4.7651265923069195 9.202619719976068 0 1 0
2332 1 15.588172887832542 5.328028620875325 7.292762966150007 0 1 0
3326 1 21.109796245932095 4.461486516798196 6.6241604088812975 0 1 0
2716 1 23.684008870574665 5.271093849561172 6.16561450452365 0 1 0
459 1 30.74648149809713 5.713289651520959 8.068155206237138 0 0 0
1331 1 38.169089069945194 3.4443312957412857 7.0206626839197375 0 0 0
2226 1 38.89256724601709 3.601995664747953 9.857345425193406 0 1 0
757 1 41.9539380718637 3.3380972682378762 7.879868988077778 0 0 0
103 1 44.252108780524956 4.884029282164555 7.124435631876432 0 0 0
535 1 47.37967932787663 4.6744071363468604 7.270652150523283 0 0 0
659 1 50.536668252872616 3.2148031981324277 6.843183766853934 0 0 0
1339 1 48.80826048994861 2.382809958805904 8.614516036005094 0 0 0
406 1 6.203642056050006 6.979664903184348 9.277461543976207 0 0 0
373 1 8.730412264095227 7.5921558533337645 8.304665882027388 0 0 0
528 1 14.356500438538326 9.24768003637539 6.570575665203113 0 0 0
1446 1 17.60209567588298 7.141655026588115 8.642325100945506 0 0 1
1667 1 16.90122612367724 9.841221115229198 8.059344932802476 0 0 1
354 1 20.188192660462924 6.373073019141993 8.75879230844911 0 0 0
1786 1 21.11907518929944 9.137505024877507 7.849475787537028 0 0 1
876 1 24.22485123538303 6.059271516810015 8.675770693614497 0 0 0
265 1 26.542969651188542 7.065077059860066 7.305662942581324 0 0 0
482 1 28.36629428328373 6.632820698641647 9.506205140166667 0 0 0
9 1 32.59502954239649 7.435411337022826 7.286988672304617 0 0 0
436 1 38.853229972200666 6.233458627101275 6.42192954376561 0 0 0
241 1 39.75853969588534 7.612648667339286 8.551540261395942 0 0 0
948 1 43.98135147002705 8.99884560562197 5.94312797613277 0 0 0
384 1 45.20801695534053 8.08453897191996 8.506805954375528 0 0 0
2568 1 47.70220135820254 7.0998098702929076 8.176722810230514 0 1 0
553 1 1.3297242694774283 9.35824751556405 6.499570526878332 1 0 0
453 1 -0.27225063200773136 10.191938742434084 8.748362801153974 0 0 0
502 1 3.9154870682250804 9.151708644106918 6.703330404060188 0 0 0
1272 1 5.320784741226481 9.62338379062972 9.196275902808422 0 0 0
510 1 8.149657998798748 10.067349471718698 9.413984370623124 0 0 0
2799 1 11.310763514151791 9.774430412216349 9.372106379131075 0 1 0
2288 1 16.55543080956228 12.662156322065838 8.623239092838743 0 1 0
150 1 18.944796152412998 9.388995139486758 6.134285137434548 0 0 0
1258 1 23.122791286344377 12.345576831880466 9.510958307450515 0 0 0
109 1 24.36185003388332 9.74964129242962 9.49603763292595 0 0 0
94 1 25.267620722532566 9.34353810242294 6.958004331992496 0 0 0
2772 1 27.460085372021616 11.328552250045165 7.299593971913651 0 1 0
269 1 31.96189744985987 9.886167989753343 7.421604987303844 0 0 0
1096 1 33.13443742073199 12.955827415775829 6.4656709489056725 0 0 0
148 1 37.24360795655212 10.796292818371152 6.393033549871818 0 0 0
359 1 36.77845913758917 10.881612946428326 8.901467413741432 0 0 0
574 1 39.746527694889565 11.246917409830827 5.738807744819203 0 0 0
435 1 41.59965735122823 9.752147093110342 7.307052612159421 0 0 0
800 1 48.66521589903744 11.69340944259145 7.886618516706722 0 0 0
30 1 0.28367774879232033 15.174615916613847 8.465636649309388 1 0 0
2029 1 4.259290081709132 13.490218491694039 7.504017499212379 1 0 1
381 1 6.395586619102888 14.680858657205585 9.241916437957679 1 0 0
369 1 9.515006581235344 11.733728135011667 7.584162937091188 0 0 0
595 1 12.848664822530182 14.428159017056213 6.754671839015998 0 0 0
57 1 13.981201052922842 13.708608789903888 9.22085276881552 0 0 0
390 1 15.629531951353286 14.054693594319279 5.211561303751864 0 0 0
563 1 17.88232502600527 13.815360571398822 6.516267152627407 0 0 0
239 1 20.252921695847327 15.280451576293942 6.760100438897703 0 0 0
336 1 22.136827571348558 13.508023617977987 7.286052715904842 0 0 0
438 1 25.800198616082632 15.233236626202917 8.345468669146712 0 0 0
382 1 28.132132522095347 12.9532764076882 5.152493511815618 0 0 0
89 1 28.02715927324363 15.445186600905387 6.900367956801749 0 0 0
1077 1 30.35977140612237 15.13052704668649 8.516556990668546 0 0 0
474 1 32.813959081162864 15.520015955859026 7.385684124458745 0 0 0
1266 1 34.8925429312361 16.063313012365533 9.000793371885695 0 0 0
1193 1 36.810462012194556 14.423919680910492 7.361260682337248 0 0 0
207 1 39.63839407649272 14.15200686790308 7.471703574642371 0 0 0
875 1 42.849498101600716 14.264445655708133 8.575648505095048 0 0 0
2185 1 49.47509743405986 14.091326833057138 6.872495660977625 0 0 0
594 1 1.4070517230201292 16.155508540389338 6.212395003787502 1 0 0
2311 1 4.4118552276532865 16.309918088684668 6.6952926589186115 0 0 0
628 1 5.372606100052025 18.130032508671974 8.461906166118553 0 0 0
357 1 8.219983051839769 18.81765409981279 6.265547608756211 1 0 0
370 1 8.655400596789857 14.448574434725465 7.3653150186920975 0 0 0
2483 1 10.814238996304404 16.04398881710853 7.50940700012101 0 1 0
2671 1 16.622831370501835 16.64027167404006 8.537999442364471 0 0 0
146 1 19.700267377499017 16.83155962068177 8.948453050129691 0 0 0
115 1 23.328575560302372 18.55362546887003 7.992333677641989 0 0 0
253 1 23.669326223375354 15.832424619500571 6.659635139450897 0 0 0
37 1 40.53839847820399 16.696488898270985 8.910477012088833 0 0 0
468 1 41.87627685145464 18.153980547997296 6.7320152385781835 -1 0 0
573 1 44.87037262057463 14.552399421551625 6.74016255245121 -1 0 0
23 1 47.285677095065644 15.688111912176236 7.392174605642698 0 0 0
519 1 48.10527256672786 18.417680246575163 7.113111560443578 0 0 0
1779 1 1.196905140925451 18.934379269402996 6.4077293383689575 0 0 1
2455 1 -0.5337450209463909 19.090424639495854 8.717086772459835 1 0 0
446 1 2.2703952706299555 21.096310831259032 7.975860635914337 0 0 0
297 1 4.999989978300836 20.67205001087125 7.335562237215516 0 0 0
415 1 9.527305729353673 20.07339917692148 8.885990744661248 0 0 0
622 1 14.105175106763136 20.90859005746239 8.827788270583687 0 0 0
363 1 15.678417699275737 19.197401894512375 7.058848869865974 0 0 0
697 1 19.624431152442465 20.791471769255377 6.352495470568825 0 0 0
99 1 18.26535240240231 19.677073828286026 8.52056790282799 0 0 0
691 1 25.822441859249977 19.2833917555848 8.797371321181979 0 0 0
317 1 28.29400729402965 19.66776879772459 7.6178591397213875 0 0 0
512 1 30.92445277785998 18.984778179304694 8.575051265625294 0 0 0
96 1 33.355832577727675 19.58564962460791 7.20485150290808 0 0 0
1400 1 35.43173481012617 18.764180822945892 8.629174793933325 0 0 0
488 1 34.168419968923935 21.779383291253236 5.685868247173535 0 0 0
122 1 37.41309797399401 21.44900729783907 5.615179997705029 0 0 0
279 1 37.619009707404 19.074634608427164 7.09300215166213 0 0 0
320 1 42.49412007280827 19.81261943304316 9.340127823623048 0 0 0
1269 1 44.12703827822886 21.82935547987477 8.39687779126323 0 0 0
939 1 46.713818799032936 20.332761321101327 8.81355693686243 0 0 0
1134 1 1.2596283297465578 23.264764845101006 6.8946382465414295 0 0 0
2416 1 7.303758528075485 24.66208950577586 6.815775646293028 0 0 0
439 1 6.415794513637602 22.773539906518835 8.792334842288057 0 0 0
2812 1 12.851495866514867 22.857596494797466 7.233213444840415 0 0 0
2303 1 2.7624421685073437 -0.38319503379463987 9.536241949112512 0 1 0
2356 1 19.206077850950752 23.39875376618532 6.51510901609823 0 0 0
3484 1 45.77283273479786 0.7827620904385773 16.142180508921058 0 1 0
422 1 23.19719569248681 23.208102041620126 7.941363837542264 0 0 0
2324 1 27.91788207970582 22.154058556672314 6.415880523570411 0 0 0
246 1 27.708336162186107 23.815919765001677 8.684350092236368 0 0 0
2118 1 36.05209370161913 23.32697082105067 6.977269498304211 0 0 0
34 1 27.389293114239713 1.3608916336042705 16.00353895591604 0 0 0
300 1 39.85492198100694 21.76796674791593 7.0106132494964495 0 0 0
603 1 49.93456354652143 22.466334675471025 6.467723595336235 0 0 0
25 1 48.64158131787082 22.591489920880914 8.834449009445624 0 0 0
314 1 0.19666489059636794 -0.5488929403247016 10.582184161099768 1 0 0
1098 1 0.03571395070260752 1.7277371708910185 12.015803719243117 1 0 0
709 1 20.823312062566096 24.692282291603664 8.437043140699144 0 0 0
193 1 9.478472783270615 -0.5970248733706269 13.609207025263851 0 0 0
307 1 4.426863995402337 2.346091258048561 12.641685821326934 1 0 0
1832 1 43.316175057347806 9.085698654806258 -0.48748716512911494 0 0 1
493 1 8.301383324361638 1.942927282565173 10.797112603644143 0 0 0
2286 1 10.38775290313651 1.5149611749014467 12.320331782257595 0 1 0
874 1 35.706683126984395 24.13778826932339 14.44949798078033 0 0 0
2730 1 17.108413783584762 1.9425413451411808 9.869754045393218 0 1 0
725 1 20.213052029135767 1.678674993731922 13.460947362974046 0 0 0
477 1 20.01518386222957 1.96761572289648 10.575730815104048 0 0 0
225 1 23.68300349262371 1.054116500932918 9.122821942214943 0 0 0
2250 1 49.70261259457901 22.528714146451534 14.543318166661988 -1 0 0
391 1 28.812941693424555 2.1173062991113065 10.886454396019042 0 0 0
2081 1 31.630882016176542 2.5253897372082625 11.798297843484127 0 0 1
349 1 35.79953150301472 1.3164998741748888 9.53656720813218 0 0 0
2454 1 33.505739440756926 0.26414255263827846 11.489409045978913 0 1 0
730 1 35.608436884678646 1.7557673938312153 12.705294637777083 0 0 0
2884 1 40.820854373837705 1.6472233982181304 10.44853650805659 0 1 0
2982 1 39.555366539580774 0.27101247218018154 12.569361358495556 0 1 0
3140 1 43.209062059655324 1.8211701631615953 11.940203545190798 0 1 0
774 1 2.0093644747344848 3.6642559366883223 11.892784276117368 1 0 0
421 1 6.918167937751345 3.4555786630495016 12.466078365964089 0 0 0
620 1 11.619739018598054 3.821617330929426 13.345303733968924 0 0 0
1170 1 15.55555938479624 4.121659772854861 11.051128330651808 0 0 0
368 1 21.174024154320758 4.576015930123549 10.896832957934354 0 0 0
2797 1 23.605965537890413 3.4422183647268314 10.311699931646212 0 1 0