LAMMPS data file via write_data, version 29 Oct 2020, timestep = 800000

4175 atoms
1 atom types

-0.03481824257496413 50.03481824257479 xlo xhi
-0.03481824257496413 50.03481824257479 ylo yhi
-0.03481824257496413 50.03481824257479 zlo zhi

Masses

1 18.015

Atoms # atomic

1424 1 0.5078389227426053 2.1472609419336215 1.481532851204117 1 0 1
479 1 2.668354781178134 0.4486170429946562 0.31590463659991264 0 -1 1
1887 1 4.784767640057435 2.278777921469421 0.2587181378654632 2 0 1
2035 1 6.936357785523004 1.194974823497006 2.434243955174114 1 0 1
2692 1 20.694405390674145 0.549659488471672 1.1827943931014087 0 1 0
2806 1 26.914382103903517 1.447215342463432 0.9352864641278156 0 1 0
3017 1 25.480593290194207 0.508513819296902 3.247711526950414 1 1 1
2201 1 29.64286718624875 0.9329480800833585 1.5198725581278234 -1 1 0
2841 1 34.93846723812382 2.472542769573974 1.3258977210876384 0 0 0
1181 1 39.94453117602864 0.9311155077611827 2.6175287613076748 1 1 0
2655 1 42.104454825611846 1.561052049543545 0.8138066265426634 -1 1 0
4088 1 44.412701499088485 2.7943707686070525 2.655804002665422 0 1 1
1127 1 47.21810099757881 2.8966136306847763 1.890571143395079 -2 0 1
3403 1 48.974176578587105 0.32418526708327383 2.852736874716919 -1 1 0
1970 1 4.134851690968249 3.5648365807475213 2.5621644908008223 0 1 1
183 1 3.1281275116097174 6.116198844207033 1.7851267809141242 0 -1 0
607 1 8.808853629969896 3.9011829384643635 1.661222178086982 0 1 -1
593 1 13.967255491892598 3.306155485940408 3.0423829126463353 0 0 0
2521 1 13.545913546304327 5.402776612034763 1.0930013462319557 1 1 0
2346 1 18.675975170872583 3.9028024429823343 2.902649521043842 0 0 0
1856 1 16.43082628993806 5.663259335671854 0.8775591427217238 0 0 2
1366 1 20.071381052156188 5.5831853461111995 0.5112681346133511 -1 1 1
4111 1 24.642634465785097 3.384456263612105 0.495870973005207 1 0 0
2314 1 21.882006665730163 3.2980232261192666 0.4552206316761389 0 0 0
1527 1 25.62107836242909 5.9113420571545054 0.29710349306229983 0 0 0
2852 1 26.911323172256118 6.136978794904109 2.6955739402129364 -1 0 0
92 1 28.584380442454613 4.029837336026902 2.330196293506054 0 0 1
2392 1 33.74638505061913 4.942093171382155 0.6801233028570969 -1 0 1
297 1 31.335780920507545 4.677144442918314 2.3667834202647042 -1 0 1
107 1 38.95646720186961 3.6242526108584965 2.208861300897553 0 0 -1
2933 1 41.434351449226774 4.275013451269141 2.5272052295495024 -1 0 0
2148 1 43.93662461252529 4.868101330194622 0.8404195610541363 0 1 0
1423 1 0.19376540711566928 7.064967523510858 1.9605491936259116 2 1 1
33 1 2.079198175688988 9.300564181074266 1.3560441174589914 0 -1 -1
1382 1 7.002436779877247 7.631555648209718 2.0422369778838907 1 0 0
2041 1 9.039905704182175 6.425435781832457 0.22775906617131625 1 0 2
1455 1 11.395516528285288 7.631096122406131 0.8733584556290409 0 0 1
106 1 14.137104148690787 9.027361003488863 1.6676248764359274 0 1 1
310 1 16.75753993203355 8.923575135013326 3.1827307277954864 0 -1 0
614 1 20.90238181060935 8.044747838441037 2.1968780227197837 0 0 0
2722 1 23.387695667349966 7.4569898459069615 1.010188800619447 1 1 -1
642 1 25.063586948507545 8.908930689304393 3.1660601216515376 0 0 -1
1400 1 30.821360519913966 7.493234808771187 2.101812424192011 0 1 1
3633 1 28.248383028974402 8.336231681895212 1.3970974428679401 0 1 1
2894 1 35.2917013840317 6.788188555237608 2.0173931322683702 0 2 0
1629 1 39.20946607961079 8.358866980279025 2.346241171805075 -1 0 1
1666 1 41.573820904533584 7.0218941600583 2.210807280310948 -1 0 1
2626 1 45.75487229842841 6.678987089511798 0.5344843598816366 0 0 0
3402 1 48.21154542620597 8.70344961920258 2.7268966901891254 0 0 1
2213 1 3.6007610115813464 10.119860102175856 3.2631312539514536 1 1 -1
1743 1 6.291222195808741 10.224113296948124 2.1026780094010666 1 0 0
1358 1 8.728567436086369 11.219420971039478 0.755395756731599 0 0 0
2009 1 10.925430420599039 9.986172422843916 2.618647755188169 -1 1 1
1768 1 11.87830624468689 12.127012089476652 0.19992181746258567 0 0 1
3568 1 13.452608414037407 11.790902383723878 2.688269979275908 0 1 1
376 1 17.917175299645482 10.979071018951151 1.509718706984257 0 0 1
1767 1 20.644759315217524 10.533924834609746 1.3809653017679262 1 0 2
627 1 23.401514747317076 12.109905023088407 1.2687616843566796 0 0 0
1534 1 26.087690766107023 11.538809954417921 2.989552860048976 0 0 2
1963 1 27.663912995129362 11.116498053007144 0.8215646197497086 0 0 1
3578 1 32.07982241133074 9.813955231055921 1.4496139467318425 0 1 1
2099 1 35.79725559142988 11.015305290787207 3.275768507422593 0 -1 2
1788 1 34.650430962456866 9.671367737941098 1.2056903845639046 1 0 0
2361 1 38.592613237536426 10.892191426830975 2.6859774785511434 0 0 1
4094 1 43.42058927636286 10.508203328875064 0.9105006085857908 -1 0 1
1011 1 45.896435492025105 11.456092008571089 0.31841607064876004 0 0 0
3864 1 48.611546775585076 10.043379049051824 0.3814771717577311 -1 1 0
3778 1 4.087936654751802 13.348533730727091 2.4087333631612293 0 0 0
2925 1 7.099618943652007 14.014423772056377 1.9311646826877176 0 0 0
1632 1 10.679940076867563 15.288588288605661 0.41806959906595553 0 0 0
3184 1 10.889285132767156 15.135975145675399 3.196065445426637 0 0 1
3667 1 16.132073767848905 12.90529116855018 2.0356600554343918 0 0 0
2753 1 25.94607605787864 15.539208927733128 1.4862940278356773 1 0 0
2565 1 30.279520773735072 12.562379302192657 1.2922205451683524 -1 -1 1
1447 1 28.70102708652542 15.251230336951034 1.8470939783890166 1 0 0
3212 1 36.126178248062715 13.857807322035715 3.084570412572787 -2 0 0
2728 1 36.76598018038072 13.703881979660972 0.45764834220395506 -1 0 0
677 1 39.20704172896136 12.792758375009218 0.7771163710724351 0 0 1
4048 1 40.25364654977103 14.762495163415355 2.2706254670703063 0 1 1
3025 1 42.71823946201873 13.770616574775504 1.0635933958963921 -1 0 1
1029 1 45.280863690020276 15.56291924383666 1.2585701318038793 -1 0 0
404 1 46.83813829667095 12.99837212580142 2.7724780474907225 1 0 1
226 1 49.771484717597936 13.142658312130985 2.179715138921188 0 0 0
1466 1 49.086934576340376 15.38864826229365 0.40072532316643483 0 0 1
2924 1 2.334919797259747 18.735315027541215 0.1101805593531483 1 0 0
111 1 3.479372810187171 16.341849430883403 1.6106859308367591 0 0 1
829 1 6.213376325003706 16.526184078567713 0.7964827812601345 1 0 0
2568 1 7.650312551045793 18.61499605102074 2.0429333155608047 2 0 0
1764 1 14.418776088654111 17.04907541931941 0.05598680946809509 -1 0 2
1898 1 18.77138765072362 16.338061790943243 2.178232137836095 1 0 2
1983 1 21.42679584032143 15.984603928133492 2.161964543603694 1 0 2
2480 1 22.85893963148798 18.12386464105814 2.7432110758484476 -1 1 -1
2538 1 25.491923166851695 18.256227514215116 1.457822960016685 0 0 0
3584 1 30.3540449592913 18.076162240970493 0.9874805533811717 0 0 2
3817 1 32.47534884925679 17.891094867271654 2.986842579037521 -1 0 1
1313 1 33.41529259384452 15.819988670856658 1.6869354805226164 0 -1 1
1500 1 35.295636931740724 16.8359585266603 0.2046366282724179 0 -1 0
876 1 39.93839507371855 17.51179365845202 0.5551576034538112 0 -1 1
3838 1 43.968052128101185 17.914315342355074 -0.013559145179470988 0 1 0
936 1 48.32600110821108 18.079146904643185 1.326009725326992 0 -1 1
2964 1 0.39704677291354973 19.792385827268383 1.5108308211581063 2 1 0
1134 1 6.5684231482864845 21.14579301311509 1.6870031820257696 -1 0 0
3536 1 12.447305952537116 20.352069294722824 0.9139401728455565 0 0 0
512 1 9.359104469716684 19.78016050802335 0.3109803718043576 1 1 0
2912 1 13.367837392340974 18.780305180232475 3.2455146445670198 0 1 1
1977 1 15.085172995405959 21.59729047677791 0.36868456084270207 -1 0 1
1128 1 17.65856543205236 20.79247493442647 1.2530331597842155 0 1 1
2837 1 21.515409031391265 20.550457373442555 2.510600634419458 0 -1 0
4043 1 23.75761457318286 21.348229485359784 0.01086686355332489 0 1 0
1830 1 28.087161860346725 19.56692546905177 1.6331836571464249 0 0 1
1572 1 25.603048749293794 21.517073137525657 2.16131582628859 0 -1 1
278 1 33.98216832836517 20.042382941483833 2.7834469105377595 0 0 0
4002 1 36.35045288467423 18.99774703219444 1.750536700460945 0 1 1
1826 1 38.199761654217404 21.869996848356152 2.420609217207106 -1 1 -1
3511 1 42.8713149664519 19.714644871628263 1.8576132974156678 0 0 0
1697 1 41.665487350210164 21.84866917776256 0.512733899372955 0 0 1
175 1 1.8912538137812958 23.03515726459309 1.3927804803715658 1 1 0
948 1 8.487005989953708 22.799292792443907 1.01442022889166 2 1 1
1291 1 12.192287504464895 24.896130360431485 2.4577378863941446 1 -2 1
1363 1 10.889291086304235 22.397350488859512 2.27573949023154 -1 0 -1
1725 1 13.59319044954926 24.251494473368613 0.20200404200808075 0 0 2
3747 1 17.433121242728916 23.58810907238092 0.7460714291645687 0 1 0
875 1 20.05749531536783 24.993360250021656 0.653995284032191 1 0 1
2505 1 21.077189321700498 22.240699784481656 0.42472913303956233 1 1 -1
3709 1 23.313469754467654 24.753409908583933 0.49438802363128687 -1 0 1
1302 1 28.306101898066213 22.061829815091773 0.5062954078967565 0 0 1
1200 1 29.97867040629374 23.624048086186757 1.9168130970077681 1 -1 1
3046 1 34.15560238307622 23.838395554391013 0.6153045774288132 -1 0 1
1967 1 32.45473627257653 21.91948275470137 1.2294056880926465 1 1 1
4040 1 36.534004830983285 23.923880127811557 1.9253485420869372 0 1 1
137 1 40.10279874254847 24.31736115228846 1.151273682109742 0 0 0
154 1 45.2595686208879 22.623641454767284 2.7220832366668355 -1 1 0
2754 1 49.27981383292142 22.365422775490078 0.7523248643227612 -1 1 1
287 1 47.90860505489592 23.52061824196394 2.7313282803423276 0 0 0
12 1 2.3254266834571307 2.170286372522719 3.9870632250797584 0 -1 0
804 1 0.5575298807928886 2.629477005765218 6.286420369990287 1 0 1
3205 1 5.382757459936157 2.1486175406561054 5.434944047355395 -1 1 -1
3686 1 8.926423239996073 1.465235288020386 4.879318205306841 1 1 0
3471 1 12.31582399478476 1.6322493655519148 4.617731819046128 0 0 1
362 1 14.432230305480504 0.48889336777719405 6.04069953667578 1 0 0
451 1 16.363906599809614 2.1554202972832712 3.551336748607202 1 0 -1
2778 1 17.22344058274937 1.338876083815416 6.023176996984082 0 1 1
498 1 21.698647730792327 2.747240579626193 3.3834090420347547 1 0 1
3256 1 19.738081571675618 2.9828490501601457 5.487615503720353 -1 2 0
1005 1 24.61460018763931 3.044005371398845 3.396119119513723 0 1 0
3294 1 26.552369144835236 1.3746772773613158 5.984537388994554 1 0 0
1677 1 28.94361560809308 2.0068487930933587 4.659596551606334 1 -1 1
3575 1 33.72903832861932 0.9066554513545503 3.701419707289263 0 0 0
815 1 37.27830434816031 0.7510642319212847 6.2617188921997124 0 2 1
1988 1 34.53721719622314 0.00018658973930577721 6.353137149369777 -1 0 0
381 1 40.48203540959728 1.7713227322574228 5.2994632761992095 0 0 0
3613 1 43.38392881147536 0.6333097272141028 6.4050214631517814 -1 1 1
3210 1 47.266818582170785 0.3432047126442189 5.028627601899959 -1 0 -1
2324 1 0.47898450077672594 4.686948673358882 3.497463640738786 1 -1 0
1552 1 6.524246117302124 4.2965291757768584 3.453287051880405 2 0 1
274 1 8.980858772474354 4.229776365467338 6.114717810451194 0 1 1
2446 1 10.675954980272119 4.218160711978118 3.6693003100564363 0 1 1
4170 1 14.969407665308482 5.012241267928846 4.83072914635529 1 0 0
1160 1 18.20588883493547 5.313754438090133 6.245569457306749 1 0 0
2264 1 23.69000603302526 6.035786310300542 3.8496989985325105 0 1 0
3719 1 26.248937360865778 5.991833195742718 5.7375680303650824 1 1 0
3108 1 32.21098310980579 3.711460920067524 4.76504511244677 -1 0 2
1760 1 36.95055331815134 3.4728171788682536 4.838584211329636 0 1 0
1408 1 34.63569535439445 4.547139675974158 5.727451118888861 -1 0 0
3888 1 39.382336541960235 4.280574540573179 6.1535600092391185 0 1 1
1032 1 37.66850095690906 6.122752371344065 3.3909896549719565 0 0 -1
386 1 42.68344796329847 3.4215521859792526 4.992240268585347 -1 1 1
311 1 41.73702709145811 5.899521754802193 5.575201817063134 -1 1 0
1047 1 45.766469971811915 4.633011984392985 4.824753397198698 -1 1 -1
3101 1 48.16759178180375 3.3171283713001376 4.303014600391139 -1 0 2
1701 1 0.9751393527139112 6.480656971006725 5.545702446851608 1 1 1
4012 1 3.4779574861675178 7.391012387849774 4.189748091622946 1 1 0
967 1 5.32622724100352 6.40330767432757 5.9043459852961595 2 0 0
3972 1 7.753306605770975 6.604480076825388 4.720108877516572 2 1 1
2102 1 10.916532975925408 6.956311406622997 3.80995921768511 0 0 1
2831 1 13.672184986729503 7.45993415340942 3.9140189771686904 1 0 0
1609 1 13.914653947030756 8.664614699800408 6.473528632977908 0 0 1
2151 1 17.223420628789214 6.370745146670301 3.7324858541012698 0 0 0
3368 1 20.23725786620175 7.6725585517960075 5.156228982805001 -1 1 0
3276 1 22.677132761770633 6.856495082837896 6.192309507138809 0 0 -1
3484 1 28.060696296107217 9.26146661518017 4.257757150837691 1 1 -1
1922 1 30.212119417148845 7.76354895032065 4.963523942923664 0 -1 1
1482 1 32.45184459815002 9.348184778151335 5.376566221967901 0 0 0
973 1 34.49493396287906 7.173742867497363 4.635690533992132 1 0 0
3804 1 37.77607088204554 7.662422120000055 5.544271203957026 0 1 1
3381 1 40.2325857853091 8.66886360737371 6.394404210104709 0 0 1
1176 1 43.37536067184972 7.675810499633058 4.178755397010162 0 0 0
3334 1 45.9473482221123 7.10325848471665 3.5151922834287785 -1 1 1
1886 1 46.90749774386978 8.834041523391276 6.423674350950111 0 1 1
467 1 47.99621433858173 6.287916665766529 6.128583283714516 0 1 0
1371 1 3.5041890672794005 11.77662206214197 5.537617603783456 1 1 1
3449 1 6.266566172392426 11.77420409186121 4.389382688307696 -1 2 1
3887 1 7.488099944351944 9.628130706471039 5.889481042191793 1 1 1
585 1 10.97014252237783 12.289032179162252 5.542882100724977 0 0 1
1470 1 10.068529478436957 9.63110964743053 5.4273300079152245 1 0 1
3680 1 18.67125886287567 11.705944934372893 4.350124327137173 0 0 2
1070 1 16.47357342762673 10.352450293892035 5.3970039115960855 0 0 0
455 1 20.401648817936053 10.353280378616468 5.81302744595328 1 0 -1
1518 1 23.143401940858663 10.553774381744855 4.9379241059514625 1 0 0
146 1 29.236690825724175 11.801300045352463 4.536704711085524 0 0 -1
1410 1 31.854042556571226 11.658724173772013 3.6481930697749703 0 0 1
4060 1 35.84616985981453 9.675959601573988 5.650503286367815 0 1 1
3399 1 40.793500901184125 11.150901900364222 4.758656121124167 0 1 0
3788 1 43.23423685582046 10.486674376669757 3.6026991621870157 0 0 1
4078 1 45.46938516724116 11.207071356384484 4.762052427180745 1 0 1
285 1 48.6690584215446 11.098151843558375 4.51894607180411 0 -1 1
2340 1 1.2205360949004285 13.600123176782201 4.5821723161564885 0 -1 0
920 1 5.08200611062716 14.403141885611953 5.406219936924008 0 0 -1
2629 1 8.7611081403541 13.747413337136042 4.24006257159005 -1 0 -1
3508 1 12.97400701421824 13.717323266030593 4.375747244991825 1 0 1
3872 1 15.203483070584838 15.446067466437 6.2468120381862 1 1 1
255 1 17.43598202359062 14.468020886150505 4.013834647824707 1 -1 0
963 1 20.62437662914965 13.63007584060029 6.452641756307949 0 -1 0
3502 1 22.284889401869744 13.377206867978186 3.5358420201602714 2 0 1
769 1 24.84554167695741 12.732006214265937 5.707708525563387 0 1 2
1588 1 24.37525673655656 15.31867679136417 3.9405534154548416 1 0 0
382 1 27.54433651785525 13.837644394354482 4.113286291244534 1 0 0
3741 1 26.241894122071255 15.386150199403374 6.266559472396893 0 2 1
1349 1 30.692502063122905 15.3363103493964 4.617371214211684 -1 0 1
2030 1 33.37544869106835 14.197142966862392 4.0508143515675625 0 0 1
3398 1 38.266944381596666 12.86184169885566 5.411688116772569 1 0 1
2550 1 40.96388032432894 13.764374538585587 6.123697755266744 0 1 0
3490 1 43.189916260054865 14.475539004033044 3.892796554221156 0 1 1
3795 1 46.176711853958174 15.466453859291367 4.13836025982903 -1 1 1
3648 1 48.416597558427526 13.212298119540725 6.389824437357887 0 1 0
683 1 3.1045646678089085 15.668696175489496 4.41871452412566 1 0 1
1995 1 3.688667404971449 18.354067431125927 4.559310611667224 1 -1 1
3669 1 7.361974961566174 17.692572422145123 6.625663977117732 1 -1 0
652 1 10.844514859247498 17.406795943665216 4.218684607277049 1 0 -1
1954 1 15.275032772085247 16.835302309071743 3.369592985384261 1 0 2
1966 1 12.742659737472469 16.777699767449676 6.362187110756413 1 0 0
182 1 18.252580179714467 18.382992723795294 6.161262226254419 0 0 1
3657 1 19.69577894350888 16.18544637242832 5.162183375324041 0 0 1
3806 1 23.812411371730253 17.895467564727465 5.347975180229176 0 0 1
3427 1 27.955029800527942 17.7254451732891 6.083766717865378 0 0 -1
3047 1 30.776136950165952 18.189128952406953 5.19856516561956 0 0 0
3185 1 36.876227894024645 18.06101223291143 6.616260901174259 -1 0 0
810 1 38.27835694207106 15.712518169187174 3.9193370011545556 0 0 1
3907 1 39.73181055278526 16.39195051369859 6.154297896075266 0 -1 1
2170 1 38.024842703493775 18.508127906409538 3.7920567597865813 0 0 0
2973 1 42.3671234203553 16.79240003522507 5.057717945597355 1 0 1
1404 1 40.92375522163624 18.727523420141768 3.595464300146035 0 1 1
733 1 47.03976385502729 17.937567687418042 3.7520007546812084 0 0 1
3391 1 1.2933373779166375 19.858174936722605 4.172266346316905 -1 1 1
1030 1 1.0619943047117493 21.812385351878266 6.487811585782158 0 0 1
228 1 8.679382090476748 19.072766254395244 4.767862847336792 0 0 -1
3632 1 10.396166899603818 21.389459619110443 5.001644398880744 0 1 0
119 1 13.403451705713696 20.69857661366219 5.3525824305912115 0 0 0
3106 1 17.38606191590752 19.072858765056925 3.414118643820815 0 0 1
1842 1 16.125339169409102 21.496297590948085 4.728228380227892 0 -1 1
3884 1 19.58323179688424 20.987516021126414 4.4161492421541935 0 0 0
2001 1 24.04036325296994 20.577153852871678 6.525843833671603 0 1 1
4075 1 28.21253648062901 20.17904660949919 4.361840624358059 1 1 1
3443 1 34.97682098964267 20.460924323673176 5.157401316884995 1 0 1
188 1 37.80755753469075 21.15469511366885 5.140305372060537 -1 -1 1
3055 1 40.969079764184215 20.75750079770103 5.4198454057454875 -1 1 0
1309 1 45.16171427897792 19.893357384544544 3.631551309220934 1 0 1
2602 1 45.01431322392753 21.061884691190546 6.235537221088659 -1 1 0
361 1 49.0643908087254 19.201536374159357 5.558092979760872 0 0 0
3990 1 2.6321864055323685 22.59235750038127 3.9971971969965265 0 0 1
1541 1 5.463897671873692 21.97999158322596 4.264878156278999 0 0 1
2185 1 6.70291482735851 24.176127639361948 5.0331868541673765 1 1 -1
4141 1 9.16438558888777 23.164528152505852 6.5675714107737555 0 1 2
3357 1 16.309957084757123 24.084403481513135 3.3816146856290095 0 0 1
3583 1 19.21029260116881 23.925883003973222 3.5814781122799393 1 0 0
3413 1 21.714237131071272 24.378804982591426 5.437899417216484 1 1 1
965 1 23.40438693676663 22.16810403479832 4.004735148033651 0 -1 1
3063 1 26.451203469138807 23.219377092455474 4.467274860960073 1 0 0
3755 1 28.85875418099025 24.456767844059673 4.269846981912034 0 0 1
2607 1 30.44818194387079 22.119505699408563 4.654909172806552 1 0 0
3395 1 32.856104824298924 23.70541742533093 3.8312234272085335 0 1 1
851 1 35.79240267138328 23.655142736877735 4.550390204636082 0 0 0
3694 1 40.20207349296745 23.601992477799428 4.046475594256915 -1 1 2
2669 1 43.18292469139047 23.125282891523202 5.668328928047112 0 1 1
304 1 46.221846723825976 24.94003193107671 6.000212888835843 -1 0 1
3628 1 48.57442737886066 23.614823892068788 5.588903784707119 0 0 1
2308 1 2.7562565528727916 0.5851960406557221 9.679026851651072 1 1 0
3122 1 1.5105509049133374 0.3215826726155133 7.36081859876471 1 1 0
1844 1 7.178629150386247 0.8452100818792109 7.445773573043445 0 0 0
894 1 8.843368461709863 2.569386512028389 9.072414725976486 -1 0 0
2991 1 10.953390494298926 0.21610008467481195 8.18462846041687 -1 0 0
1548 1 11.3728706407357 2.815358048674284 7.14588374221628 -1 0 1
3302 1 13.925681069278122 1.5975029739902402 8.926958404781283 1 2 1
3295 1 17.012271078773058 0.4135663306477742 9.510357603947071 0 1 0
1210 1 16.43069766402624 3.067971566325692 8.227365242820138 0 0 1
665 1 21.097351813621 1.562301824752636 7.443018124185642 0 1 -1
1921 1 23.41676116368115 2.78971719722673 8.482033908205482 0 0 0
2501 1 30.65160047084491 0.36244912356943954 8.225613199829239 0 1 1
2339 1 33.341214932493486 2.237364065525043 7.97444251009232 -1 1 0
3868 1 36.91371854842883 1.8065047292824483 8.751647810443849 1 1 0
2251 1 41.291323914115985 1.4597077789190172 9.902210319009695 0 0 0
2903 1 45.09836803687341 1.9208943646977281 8.141258964874078 -1 1 0
4039 1 47.718028077420556 2.034111788036463 7.410731244705974 -2 1 0
1389 1 48.69913448391339 1.332908975176518 9.769778940242972 -1 0 1
2256 1 2.037605071667886 4.696159590583193 7.2758896826928225 0 2 -1
690 1 0.22477211347123927 4.60468026428678 9.426034176840936 0 0 -1
3978 1 4.769543396104082 4.119061661485483 7.447534073285869 1 1 0
3779 1 6.370675528059657 3.7435562235446507 9.8941463893466 1 1 0
3130 1 9.337879750321523 5.960795593977582 8.376467374388918 0 1 -1
3303 1 11.579370463705065 4.644112526573059 9.704291180236178 1 0 1
1737 1 14.05361809545392 4.360638774548663 7.282285226659906 1 0 1
825 1 17.75123400391409 5.407719997121651 9.532494273912691 0 1 0
4171 1 22.33675449954221 5.270418313895542 8.901490302252546 0 1 0
2512 1 25.841651530028596 3.673675030669989 7.268081722176271 1 0 0
1817 1 27.50065037597177 4.517108612106769 9.479346252287588 -1 0 1
437 1 29.088577344104866 5.801144408335367 6.691416680855699 -1 0 0
3052 1 30.257659794394144 3.1218456782676287 6.812703661960523 0 1 -1
3476 1 35.40771337779192 4.2617894236503915 8.41473490396851 1 1 1
1350 1 37.91350231272542 5.935763896007695 7.870110890560237 0 -1 1
2076 1 39.500696376286065 3.3656956009615024 9.332544651239232 -1 1 0
2098 1 40.777560539828336 5.744306441012928 9.972674092868814 0 -1 0
2311 1 44.60987352319501 4.662932227585723 7.591624970213102 -1 1 0
560 1 47.55854175524735 4.80763204395317 8.34927391583498 0 -1 -1
306 1 1.2501819074530207 8.39565500176961 7.962038948651259 1 1 0
740 1 5.695942416080274 8.433653235671375 7.804252609702471 1 1 1
3377 1 6.792706874799598 6.6803847335530255 9.714580661101412 0 0 0
2132 1 10.674826836444339 8.150566663133105 7.682386592144872 0 0 1
410 1 13.123047625431541 6.78938003017676 8.684737238340276 1 1 1
889 1 18.603103490113636 7.699335959191084 7.744775857872851 -1 -2 0
979 1 16.335271953875544 9.162957946374215 8.313855096061545 1 0 0
1991 1 24.189161440045158 8.969572290460652 6.944319499628906 0 -1 1
2872 1 27.022582212758966 8.729104282779105 6.641584313097515 0 1 0
2103 1 28.632223821361393 7.605625134710785 8.635173029250087 -2 0 1
1337 1 42.24938945730488 6.859296951062861 8.01602478603788 1 0 0
2445 1 45.02978905001279 7.723969373712991 8.437116183267838 0 1 1
3297 1 48.69631991690331 9.168649472106685 8.916509434510997 0 0 0
835 1 3.546561921568888 10.163390675448523 8.090492705229916 0 0 0
441 1 9.224737266479636 11.722652921853951 9.664837714040281 0 1 1
2452 1 6.837559793955793 11.611582570187446 8.043345350161681 0 0 0
2795 1 12.85470102382085 11.002268742906951 7.715430386246491 1 -1 -1
2128 1 17.38307071049084 11.643143144033408 8.979284580957401 1 0 0
1906 1 19.9770041123888 11.133904495061376 8.538641588265696 1 -1 2
2072 1 22.5280166784125 12.28609506423662 9.684232797189264 0 0 1
1590 1 23.214197730165896 9.529172964436048 9.36616405570999 0 1 1
2064 1 26.738809705127913 11.439816238475359 7.704690971708405 1 -1 0
4102 1 30.670854498372112 9.506343850516823 9.727843748565196 0 1 1
2784 1 29.391074905268926 11.611301360480045 7.273239140763994 0 1 0
3797 1 32.67389851106893 10.790893815384626 7.944219650504849 -1 0 1
960 1 37.39086714747112 11.277449046158146 7.415394569708095 1 0 1
3937 1 39.22443424771392 9.768117045849188 8.796090388456525 -1 0 0
571 1 44.809358678277455 12.416450939293853 7.452559777695847 -1 -1 0
1285 1 43.8667049207769 9.60128968394529 9.916890091118725 0 0 1
2869 1 47.8846709631314 11.739108810418486 8.582792585809399 -1 1 0
1048 1 0.6578269725810497 14.702106055248217 7.232716612551038 -1 -1 0
678 1 1.746516438401276 13.748695494622455 9.357859840224439 1 -2 0
3472 1 4.634561889471988 13.331797076785477 8.047426717805047 1 0 0
2762 1 7.600850881522132 15.059369175906388 6.664951134510367 0 0 -1
2611 1 7.122126516868406 14.619626882264322 9.585614943718188 1 1 -1
772 1 9.621979201716377 13.417877073849887 7.620078724780331 0 0 -1
1700 1 11.802023314421414 14.952243920108607 8.464495273356974 -1 0 0
2659 1 14.260865481740261 13.648983030095025 8.074795716510302 0 1 0
4122 1 17.738208832341137 13.366920386525527 6.932555488586365 0 0 -1
949 1 23.265556392959844 14.13147535982017 7.678041933125099 0 1 1
2012 1 25.947567010049177 15.100600971791327 9.126694931606815 0 0 1
1243 1 29.15201639608606 14.605570748595133 6.92604212657945 -1 -1 0
3968 1 33.19528252975572 15.445201431414032 6.88286370687464 0 0 1
300 1 31.68288899498087 13.4561981109243 8.092777732956218 0 -1 0
787 1 35.91112908051335 15.471776799804571 7.564005623872042 1 -1 1
3176 1 37.77003273797777 13.863700841018673 8.869319350551404 0 0 1
3286 1 42.44532579067693 12.975714850721646 8.279480937520388 -2 1 1
3917 1 42.28495662908351 15.522766434197738 9.37713137966987 0 0 1
3474 1 45.87896366651166 14.870668379247832 6.916103662044083 -1 0 1
3012 1 1.9374287642454542 16.75182734631655 9.616807794098403 1 1 0
2608 1 4.691075059359531 18.636805179561375 7.112301258784695 0 0 0
1801 1 4.757662794101364 16.224888896688125 9.209965552263373 0 0 1
1053 1 9.090962083724328 18.718219998657116 8.658529338604348 -1 0 0
1582 1 16.23799819696306 17.733153488200884 8.0839869606993 -1 0 1
1899 1 21.8047636933242 16.871352109544574 7.082223499376051 1 0 2
1985 1 28.127810631477626 16.629805657585443 9.016107017772663 -1 0 0
1716 1 31.823736141322687 17.814135977124266 7.621301762729621 0 1 1
1398 1 38.58532497133881 18.55953319813128 8.624120305130264 0 0 1
884 1 39.66395398974198 15.77118157968692 9.243424216787723 1 0 -1
861 1 43.647263007159104 17.075184200105706 7.520658519057341 0 -1 1
3999 1 47.79154498933581 15.668450565479938 9.067637430628986 0 0 0
2318 1 49.7998409991952 17.361158292643022 7.882365878357926 1 1 1
369 1 2.5937681388663267 20.932049647395317 8.760701812026708 0 0 0
460 1 5.605511089879444 21.381101655782878 7.203015133492419 1 0 -1
2358 1 8.160469608136216 21.3642634345342 8.50259417878031 0 0 0
2430 1 11.67963961892573 20.052079211661837 9.267430642255363 2 1 0
3652 1 13.579846576472253 18.979230744436506 7.807409439895985 0 0 0
1282 1 17.769732993752278 21.37709267002905 6.951670763625481 0 -1 0
3987 1 17.407566169847026 19.98373231224072 9.42198995894144 1 0 0
3275 1 20.320200743971867 19.148590755279248 8.092302584726422 0 -1 1
302 1 20.867882519425528 21.812806796652524 6.92217334900426 0 0 0
1997 1 24.18539711762083 19.499044186448145 9.218291224726611 0 0 1
2560 1 26.800146309049182 20.789308258404 6.950389716847294 -1 0 -1
1869 1 26.957634690543543 19.327826077957788 9.451994304560005 0 0 0
2302 1 30.757340866391004 20.80518324903307 9.665918848917594 -1 1 0
68 1 34.26523042112896 18.96283415000767 7.793964587278419 -1 0 1
3530 1 32.30410635566927 21.36531754808962 6.874084118108136 0 0 1
1355 1 39.83609425048461 20.94263662022501 7.915067108242516 0 0 1
281 1 43.87832902125481 19.6004492036506 8.233303397362425 0 0 0
929 1 47.81007587190787 21.269311601713422 6.77013398961663 0 1 1
2546 1 48.52412165842855 21.618852624027753 9.64716628940683 -1 0 -1
2796 1 1.9154014182749464 24.468306729098565 7.904897778746431 2 0 0
3479 1 4.385687636121819 23.44881086497165 8.568874977821476 0 1 0
908 1 11.81951661656784 22.639714670057707 8.083252041334081 0 0 0
1855 1 14.719965032326927 22.875164142642376 7.065677491660258 0 -1 1
1430 1 17.74605066366309 24.53530177207714 7.213958258167423 1 0 0
2043 1 15.67069643190801 21.914674635628554 9.73807699463074 0 0 2
1895 1 17.441907529269358 23.971370228009775 9.946885965370805 1 0 0
2819 1 23.38991283426202 24.975555150056696 7.91927310955511 0 0 0
2130 1 21.895915388501557 23.42092148281771 9.594552759040678 1 1 1
1652 1 27.6453746593505 24.1211811420183 8.9706249930667 1 0 1
553 1 25.521993270953697 23.365253907569496 7.372652377293535 1 1 0
3103 1 29.255387427346452 22.218236090045426 7.731754134807534 -1 0 1
3155 1 30.37449644542309 24.629414879220132 6.9123559081365284 0 1 0
2739 1 33.05981248042401 24.57960701736912 8.364466028244049 -1 -1 0
2516 1 34.73739950779898 22.490312300015855 7.8200647843134545 0 0 -1
117 1 37.89687807413437 23.012911908503412 7.533429837450564 -1 0 0
2663 1 42.26744527338372 21.874822335359607 8.980075733028489 0 1 0
2783 1 42.37314333895693 24.995217414196013 8.309129122063085 -1 1 -1
263 1 45.69704394091663 22.36416760716398 9.804603107247718 0 1 1
1889 1 45.20682685184949 24.92177170577205 8.453065942025551 -1 -1 0
680 1 0.9119626569114232 2.6300534243467584 11.065342158845649 1 0 1
3243 1 5.387700282091591 1.1801015143890559 10.797296166167584 0 1 0
3828 1 12.300416491929223 1.8209366531346511 13.083079905501105 0 0 1
2717 1 9.704787530652624 0.9717754873874809 11.284132428048963 -1 1 1
2028 1 15.875282023059372 1.8786038613444849 11.626869126644456 1 0 1
335 1 21.282531437136935 0.2637014561626913 11.169080405176565 1 0 0
2217 1 20.738847537643668 2.694062081654685 12.54692155691287 1 0 0
997 1 24.118257925022665 1.162284366389487 10.926608966130656 0 0 0
1169 1 23.816527306534493 2.770006747951522 13.242512528163084 0 1 1
1115 1 26.542474122589002 2.4004787382717883 11.46193523129912 0 -1 -1
4004 1 30.57658980251243 2.2033703277540577 11.146114153743671 0 0 -1
1078 1 28.303367667413234 0.3797735938494683 10.61358311996085 0 0 0
3177 1 33.103030507046206 1.8760462079830609 10.743500353889466 -1 1 1
2172 1 44.028022825841006 1.9730294770391494 10.858208978336574 0 1 0
128 1 47.03832669357157 2.2679590550934097 11.775054611977058 0 0 0
1996 1 4.080971451847706 4.229948441898637 12.308624094898843 0 0 0
1714 1 9.257338053591774 5.4871661790961745 11.664020905092741 1 0 1
2895 1 6.808071787586863 3.9322286007892346 13.05222702778983 0 0 1
776 1 15.358152716304076 5.792450868316753 11.424797239288896 -1 0 0
160 1 13.519177932817348 3.4088431377747956 11.218256618999032 0 0 0