
# Create simulation box of size 50 x 50 x 50 Angstrom
#
lattice	            sc 1
Lattice spacing in x,y,z = 1.0000000 1.0000000 1.0000000
region 	            all block 0 50 0 50 0 50 units box
create_box          1 all
Created orthogonal box = (0.0000000 0.0000000 0.0000000) to (50.000000 50.000000 50.000000)
  1 by 2 by 3 MPI processor grid

# fill box with 4175 randomly distributed atoms
#
create_atoms        1 random 4175 63782 all
Created 4175 atoms
  create_atoms CPU = 0.001 seconds
mass                1 18.015

# Define potential
#
pair_style          sw
pair_coeff          * * ML_mW.sw mW
Reading sw potential file ML_mW.sw with DATE: 2019-02-27

# Run minimization
#
minimize            1.0e-8 1.0e-8 10000 1000
WARNING: Using 'neigh_modify every 1 delay 0 check yes' setting during minimization (../min.cpp:187)
Neighbor list info ...
  update every 1 steps, delay 0 steps, check yes
  max neighbors/atom: 2000, page size: 100000
  master list distance cutoff = 6.0032907
  ghost atom cutoff = 6.0032907
  binsize = 3.0016454, bins = 17 17 17
  1 neighbor lists, perpetual/occasional/extra = 1 0 0
  (1) pair sw, perpetual
      attributes: full, newton on
      pair build: full/bin/atomonly
      stencil: full/bin/3d
      bin: standard
Per MPI rank memory allocation (min/avg/max) = 4.255 | 4.258 | 4.261 Mbytes
Step Temp E_pair E_mol TotEng Press 
       0            0    7792709.3            0    7792709.3    5898794.3 
     630            0   -45180.336            0   -45180.336   -154.07449 
Loop time of 1.17592 on 6 procs for 630 steps with 4175 atoms

98.1% CPU use with 6 MPI tasks x no OpenMP threads

Minimization stats:
  Stopping criterion = max force evaluations
  Energy initial, next-to-last, final = 
      7792709.32924461  -45180.0188663597   -45180.336116598
  Force two-norm initial, final = 2.0191930e+08 4.9721331
  Force max component initial, final = 1.0948746e+08 0.73126211
  Final line search alpha, max atom move = 0.053306038 0.038980685
  Iterations, force evaluations = 630 1000

MPI task timing breakdown:
Section |  min time  |  avg time  |  max time  |%varavg| %total
---------------------------------------------------------------
Pair    | 0.8984     | 1.0001     | 1.0712     |   6.5 | 85.05
Neigh   | 0.024065   | 0.025158   | 0.02623    |   0.6 |  2.14
Comm    | 0.058384   | 0.12946    | 0.23197    |  18.4 | 11.01
Output  | 0          | 0          | 0          |   0.0 |  0.00
Modify  | 0          | 0          | 0          |   0.0 |  0.00
Other   |            | 0.02115    |            |       |  1.80

Nlocal:        695.833 ave         704 max         685 min
Histogram: 1 1 0 0 1 0 0 1 0 2
Nghost:        1494.17 ave        1515 max        1468 min
Histogram: 1 1 0 0 0 0 1 1 1 1
Neighs:        0.00000 ave           0 max           0 min
Histogram: 6 0 0 0 0 0 0 0 0 0
FullNghs:      19997.0 ave       20462 max       19320 min
Histogram: 1 1 0 0 0 0 0 2 0 2

Total # of neighbors = 119982
Ave neighs/atom = 28.738204
Neighbor list builds = 26
Dangerous builds = 0

# Add velocity/set timestep
#
velocity            all create ${TEMP} 120598 rot yes dist gaussian
velocity            all create 230 120598 rot yes dist gaussian
timestep            5.0

# Define output
#
compute	            1 all msd
thermo	            100
thermo_style        custom step temp press vol etotal ke pe c_1[4] density

# Neighbor lists
#
neigh_modify        delay 0 every 1 check yes

# Set fixes
#
fix                 1 all momentum 10 linear 1 1 1 rescale
fix                 2 all nve
fix                 3 all temp/csvr ${TEMP} ${TEMP} 500.0 928347
fix                 3 all temp/csvr 230 ${TEMP} 500.0 928347
fix                 3 all temp/csvr 230 230 500.0 928347
fix                 4 all press/berendsen iso ${PRES} ${PRES} 1000.0 modulus 20000
fix                 4 all press/berendsen iso 200 ${PRES} 1000.0 modulus 20000
fix                 4 all press/berendsen iso 200 200 1000.0 modulus 20000

# Run 0.5 ns equilibration
#
dump                1 all custom 1000 eq.${NAME}.dump id type x y z vx vy vz
dump                1 all custom 1000 eq.liquid_density_MLmW.dump id type x y z vx vy vz
run                 100000
Per MPI rank memory allocation (min/avg/max) = 3.506 | 3.508 | 3.511 Mbytes
Step Temp Press Volume TotEng KinEng PotEng c_1[4] Density 
     630          230    892.42114       125000   -42318.699    2861.6373   -45180.336 2.7295415e-33   0.99914793 
     700    146.21348    106.91979    125317.54   -41439.424    1819.1737   -43258.597   0.27436153   0.99661624 
     800     180.3633   -90.077562    125073.46   -40639.094    2244.0624   -42883.156   0.65447317   0.99856111 
     900    199.26655    184.29817    124724.84   -40189.945    2479.2547   -42669.199    1.1152248    1.0013522 
    1000    211.94116    138.67438    124699.35   -39894.216     2636.951   -42531.167    1.6122175    1.0015569 
    1100    223.74044    355.81295    124732.63   -39682.652    2783.7564   -42466.409    2.0410361    1.0012896 
    1200    220.19299    355.19236     124816.1   -39709.326    2739.6194   -42448.946    2.5369588    1.0006201 
    1300    224.49344    152.40023    124767.72   -39679.624    2793.1251    -42472.75    3.0092679    1.0010081 
    1400    221.67452    242.23993    124874.42   -39708.261    2758.0525   -42466.314    3.4148012    1.0001527 
    1500    226.62403    287.17453    125194.78   -39657.384    2819.6338   -42477.017    3.8843479   0.99759343 
    1600    231.75538    435.12244    125139.61   -39549.144    2883.4775   -42432.622    4.3787197   0.99803322 
    1700    229.22146    146.22095    125281.77   -39575.704    2851.9508   -42427.654    4.8789853   0.99690079 
    1800    219.97567    128.19494    125100.07   -39633.967    2736.9155   -42370.882    5.3333103    0.9983487 
    1900    227.06565    111.94689    125221.74   -39601.604    2825.1284   -42426.733     5.810277   0.99737864 
    2000    231.61579    381.93783    125606.36   -39560.815    2881.7408   -42442.556    6.2821042   0.99432461 
    2100    230.63253    270.37011    125445.41    -39530.58    2869.5072   -42400.088    6.6770202   0.99560029 
    2200    227.63234    320.36153     125580.9   -39562.115    2832.1791   -42394.294    7.1397498   0.99452615 
    2300    230.39323    161.73906    125480.34   -39535.735    2866.5298   -42402.265    7.5738558   0.99532318 
    2400    229.09457    101.26626    125588.52   -39530.687     2850.372   -42381.059    8.0498306   0.99446585 
    2500    234.06327    156.69788    125383.77   -39488.922    2912.1921   -42401.114    8.4332352   0.99608981 
    2600      230.188     195.5152    125370.79    -39416.26    2863.9763   -42280.236    8.7784009   0.99619288 
    2700    232.75841     63.56013    125304.54   -39423.143    2895.9572     -42319.1    9.1900005   0.99671963 
    2800    233.46365    236.02258    125241.95   -39403.023    2904.7317   -42307.755    9.6605289   0.99721773 
    2900    233.49999    268.05701    125306.12    -39477.22    2905.1838   -42382.403    10.326063   0.99670705 
    3000    227.65261    74.998851    125235.98   -39521.964    2832.4313   -42354.395    10.771852   0.99726529 
    3100    228.70897    23.935887    125298.24   -39495.434    2845.5744   -42341.009    11.290524   0.99676972 
    3200    229.83458    231.24779    125029.26   -39557.125    2859.5791   -42416.704    11.715411   0.99891411 
    3300    233.77738    193.64875    125241.75   -39524.977    2908.6351   -42433.612     12.07683    0.9972193 
    3400    231.56112    192.00465    125317.58   -39574.085    2881.0606   -42455.145    12.511735   0.99661592 
    3500    228.10141    248.26085    125187.69   -39618.535    2838.0151    -42456.55    13.025484   0.99764995 
    3600    226.41258    164.92788    125345.84   -39657.358    2817.0029   -42474.361    13.515509   0.99639121 
    3700    221.18272    96.142061    125302.86   -39727.203    2751.9335   -42479.137    14.033606   0.99673299 
    3800    227.03111     133.9023    125403.54   -39662.448    2824.6986   -42487.147    14.495849   0.99593272 
    3900    228.06863    140.44669    125561.65   -39706.802    2837.6074    -42544.41    14.805286   0.99467861 
    4000    227.92037    193.63607    125451.01    -39700.15    2835.7627   -42535.913    15.152333   0.99555589 
    4100    232.20412    100.02178    125372.05   -39693.943    2889.0608   -42583.003    15.455904    0.9961829 
    4200    226.69636    111.49124    125350.95   -39699.853    2820.5336   -42520.387    15.854069   0.99635057 
    4300    230.96791    184.29172     125467.2   -39706.389    2873.6799   -42580.069    16.078132   0.99542744 
    4400    230.36511    293.93166    125366.02   -39698.043    2866.1799   -42564.223    16.675425   0.99623084 
    4500    228.93544    355.89834    125542.83   -39700.858    2848.3922   -42549.251    16.869767   0.99482773 
    4600    224.56757    239.84578    125722.33   -39751.958    2794.0476   -42546.005    17.397581   0.99340739 
    4700    230.49206    112.87304    125691.89   -39666.515    2867.7594   -42534.275     17.94006   0.99364796 
    4800    226.45941    151.70549    125621.83   -39732.663    2817.5856   -42550.248    18.415644   0.99420214 
    4900    228.37366    292.80572    125672.47   -39604.229    2841.4025   -42445.631     18.77411   0.99380155 
    5000    229.18325    153.49308    125580.72   -39545.111    2851.4753   -42396.586    19.125721   0.99452759 
    5100    232.97646    281.75145    125740.29   -39602.948    2898.6701   -42501.618    19.591227   0.99326549 
    5200    231.91944     221.3947    125721.36   -39669.738    2885.5187   -42555.257    19.920122   0.99341503 
    5300    232.20333    198.40264    125748.27   -39632.011    2889.0509   -42521.062    20.059084   0.99320248 
    5400    229.66487    307.95716    125760.55   -39661.918    2857.4676   -42519.385    20.344373   0.99310547 
    5500    229.68291    190.99494     125770.2   -39655.154     2857.692   -42512.846     20.50043   0.99302926 
    5600    230.19729    189.84855     125832.9   -39659.814    2864.0919   -42523.906    20.869088   0.99253446 
    5700    228.69936    251.72931    125862.83   -39650.514    2845.4549   -42495.969      21.0721   0.99229847 
    5800    230.30888      58.0986    125867.78   -39683.031    2865.4804   -42548.511    21.529764   0.99225941 
    5900    228.13684    118.80644    125879.04   -39717.622     2838.456   -42556.078    22.043574   0.99217064 
    6000    225.66059    31.120563    125763.39     -39717.3    2807.6468   -42524.947    22.287114   0.99308305 
    6100    231.18554    133.28628    125772.43   -39651.727    2876.3877   -42528.115    22.874787   0.99301167 
    6200    224.58898    61.026131     125749.2     -39709.9    2794.3139   -42504.214    23.211732   0.99319511 
    6300     228.7334    69.373932    125426.26   -39662.662    2845.8783    -42508.54    23.613463   0.99575234 
    6400    226.52832    322.27543    125500.87   -39632.917    2818.4429    -42451.36    24.072967   0.99516035 
    6500    228.31566     106.5875    125612.61   -39558.199    2840.6808    -42398.88    24.400405   0.99427513 
    6600     227.7497    305.46731    125664.37   -39612.411    2833.6393    -42446.05    24.644951    0.9938656 
    6700    223.11322    135.70608    125551.83   -39668.659    2775.9526   -42444.611     25.03966   0.99475647 
    6800     229.1845    312.06349    125487.82   -39587.671    2851.4909   -42439.162    25.157804   0.99526383 
    6900    233.95219    226.55428    125428.43   -39527.192    2910.8101   -42438.002     25.39483    0.9957351 
    7000    231.95221    200.21958    125204.71   -39528.414    2885.9264    -42414.34    25.994136   0.99751433 
    7100    231.39307   -15.324298     124991.4   -39569.977    2878.9697   -42448.947    26.350923   0.99921671 
    7200    222.67385    206.38732    124777.62    -39624.51    2770.4861   -42394.996    26.885681    1.0009286 
    7300    227.47424    185.67875    124794.26    -39663.58     2830.212   -42493.792    27.215183    1.0007952 
    7400    226.91248    407.83069    124896.56    -39691.23    2823.2226   -42514.453    27.719264   0.99997544 
    7500    230.00434    235.91538    125100.87   -39659.897    2861.6912   -42521.588     28.08568   0.99834233 
    7600    224.80173     52.12774    125239.31   -39753.005     2796.961   -42549.966    28.502146    0.9972387 
    7700    232.14228    151.64236    125245.63   -39653.797    2888.2913   -42542.088    29.062109   0.99718845 
    7800    232.08429    262.89401    125169.06   -39626.661    2887.5698   -42514.231    29.417624   0.99779841 
    7900    227.27614    344.64433    125357.97   -39696.646    2827.7473   -42524.393    29.992548   0.99629474 
    8000    230.76884    362.29521    125367.42   -39655.959    2871.2031   -42527.162    30.476761   0.99621971 
    8100    224.28293    259.34031    125386.82   -39732.387     2790.506   -42522.893    31.017843   0.99606556 
    8200    223.51688    130.89482    125484.31   -39760.989    2780.9749   -42541.963    31.402708   0.99529165 
    8300    227.68199    410.56007    125615.13   -39749.405    2832.7968   -42582.202    31.888815   0.99425514 
    8400    227.58372     235.4622    125914.83   -39731.572    2831.5741   -42563.146    32.214825   0.99188867 
    8500    234.33515    57.660378    125989.75   -39681.573    2915.5748   -42597.148    32.651301   0.99129884 
    8600    233.58246    380.77777    126102.33   -39721.464    2906.2098   -42627.674    32.929321    0.9904138 
    8700    230.99019    325.32522    126161.71   -39723.819    2873.9572   -42597.776    33.167211   0.98994769 
    8800    227.50803    180.14434     126143.8   -39767.601    2830.6324   -42598.234    33.587617   0.99008824 
    8900    226.79285    149.86646    126168.18   -39860.962    2821.7342   -42682.696    33.847021   0.98989688 
    9000    228.36841    130.78061    126239.66   -39811.705    2841.3372   -42653.042    34.250282   0.98933637 
    9100    228.10828     141.7762    125942.79   -39866.214    2838.1006   -42704.315    34.486496   0.99166846 
    9200    226.10885    402.26878    125839.07   -39773.434    2813.2239   -42586.658    34.679467    0.9924858 
    9300    225.11386    195.55128    125969.84   -39833.201    2800.8444   -42634.045    35.335062   0.99145548 
    9400    225.74638    152.07534    126143.64   -39797.846    2808.7142    -42606.56    35.695855   0.99008949 
    9500    230.37763     117.9417    126253.11   -39819.855    2866.3357   -42686.191    36.031844     0.989231 
    9600    230.43962    175.90436    126313.59   -39784.399    2867.1069   -42651.506    36.274535   0.98875738 
    9700    228.30637    429.66432    126449.57   -39711.727    2840.5653   -42552.292    36.566224    0.9876941 
    9800    230.95855    254.63385    126809.99   -39783.634    2873.5634   -42657.198    36.959943   0.98488683 
    9900    222.54646    100.66899    126706.83   -39852.787    2768.9011   -42621.688    37.296121   0.98568867 
   10000    227.02811    193.32844    126713.79   -39848.517    2824.6613   -42673.178    37.578062   0.98563458 
   10100    222.11387    193.09812    126560.38   -39809.878    2763.5188   -42573.397    37.718039   0.98682929 
   10200    224.33552    201.53107    126421.16   -39850.732    2791.1603   -42641.892    37.902056   0.98791602 
   10300     228.6668    244.91318    126446.26   -39840.258    2845.0497   -42685.308    38.370479    0.9877199 
   10400    233.61072    221.95921    126560.09   -39784.677    2906.5614   -42691.238     38.71429   0.98683159 
   10500    229.80048    99.627461    126146.33   -39791.982    2859.1549   -42651.136    39.011235   0.99006836 
   10600    230.27397    213.16199     126307.8    -39721.08     2865.046   -42586.126    39.453234   0.98880269 
   10700    227.34959    271.48322    126406.24   -39697.199    2828.6612    -42525.86    39.882519   0.98803266 
   10800    235.57582     187.7071    126398.73   -39661.664     2931.011   -42592.675    40.171317   0.98809135 
   10900    231.75399    198.08882    126253.46   -39688.447    2883.4603   -42571.907    40.643292   0.98922824 
   11000    234.42651    449.77743    126414.03   -39676.212    2916.7115   -42592.923    40.883849   0.98797172 
   11100    227.95875    157.48418    126432.89   -39739.712    2836.2403   -42575.953     41.34722   0.98782434 
   11200    230.68912    207.38135    126431.77   -39737.409    2870.2112    -42607.62    41.764127   0.98783311 
   11300    229.87072    68.007106    126342.58    -39752.72    2860.0287   -42612.748    42.451257   0.98853047 
   11400    229.72569     181.8702    126119.89   -39762.317    2858.2243   -42620.542    42.860818   0.99027597 
   11500    232.67985    220.95663    126227.86    -39790.87    2894.9797   -42685.849    43.342345   0.98942892 
   11600    228.15985    290.50916    126124.59   -39791.589    2838.7422   -42630.331     43.34683   0.99023905 
   11700    231.56326    164.45112    126183.94   -39689.143    2881.0872    -42570.23    43.629843    0.9897733 
   11800     231.1682    169.02195    126347.56    -39759.82    2876.1719   -42635.992    43.904948   0.98849151 
   11900    227.86388    128.20197    126511.45   -39774.515    2835.0599   -42609.575    44.401755   0.98721097 
   12000    229.87418    260.13429    126478.26   -39758.539    2860.0718   -42618.611    44.727461   0.98747002 
   12100    231.28475    120.77087    126429.94   -39717.368     2877.622    -42594.99    44.818467   0.98784743 
   12200    234.25383    220.60183    126463.29   -39723.646     2914.563   -42638.209     45.24021   0.98758696 
   12300     229.0874    160.25092    126500.49   -39751.341    2850.2828   -42601.623    45.592334   0.98729651 
   12400    233.41864    25.297839    126415.99   -39736.916    2904.1717   -42641.087    45.944394    0.9879564 
   12500    226.07099      48.5044    126459.51   -39827.157    2812.7529   -42639.909    46.177753   0.98761645 
   12600    231.86702     231.7233    126350.96   -39736.492    2884.8665   -42621.359    46.681786   0.98846492 
   12700    234.10202    120.41254    126347.73   -39713.978    2912.6742   -42626.652    46.860205   0.98849021 
   12800    232.97666    193.59526    126328.08   -39673.058    2898.6725   -42571.731     47.30724   0.98864391 
   12900    229.48167    362.29519     126004.4     -39717.5    2855.1883   -42572.688    47.523154   0.99118361 
   13000    234.02598    224.65071    126047.17   -39652.474    2911.7281   -42564.202    48.077645   0.99084721 
   13100    233.21625    348.15569    126263.53   -39658.229    2901.6536   -42559.882    48.359675   0.98914935 
   13200    235.27164    143.99947    126139.54   -39573.815    2927.2265   -42501.041    48.686934   0.99012168 
   13300    229.10628    101.59441    126060.88   -39615.837    2850.5177   -42466.354    49.063774   0.99073952 
   13400    226.95776     65.31138    126037.81   -39671.321     2823.786   -42495.107    49.431966    0.9909208 
   13500    232.60944    146.68769    126052.28   -39709.763    2894.1037   -42603.866    49.756498   0.99080707 
   13600    231.50436    212.41965    125778.48    -39746.37    2880.3544   -42626.724     50.04586   0.99296392 
   13700    232.60238    202.41331    125951.66    -39763.91    2894.0158   -42657.926    50.463781   0.99159858 
   13800    232.85059    116.28857    125871.62   -39684.231     2897.104   -42581.335    50.853839   0.99222914 
   13900    227.45201    79.563067    125647.83   -39725.689    2829.9354   -42555.625    51.134089   0.99399639 
   14000    232.50684    94.000072    125742.12   -39708.867    2892.8271   -42601.695    51.621081   0.99325107 
   14100    228.66643    307.36359    126115.09   -39713.414    2845.0451   -42558.459    51.883904   0.99031358 
   14200    228.79275    243.83539    126422.93   -39744.276    2846.6168   -42590.893    51.999593   0.98790223 
   14300    231.70247    285.44327    126349.75   -39801.303    2882.8193   -42684.122    52.363222   0.98847436 
   14400    229.60508    197.29962    126326.93   -39783.668    2856.7237   -42640.392      52.8776   0.98865291 
   14500    231.13082    36.426848    126247.14   -39730.812    2875.7068   -42606.519    53.365163   0.98927781 
   14600    231.34626    149.10489    126164.69   -39730.303    2878.3873   -42608.691     53.82366   0.98992432 
   14700     226.0394    362.11311    126368.12   -39762.108    2812.3599   -42574.468    54.050468   0.98833069 
   14800    226.16779    36.356163    126496.53   -39792.102    2813.9573    -42606.06    54.304928   0.98732742 
   14900    222.92307    472.38778    126424.17   -39861.366    2773.5869   -42634.952    54.597102   0.98789253 
   15000    223.23295    227.61151    126522.86   -39870.495    2777.4424   -42647.938     54.94406   0.98712192 
   15100    226.67502     135.0223    126479.71   -39897.935    2820.2682   -42718.203    55.117021   0.98745872 
   15200    228.87987   -32.567773    126459.62   -39824.584    2847.7008   -42672.285    55.286039   0.98761559 
   15300    227.04992    203.08264     126177.2   -39831.315    2824.9327   -42656.248    55.315266    0.9898261 
   15400    225.55355    251.02851    126225.96   -39832.107     2806.315   -42638.422    55.797908   0.98944375 
   15500    226.81686    176.22832    126212.79   -39815.268     2822.033   -42637.301    56.174726   0.98954705 
   15600    227.65261    215.88603    126310.53   -39747.732    2832.4312   -42580.164    56.511472    0.9887813 
   15700    231.94111   -153.20582    126295.67   -39833.611    2885.7883   -42719.399    56.672394   0.98889766 
   15800    227.90833    387.96157    126315.63   -39831.965    2835.6129   -42667.578    57.043149   0.98874141 
   15900    224.79407    102.68268    126416.12   -39894.954    2796.8656    -42691.82    57.640512   0.98795541 
   16000    228.72988    248.43163    126521.12   -39830.201    2845.8346   -42676.035    58.175634   0.98713555 
   16100    234.79102    188.95475    126447.18   -39780.043    2921.2467   -42701.289    58.442479   0.98771273 
   16200    232.52318    86.244063    126473.55   -39838.182    2893.0304   -42731.212    58.995908   0.98750681 
   16300    229.60964    109.60981    126716.28   -39864.617    2856.7805   -42721.398    59.217283   0.98561522 
   16400    233.63937    64.113607    126806.03   -39775.992    2906.9179    -42682.91    59.369759   0.98491757 
   16500    233.46372    165.80562    126698.72   -39775.251    2904.7325   -42679.984    59.256248   0.98575183 
   16600    237.02506    252.60035    126878.78   -39761.659    2949.0423   -42710.701    59.653823   0.98435287 
   16700    228.89274    242.61613    126719.56   -39795.629    2847.8608    -42643.49    59.623956   0.98558966 
   16800    229.68441    211.55073    126722.18   -39777.661    2857.7108   -42635.372    60.159828   0.98556927 
   16900    230.78401    199.17299    126739.24     -39746.3    2871.3918   -42617.692    60.523632   0.98543664 
   17000    232.13537    76.559177    127013.98   -39759.247    2888.2053   -42647.452    60.690348   0.98330511 
   17100      230.381    312.22915    127027.72   -39682.928    2866.3776   -42549.305     60.82972   0.98319874 
   17200    234.00478    200.58109     126750.8   -39708.603    2911.4644   -42620.067    61.083487    0.9853468 
   17300    231.30113    208.42896    126673.01   -39759.407    2877.8258   -42637.233    61.292584   0.98595191 
   17400    231.58552    105.56734    126670.52    -39781.88    2881.3642   -42663.244    61.240922   0.98597126 
   17500    231.45872    106.20069    126770.61   -39764.207    2879.7866   -42643.994    61.817538   0.98519282 
   17600    235.04866    261.85653    126708.63    -39755.62    2924.4522   -42680.072    62.068705   0.98567472 
   17700    232.97289     -18.5484    126848.89   -39784.239    2898.6257   -42682.865    62.354224   0.98458484 
   17800     229.4397    158.35371     126639.8    -39785.23    2854.6661   -42639.896    62.728653   0.98621045 
   17900    235.44438    347.47687    126476.83   -39747.214    2929.3757    -42676.59    63.006884    0.9874812 
   18000    232.27032    267.41738    126503.84   -39688.688    2889.8844   -42578.572    63.332067   0.98727032 
   18100    226.02281    351.44531    126585.69   -39786.566    2812.1535    -42598.72     64.01173   0.98663201 
   18200    232.57532    205.45431     126242.8   -39783.129    2893.6791   -42676.808    63.944667   0.98931178 
   18300     238.6886    292.73821     126342.9   -39691.724      2969.74   -42661.464    64.386986     0.988528 
   18400    232.16982     252.5675     126559.6   -39764.321    2888.6339   -42652.955    64.824006    0.9868354 
   18500    234.35356    208.27625    126532.87    -39738.31    2915.8039   -42654.114    65.234452   0.98704387 
   18600    225.61233    211.02743    126501.52   -39795.443    2807.0463    -42602.49    65.738687   0.98728842 
   18700    229.78661    356.50786    126469.99   -39747.575    2858.9822   -42606.557    66.116537   0.98753458 
   18800     234.3048    222.50037     126291.7   -39730.786    2915.1972   -42645.983    66.236216   0.98892876 
   18900    231.70737    162.87829    126510.68   -39764.874    2882.8802   -42647.754     66.78881   0.98721694 
   19000    230.17503    211.08836    126493.95   -39722.153     2863.815   -42585.968    67.069866   0.98734757 
   19100    232.94995    126.93031     126201.3   -39765.165    2898.3402   -42663.506    66.968851   0.98963711 
   19200    231.09786    476.80813    126236.59   -39724.225    2875.2968   -42599.522    67.414124   0.98936046 
   19300     232.8518    96.358401    126280.91   -39660.639    2897.1191   -42557.758    67.679849   0.98901322 
   19400    230.60229    259.95843    126136.88   -39659.531    2869.1309   -42528.662     68.10687   0.99014252 
   19500    232.21324    223.31452    126258.47   -39648.687    2889.1741   -42537.861    68.491754   0.98918903 
   19600    231.14785    387.40118    126344.96   -39684.125    2875.9187   -42560.044     68.91421   0.98851187 
   19700    232.90254    139.09917    126472.33   -39640.808    2897.7503   -42538.558    69.607728   0.98751635 
   19800    228.14281    75.893826    126555.06   -39671.635    2838.5303   -42510.166    69.736044   0.98687081 
   19900    228.93157    198.09915    126445.83   -39679.612     2848.344   -42527.956    70.023866   0.98772331 
   20000    231.35787   -10.821437    126362.66   -39716.305    2878.5317   -42594.836    70.346049   0.98837336 
   20100    230.84316    481.81643    126055.08   -39677.995    2872.1278   -42550.123    70.576969   0.99078511 
   20200    230.15491    207.74083    126174.65   -39728.878    2863.5646   -42592.442    71.181665   0.98984614 
   20300    227.58826     219.0098    125894.44    -39764.91    2831.6306   -42596.541    71.450292   0.99204931 
   20400    227.94673    302.78719    126012.15   -39764.162    2836.0907   -42600.253    71.706973    0.9911226 
   20500    231.58062    356.17227    126112.33   -39737.648    2881.3032   -42618.951    72.199629   0.99033526 
   20600    226.06177    173.71594    126093.24   -39769.635    2812.6382   -42582.273    72.487285   0.99048526 
   20700    230.91697    457.65013    126144.07    -39706.04    2873.0461   -42579.086    72.892889   0.99008614 
   20800    227.70909    109.28673    126327.46   -39696.082     2833.134   -42529.216     73.22256   0.98864881 
   20900    230.79793    157.73047    126156.75   -39740.645     2871.565    -42612.21    73.484422   0.98998657 
   21000    223.65533    70.073441    126065.08   -39827.334    2782.6976   -42610.032    73.370083   0.99070647 
   21100    227.27113    386.56814    126196.28   -39849.033    2827.6849   -42676.718    73.831514   0.98967646 
   21200    226.21216    21.951569    126433.36   -39820.201    2814.5093    -42634.71    74.679345   0.98782073 
   21300    227.06089    298.89701    126286.72   -39836.738    2825.0691   -42661.808     74.81241   0.98896771 
   21400    228.34364    240.25648    126319.33   -39808.716     2841.029   -42649.745    75.104814   0.98871246 
   21500     229.1811    337.42615    126427.26   -39806.039    2851.4485   -42657.487    75.630111   0.98786833 
   21600    228.56334    150.72864    126557.03   -39745.581    2843.7625   -42589.344    76.237487   0.98685543 
   21700    232.49658    71.315285    126468.03   -39704.055    2892.6994   -42596.755    76.431468   0.98754994 
   21800    236.17021    165.41434    126471.53   -39689.337    2938.4064   -42627.743    76.853792   0.98752257 
   21900    230.71897    56.190315    126255.55   -39728.858    2870.5827   -42599.441    76.957817   0.98921189 
   22000    228.57374    196.88143    125965.84   -39766.406    2843.8919   -42610.298    76.846808     0.991487 
   22100    228.96331    160.17169    125861.96   -39708.342    2848.7388   -42557.081    77.055226   0.99230535 
   22200    231.15899    234.66207    125842.29   -39733.852    2876.0573   -42609.909    77.601342    0.9924604 
   22300    230.98146    298.10033    125874.09   -39720.508    2873.8485   -42594.357    78.009858   0.99220971 
   22400    233.69028    288.01068    125916.78   -39692.373    2907.5513   -42599.924    78.568626   0.99187333 
   22500    229.75513    169.90474    126211.07   -39691.354    2858.5906   -42549.945    78.901787   0.98956049 
   22600    236.63769   -43.146773    126132.73    -39669.94    2944.2228   -42614.163    79.392683   0.99017514 
   22700    234.22878    181.73149    126230.64   -39669.359    2914.2513    -42583.61    79.525019   0.98940707 
   22800    235.41617    212.52524    126071.98    -39659.85    2929.0247   -42588.875    80.124354   0.99065229 
   22900    232.35925    162.68102     126174.3   -39725.458    2890.9908   -42616.449    80.641529   0.98984888 
   23000     231.2379    160.35787    126193.99   -39705.267     2877.039   -42582.306    81.071378   0.98969443 
   23100    226.39603    255.08151    126444.06   -39814.386    2816.7971   -42631.183    81.098273   0.98773713 
   23200    225.44835   -56.313616    126207.37   -39740.678    2805.0061   -42545.684    81.154009   0.98958953 
   23300    227.18683     301.1892    126386.09   -39770.199    2826.6361   -42596.835     81.34425   0.98819019 
   23400    232.95881    125.13798    126461.71   -39712.405    2898.4505   -42610.856    81.737749   0.98759926 
   23500     229.0694    269.68726    126557.31   -39756.574    2850.0589   -42606.633    82.061455   0.98685325 
   23600      228.871   -10.395301    126545.65   -39734.799    2847.5903    -42582.39    82.394091    0.9869442 
   23700    230.55743     136.4747    126432.99   -39769.111    2868.5728   -42637.684    82.158783   0.98782359 
   23800    225.98952     103.6105    126228.76   -39819.266    2811.7392   -42631.005    82.393276   0.98942182 
   23900    232.65537    170.65251    126081.86   -39824.024    2894.6751   -42718.699    82.671621   0.99057464 
   24000    234.78473    251.95868    126289.73   -39751.328    2921.1684   -42672.497    83.225582   0.98894416 
   24100    231.02403     229.4007    126551.97   -39763.316    2874.3782   -42637.694    83.504673   0.98689485 
   24200    227.95068    284.63025    126495.18   -39851.576    2836.1399   -42687.716    84.098696   0.98733796 
   24300    227.74755    86.154696    126524.27   -39818.202    2833.6125   -42651.815    84.348493   0.98711091 
   24400    230.15521     123.7898    126750.21   -39863.473    2863.5684   -42727.041    84.450461   0.98535136 
   24500    223.49316    165.46799    126761.36   -39807.906    2780.6799   -42588.586    84.666898   0.98526465 
   24600    228.19735   -83.113115    126550.16   -39797.433    2839.2088   -42636.642    85.025748   0.98690902 
   24700    228.95754    177.62355     126669.4   -39830.901    2848.6671   -42679.569    85.444824   0.98597994 
   24800    226.59171    188.41733    126790.38   -39824.981    2819.2316   -42644.213    85.573973   0.98503916 
   24900    232.00498    158.13257     126737.4   -39757.932     2886.583   -42644.515    85.724076   0.98545094 
   25000    233.44503    230.18894    126537.51   -39749.057       2904.5   -42653.557    86.058267   0.98700765 
   25100    229.89636    256.58174     126391.6   -39751.245    2860.3478   -42611.592    86.582199   0.98814707 
   25200    231.82222    69.822342    126273.72   -39783.013    2884.3091   -42667.322    87.029006   0.98906958 
   25300    230.99158    138.20907    126208.87   -39791.607    2873.9744   -42665.581    87.384367   0.98957776 
   25400    228.54673    128.81889    126390.57   -39778.503    2843.5558   -42622.059    87.776515   0.98815515 
   25500    232.42723    51.862168    126517.78   -39729.044    2891.8366   -42620.881    88.360769   0.98716156 
   25600    228.10108    139.05078    126295.27   -39811.417     2838.011   -42649.428    88.453687   0.98890077 
   25700    231.03312    314.51355    126333.38   -39819.797    2874.4913   -42694.288     88.52636   0.98860244 
   25800    231.77481    179.42648     126280.9   -39809.992    2883.7193   -42693.712    88.708547   0.98901328 
   25900     231.6352    4.4690949    126318.77   -39764.532    2881.9822   -42646.515    89.430159   0.98871682 
   26000    230.49945    258.23872    126259.21   -39690.131    2867.8514   -42557.982    89.605927   0.98918319 
   26100     229.3839    151.21035    126423.61     -39772.6    2853.9718   -42626.571     90.12802   0.98789688 
   26200    230.13821    288.48176    126186.06   -39769.184    2863.3569   -42632.541     90.21284   0.98975665 
   26300     233.2776    29.763431    126215.03   -39741.172    2902.4169   -42643.589    90.622422   0.98952948 
   26400    232.97426    176.83081    126086.03   -39732.297    2898.6427   -42630.939    91.105424   0.99054186 
   26500    231.13862    307.60076    126240.08   -39790.389    2875.8038   -42666.192    91.498624   0.98933315 
   26600    228.49996   -55.800515    126159.47    -39842.21    2842.9739   -42685.184    91.820372   0.98996526 
   26700    228.70137    226.53809    126118.97   -39875.945    2845.4798   -42721.425    91.949959   0.99028315 
   26800    226.91955    324.02486    126340.98   -39804.965    2823.3106   -42628.276    92.486044   0.98854296 
   26900    231.72134    120.74577    126297.69   -39820.216    2883.0541    -42703.27    92.892228   0.98888182 
   27000    226.89672    4.2406877     126282.9    -39863.39    2823.0266   -42686.417    93.081697   0.98899764 
   27100    228.17837    268.55012    126328.69   -39868.098    2838.9727   -42707.071    93.485506   0.98863919 
   27200    226.94824       127.14    126360.33   -39889.713    2823.6675   -42713.381    93.984382   0.98839162 
   27300    223.66136    226.34046    126316.77   -39921.558    2782.7725   -42704.331     94.29642   0.98873248 
   27400    226.31253    120.46477    126198.92   -39841.292    2815.7581    -42657.05    94.577661   0.98965576 
   27500     233.8543    313.58292    126364.29   -39747.985    2909.5921   -42657.578     94.74514   0.98836067 
   27600    227.05127    137.41727    126474.42   -39772.158    2824.9494   -42597.107    95.056797   0.98750003 
   27700    224.86766    211.83527       126487   -39767.634    2797.7812   -42565.415    95.552895   0.98740177 
   27800    233.67693    235.37562    126641.34   -39712.158    2907.3853   -42619.543    95.983613   0.98619844 
   27900    235.64472    169.44166    126382.45   -39741.919    2931.8683   -42673.787    96.159393   0.98821866 
   28000    232.67327    208.03604    126436.04    -39785.85    2894.8978   -42680.748    96.625343    0.9877998 
   28100     229.3968     148.8262    126450.05   -39759.227    2854.1323   -42613.359    96.817712   0.98769031 
   28200    230.62637    177.44617    126624.25    -39792.86    2869.4305    -42662.29    97.237578   0.98633151 
   28300    226.01497    217.92735    126664.47   -39798.911    2812.0559   -42610.967    97.398771   0.98601835 
   28400    230.04701   -176.32863    126453.84   -39837.957    2862.2221   -42700.179    97.603409   0.98766075 
   28500    227.96936    169.16635    126359.71   -39867.874    2836.3722   -42704.246    97.959542   0.98839644 
   28600    230.02898    111.64091    126375.78   -39828.402    2861.9979     -42690.4    98.642742   0.98827076 
   28700    231.68631    254.99924    126454.72   -39851.504    2882.6182   -42734.122    99.185979   0.98765387 
   28800    232.71201    71.727272    126543.13   -39813.889    2895.3798   -42709.268    99.229518    0.9869638 
   28900    228.25414    233.88206    126396.98    -39774.68    2839.9154   -42614.595    99.722341     0.988105 
   29000    226.56924    214.54713     126187.4   -39847.651    2818.9521   -42666.603    99.608927   0.98974617 
   29100    229.29744    53.281133    125943.05   -39798.532    2852.8961   -42651.428     100.0222   0.99166638 
   29200    232.67624    281.68317    126279.68   -39755.941    2894.9348   -42650.876    100.76364   0.98902288 
   29300    228.32656     166.6156    126467.56   -39815.389    2840.8164   -42656.206    101.14104   0.98755357 
   29400     226.5663     140.9421    126405.13     -39852.6    2818.9155   -42671.516    101.83307   0.98804133 
   29500     223.9772    122.23884    126398.85   -39880.609    2786.7022   -42667.311     102.2603   0.98809042 
   29600    226.94909    169.17162     126391.2   -39794.852    2823.6782    -42618.53    102.44241   0.98815019 
   29700    226.86573    215.82432    126596.53   -39837.975    2822.6409   -42660.616    102.74118   0.98654748 
   29800    226.49821     16.11396    126488.78   -39814.279    2818.0683   -42632.347    102.84198   0.98738787 
   29900    225.19898   -117.91098    126265.81   -39848.502    2801.9035   -42650.406    103.27497    0.9891315 
   30000    230.37782    368.44355    126329.59    -39831.36    2866.3381   -42697.698    103.62336   0.98863214 
   30100     227.6608    305.89201    126223.98   -39818.715    2832.5331   -42651.248    104.00636   0.98945933 
   30200    225.53405    295.91426    126434.55   -39820.173    2806.0724   -42626.245    104.48239   0.98781142 
   30300    227.81531    72.279378    126532.97   -39759.983    2834.4556   -42594.439    104.83343   0.98704307 
   30400    227.86607    265.99873    126635.17   -39725.383    2835.0871    -42560.47    105.33728   0.98624646 
   30500    229.31722    234.27522    126504.86   -39727.725    2853.1421   -42580.867    105.63213    0.9872624 
   30600    231.61119    30.003342    126448.14   -39714.491    2881.6836   -42596.175    105.99481   0.98770526 
   30700    226.54309     141.6392    126410.44    -39723.17    2818.6267   -42541.797    106.37516   0.98799979 
   30800    230.27629    253.18544    126291.14   -39652.717    2865.0749   -42517.792     106.4013   0.98893311 
   30900    228.03384    121.09388    126225.31   -39759.278    2837.1744   -42596.452    106.51717   0.98944886 
   31000    227.88232    293.10294    126235.27   -39812.949    2835.2893   -42648.239    106.65908   0.98937085 
   31100    229.38874    397.59123    126421.43   -39803.397     2854.032   -42657.429    107.14011   0.98791393 
   31200    222.97072    96.860226    126275.13   -39818.074    2774.1796   -42592.254    107.50511    0.9890585 
   31300    228.94588    287.53788    126047.41   -39761.049     2848.522   -42609.571     107.6116   0.99084538 
   31400    226.83123    388.04193    126002.02   -39728.892    2822.2118   -42551.104    107.87216   0.99120229 
   31500    229.02082    89.432692    125871.75   -39787.346    2849.4544     -42636.8    108.51695   0.99222812 
   31600     230.0401    115.67869    125996.42    -39711.73    2862.1361   -42573.866    108.93938   0.99124635 
   31700    232.43869    157.01066       125949   -39748.059    2891.9792   -42640.038    109.23233   0.99161953 
   31800    238.43679    351.31256    125962.94   -39691.453     2966.607    -42658.06    109.36148   0.99150983 
   31900    231.48218    195.30459    125897.53   -39684.074    2880.0784   -42564.152    109.63877   0.99202493 
   32000    233.79226    18.224974    125648.26    -39673.74    2908.8202    -42582.56    110.40515   0.99399301 
   32100    231.62174    212.08882    125736.08   -39678.734    2881.8148   -42560.548    110.87211   0.99329879 
   32200    229.75502    315.98032     125806.6   -39674.839    2858.5893   -42533.428    110.98804   0.99274193 
   32300    232.77256    369.38219    125680.54   -39665.965    2896.1332   -42562.098    111.47651   0.99373771 
   32400    226.40216    209.27326    125592.06     -39734.5    2816.8733   -42551.374    111.77704   0.99443776 
   32500    229.76498    337.41964    125793.13   -39736.968    2858.7132   -42595.682    112.25616   0.99284823 
   32600    230.40428     7.403506    125810.27   -39678.871    2866.6672   -42545.538    112.46475   0.99271297 
   32700    229.23484    316.34063    125964.32   -39749.966    2852.1172   -42602.083     112.9655   0.99149899 
   32800    229.60209    117.32259    126021.24   -39788.738    2856.6865   -42645.425    113.51777   0.99105113 
   32900    226.20316    440.19248    126092.77   -39772.509    2814.3974   -42586.907     113.9504   0.99048889 
   33000    226.47611    274.10568    125885.15   -39839.566    2817.7934   -42657.359    114.18379    0.9921225 
   33100    232.33549    238.64271    126003.21   -39775.162    2890.6952   -42665.857    114.19504   0.99119297 
   33200     228.3076    138.55382    125940.96    -39823.25    2840.5806   -42663.831    114.85837   0.99168284 
   33300    234.66686    224.74162    125742.86   -39758.757    2919.7018   -42678.459    115.09555   0.99324517 
   33400     226.2166    190.09778    125527.06   -39854.293    2814.5646   -42668.857    115.59716   0.99495275 
   33500    226.53508    142.52787    125624.27   -39803.399    2818.5271   -42621.926    116.04501   0.99418281 
   33600    231.03894    122.40277    125727.68   -39770.914    2874.5636   -42645.477    116.55325   0.99336509 
   33700    230.96825    423.04741    125776.92    -39762.16    2873.6841   -42635.844    116.80831   0.99297623 
   33800     230.4063    222.02123       126078    -39763.59    2866.6924   -42630.282    117.27939   0.99060493 
   33900    227.54053    226.02298    126042.16   -39771.265    2831.0368   -42602.302    117.42012   0.99088659 
   34000    231.86386    14.479816    126004.09   -39730.751    2884.8272   -42615.578    117.68232   0.99118599 
   34100    231.23886     146.6458    126057.23   -39767.767    2877.0511   -42644.818    118.03226   0.99076815 
   34200    228.74914     244.7425    125984.11   -39787.221    2846.0742   -42633.295    118.25704   0.99134317 
   34300    226.15388    124.00501    125884.27   -39845.879    2813.7842   -42659.663    118.61099   0.99212944 
   34400    231.70088     279.9737    125852.02   -39778.471    2882.7994    -42661.27    118.33806   0.99238366 
   34500      226.209    190.91047    125943.57   -39799.969      2814.47   -42614.439    119.14572    0.9916623 
   34600    228.72991    227.78927    126113.91   -39762.992    2845.8349   -42608.827    119.54483    0.9903229 
   34700    226.76753    168.80109    126180.65   -39821.566    2821.4192   -42642.985    119.98087   0.98979908 
   34800    224.03769    50.088591    126012.92   -39790.349    2787.4547   -42577.804    119.91992   0.99111655 
   34900     227.2333    211.25606    126072.89   -39796.086    2827.2143     -42623.3     120.3906   0.99064514 
   35000    225.98856     321.1368    126169.77   -39868.327    2811.7273   -42680.054    120.41364   0.98988444 
   35100    228.07924     106.0407    126354.47   -39819.538    2837.7394   -42657.277    121.15064   0.98843743 
   35200    229.07969    183.11914    126350.71   -39847.635    2850.1868   -42697.822    121.64416   0.98846684 
   35300    232.25208    211.21316    126441.89   -39848.565    2889.6574   -42738.222    121.93492   0.98775406 
   35400    226.72336    71.594139     126439.2   -39872.068    2820.8697   -42692.937     121.9074   0.98777508 
   35500     230.0314    165.00899    126446.92   -39761.966     2862.028   -42623.994    121.99234   0.98771476 
   35600    230.78678    131.91975    126468.79   -39806.819    2871.4264   -42678.246    122.08595     0.987544 
   35700    226.94824    216.54214    126268.23   -39767.382    2823.6676    -42591.05    121.95027   0.98911258 
   35800     227.6985    324.68326    126518.54   -39798.139    2833.0023   -42631.142    122.30834   0.98715562 
   35900    232.24672    209.77181    126496.67   -39745.939    2889.5907    -42635.53    122.60678   0.98732632 
   36000    232.21758    67.596049    126371.07   -39705.421    2889.2281   -42594.649    122.67791   0.98830764 
   36100    232.58126    154.09236    126303.54   -39737.227     2893.753    -42630.98    123.28392   0.98883603 
   36200    228.41235    244.34977    126151.03   -39756.418    2841.8839   -42598.302    123.52293   0.99003146 
   36300    228.15931    12.470064    126210.83   -39817.746    2838.7356   -42656.481    124.24322   0.98956243 
   36400    230.92073    242.44514    126068.96   -39767.111    2873.0929   -42640.204    124.37944     0.990676 
   36500     226.4139     91.34804    126197.51   -39729.272    2817.0193   -42546.291    125.05393   0.98966688 
   36600    229.31139    315.77641     126169.5   -39843.166    2853.0697   -42696.236    125.06853   0.98988655 
   36700    229.00012    122.99814    126262.22   -39768.285    2849.1968   -42617.482    125.36026   0.98915967 
   36800    228.89452    262.63273    126256.81   -39764.678     2847.883   -42612.561    125.69154   0.98920202 
   36900    229.14768    216.75241     126190.5   -39793.461    2851.0328   -42644.494      125.925    0.9897218 
   37000    228.15946    157.99866    126370.64   -39730.077    2838.7374   -42568.814    126.15989     0.988311 
   37100    229.83496   -25.543383    126051.46   -39706.679    2859.5838   -42566.263    126.17438   0.99081353 
   37200    227.42905    286.49298    125996.81     -39753.4    2829.6498   -42583.049    126.22041   0.99124325 
   37300    228.63923    293.29427    125955.82   -39767.918    2844.7067   -42612.624    126.43461   0.99156584 
   37400    228.61905    460.15821    126045.46    -39806.97    2844.4556   -42651.426    126.80092   0.99086065 
   37500    222.74383    213.19074    126219.39   -39833.005    2771.3568   -42604.362    127.38459   0.98949529 
   37600    230.42211    263.28346    126224.59   -39792.126    2866.8892   -42659.015     127.8087   0.98945451 
   37700    226.95495    190.05455    126170.24   -39799.583    2823.7511   -42623.334    128.36654   0.98988075 
   37800    225.84449    158.20579    126229.65   -39899.213    2809.9349   -42709.147    128.60522   0.98941483 
   37900    230.32154    311.13075    126197.57   -39857.253    2865.6379   -42722.891     129.0269    0.9896664 
   38000    230.21587    85.429642     126128.6    -39833.67    2864.3231   -42697.993    129.36158   0.99020752 
   38100    233.49379    69.486026    126077.42   -39795.126    2905.1067   -42700.233    129.49263   0.99060951 
   38200    228.08093    22.367314    126227.88    -39803.55    2837.7604    -42641.31     130.3631   0.98942871 
   38300    231.81011    134.25978    126120.81   -39725.569    2884.1585   -42609.728    130.87305   0.99026869 
   38400    226.69396    98.208987    126024.22   -39778.728    2820.5039   -42599.232    130.95811   0.99102765 
   38500    228.12609    236.54718    126105.62   -39789.964    2838.3223   -42628.286    131.60604   0.99038795 
   38600    230.89514     105.9283    126019.17   -39750.336    2872.7745   -42623.111     132.1707   0.99106737 
   38700    228.74067    91.832313     126003.6   -39737.862    2845.9688   -42583.831     132.1986   0.99118983 
   38800    226.99231    233.64561     125740.4   -39762.987    2824.2158   -42587.203    132.52819   0.99326466 
   38900    229.92229    255.62356    125672.64   -39704.401    2860.6704   -42565.072    132.73779   0.99380017 
   39000    230.14278    286.38816    126130.15   -39736.798    2863.4138   -42600.212    133.59564   0.99019537 
   39100     231.7616    200.98597    126001.02   -39696.582    2883.5549   -42580.137    133.71531   0.99121012 
   39200    229.30486    240.81144    126056.93   -39735.085    2852.9884   -42588.073    134.33465   0.99077056 
   39300    228.43899    169.17114    126104.59   -39734.647    2842.2153   -42576.862    134.55284   0.99039607 
   39400    231.49047    270.31097    126154.59       -39700    2880.1816   -42580.181    134.86136   0.99000357 
   39500    230.43162    89.618277    126278.22     -39678.9    2867.0075   -42545.907    135.20226   0.98903433 
   39600    233.42241    173.35771     126250.2   -39720.128    2904.2185   -42624.347    135.46425   0.98925381 
   39700      235.519    267.08619    126401.98   -39677.942    2930.3042   -42608.246    136.13414    0.9880659 
   39800    228.86922    438.50862    126207.53   -39760.981    2847.5682   -42608.549    136.39746   0.98958829 
   39900    224.30807    277.88314    126380.77   -39794.663    2790.8189   -42585.481    136.74391    0.9882318 
   40000    226.43248    186.56324    126284.42   -39826.772    2817.2506   -42644.023    137.04938   0.98898573 
   40100     234.4986    112.03575    126182.62   -39739.799    2917.6083   -42657.407    137.24628   0.98978364 
   40200    227.04824    305.36068    126222.08   -39757.822    2824.9117   -42582.734    137.54293   0.98947417 
   40300    231.24252    260.58072    126225.67   -39741.084    2877.0965   -42618.181    137.66264   0.98944603 
   40400    233.10524    194.44295    126454.28   -39661.942    2900.2724   -42562.214    138.27378   0.98765732 
   40500    233.63774    66.594769    126297.46   -39684.756    2906.8977   -42591.653    138.31737   0.98888363 
   40600    232.18362    264.11095    126427.12   -39733.677    2888.8056   -42622.483    139.07134   0.98786944 
   40700    232.66001    342.28895    126486.14   -39775.863    2894.7328   -42670.595    139.44178   0.98740854 
   40800    227.09833    255.79561    126541.51   -39819.525     2825.535    -42645.06    139.91717   0.98697648 
   40900    225.12964    420.64693    126659.35   -39832.791    2801.0407   -42633.832    140.75401   0.98605819 
   41000    229.07811    135.97349    126721.23   -39734.359    2850.1671   -42584.526    141.12751    0.9855767 
   41100     231.2136   0.68220462    126625.43   -39706.789    2876.7368   -42583.525    141.12743   0.98632231 
   41200    229.01984    207.45414    126675.21   -39742.564    2849.4422   -42592.006     141.3917   0.98593477 
   41300     229.9508   -35.649381    126620.42   -39913.237    2861.0251   -42774.263    141.18377   0.98636139 
   41400    228.53845    323.48859    126685.36   -39858.612    2843.4528   -42702.065    141.55087   0.98585574 
   41500    225.23962    252.09408    126663.42   -39853.898    2802.4091   -42656.307     142.3807   0.98602655 
   41600    224.68684    362.10976    126808.08   -39814.462    2795.5314   -42609.994    142.78655   0.98490168 
   41700    231.87489    249.47524    126859.81   -39798.891    2884.9645   -42683.856    142.85072   0.98450003 
   41800    229.93809    227.36127     126586.7   -39811.156     2860.867   -42672.023    142.93749   0.98662415 
   41900    230.56488   -38.249328    126552.27   -39800.843    2868.6654   -42669.508    143.01724   0.98689256 
   42000    229.35251    258.10874     126441.8   -39782.556    2853.5813   -42636.138    143.25729   0.98775475 
   42100    227.83489    165.74783    126626.45    -39783.96    2834.6992    -42618.66    143.46084   0.98631444 
   42200    233.92062    239.91498    126701.66   -39735.989    2910.4173   -42646.407    144.01839   0.98572889 
   42300    233.60385    201.17584    126728.57   -39706.875     2906.476   -42613.351    144.05492   0.98551964 
   42400     227.7335    141.75327    127049.75   -39731.288    2833.4377   -42564.725    144.15225   0.98302822 
   42500    231.75138    84.265591    126844.04   -39733.629    2883.4278   -42617.057    144.26187   0.98462244 
   42600    229.05478    60.610028    126762.49   -39734.286     2849.877   -42584.163    144.68539    0.9852559 
   42700    227.40911     358.9154    126655.65   -39749.874    2829.4017   -42579.276    145.36838   0.98608703 
   42800    228.04865    177.93563    126503.68   -39703.856    2837.3588   -42541.215    145.62805   0.98727161 
   42900    231.97232    247.90302    126272.89    -39785.08    2886.1767   -42671.257     146.2714   0.98907603 
   43000    228.17827    213.87808    126300.17   -39823.203    2838.9714   -42662.175    146.62799   0.98886238 
   43100    232.82626    250.58593    126178.43   -39801.182    2896.8013   -42697.983    146.87831   0.98981652 
   43200    231.74473    284.55621     126197.6    -39767.36     2883.345   -42650.705    147.66315   0.98966611 
   43300     233.0278    530.55632    126399.48   -39795.046    2899.3088   -42694.354    147.93888   0.98808546 
   43400    233.72188    192.21265     126371.2   -39755.798    2907.9446   -42663.742    148.68523   0.98830661 
   43500    226.86547      437.475    126462.12   -39762.409    2822.6378   -42585.047    149.24881   0.98759607 
   43600    237.30018    155.40137    126775.22   -39675.356    2952.4654   -42627.821    149.32397   0.98515696 
   43700    238.53604    169.15396    126855.83   -39703.289    2967.8419   -42671.131    149.49336   0.98453094 
   43800    228.98084    97.858295    126743.12   -39702.709    2848.9569   -42551.666    149.65581   0.98540648 
   43900    227.50321    231.00549    126556.27    -39729.01    2830.5725   -42559.582     149.7576   0.98686133 
   44000    226.81008    263.34675    126510.43   -39747.674    2821.9486   -42569.622    149.95433   0.98721894 
   44100    228.82924    275.84611    126521.18   -39745.616    2847.0708   -42592.686    150.02219   0.98713507 
   44200    228.28964      114.154    126539.05   -39776.431    2840.3572   -42616.788     150.2717   0.98699562 
   44300     227.3352    67.682737    126526.05   -39784.118     2828.482     -42612.6    151.09573   0.98709704 
   44400    228.40773    140.96232    126614.01   -39752.487    2841.8263   -42594.313    152.03489   0.98641134 
   44500    225.72808    176.18221    126351.93   -39779.186    2808.4864   -42587.672    151.64768   0.98845734 
   44600    225.74945     273.4811    126338.12   -39834.747    2808.7524     -42643.5    151.83413   0.98856534 
   44700    225.01154    251.21257       126267   -39813.323    2799.5714   -42612.894     152.0286   0.98912218 
   44800    233.07479    300.72473    126359.66   -39777.037    2899.8936    -42676.93    152.30815    0.9883969 
   44900    228.12301    202.68453    126523.43   -39723.229    2838.2839   -42561.513    152.79342   0.98711751 
   45000    224.52266    22.435721    126624.48   -39718.611    2793.4887     -42512.1     153.4709   0.98632975 
   45100    233.19021    130.97596    126737.93   -39655.736    2901.3295   -42557.065    153.72652   0.98544686 
   45200    232.74771    381.73072    126571.96   -39723.884     2895.824   -42619.708    153.86299   0.98673898 
   45300     227.2235     23.24916    126407.57   -39752.414    2827.0923   -42579.506     153.7461   0.98802221 
   45400    226.65955    264.45188    126320.58   -39719.893    2820.0757   -42539.969    154.14535   0.98870268 
   45500    229.77543    196.19266    126287.89   -39719.317    2858.8432    -42578.16    154.59331   0.98895858 
   45600    230.75473    270.10357    126316.34    -39722.12    2871.0275   -42593.147    155.17068   0.98873586 
   45700     228.5796    200.91367    126149.28   -39728.314    2843.9647   -42572.279     155.7185   0.99004524 
   45800      231.563    257.33472    126153.84   -39662.715    2881.0839   -42543.799    155.99314   0.99000946 
   45900    233.45424    326.67237    126354.69     -39600.8    2904.6146   -42505.415    156.05003   0.98843576 
   46000    232.92022    38.429515    126223.07   -39579.439    2897.9704   -42477.409    156.67453    0.9894664 
   46100    237.92696    54.319648    126217.03   -39529.924    2960.2637   -42490.188    157.16736   0.98951382 
   46200    233.95793    252.60787    126004.82   -39522.582    2910.8814   -42433.463    157.80091   0.99118025 
   46300    233.08126    216.60347    126114.25   -39531.202     2899.974   -42431.176    158.23096   0.99032022 
   46400    235.54507    430.73807    126303.83    -39584.52    2930.6285   -42515.148    159.18673   0.98883379 
   46500    232.82625    166.60703    126325.86   -39624.037    2896.8012   -42520.838    159.12524   0.98866129 
   46600    233.50761    5.2744099     126393.5   -39619.896    2905.2786   -42525.175    159.27001    0.9881322 
   46700    225.84835    181.92184       126264   -39688.131    2809.9829   -42498.114    159.68398   0.98914572 
   46800    227.64176    99.614284    126271.94   -39742.632    2832.2963   -42574.929     159.9127   0.98908349 
   46900    234.02182    225.00122    126304.84   -39670.935    2911.6763   -42582.611    159.92798   0.98882582 
   47000    229.82382     239.5103     126270.3   -39658.323    2859.4452   -42517.768    160.23673   0.98909635 
   47100    231.74688   -90.095419    126209.88   -39639.437    2883.3718   -42522.809    160.63241   0.98956987 
   47200    231.42089    225.00442    126024.25   -39691.438    2879.3158   -42570.753    160.98539   0.99102743 
   47300    230.30192    371.85944    126238.47   -39736.307    2865.3937     -42601.7    161.49624   0.98934577 
   47400    230.21918    337.87544    126538.17   -39699.298    2864.3643   -42563.662    161.68313   0.98700254 
   47500    236.40246    115.10241    126447.49   -39661.134     2941.296    -42602.43    161.58818   0.98771029 
   47600    234.06787    300.50191    126355.08   -39633.429    2912.2493   -42545.679    161.74743   0.98843268 
   47700    234.15903    174.02523    126396.16   -39682.588    2913.3834   -42595.971    162.50377   0.98811144 
   47800    231.89592    420.08069    126398.44   -39689.094    2885.2262    -42574.32    162.51145   0.98809358 
   47900    233.21652    263.87904    126507.82    -39786.73    2901.6569   -42688.387    163.17543   0.98723931 
   48000    225.51544    66.054959    126269.32   -39822.976    2805.8408   -42628.817    163.47089   0.98910403 
   48100    231.85875    325.16517    126267.47   -39784.954    2884.7636   -42669.718    163.63848   0.98911848 
   48200    228.40525    217.70411    126296.51   -39809.944    2841.7955    -42651.74    163.91422   0.98889111 
   48300    228.96191    105.21239    126219.97   -39786.003    2848.7215   -42634.724    164.46227   0.98949073 
   48400    233.14048    147.94802    126277.35   -39685.466    2900.7108   -42586.177    165.01254   0.98904115 
   48500    235.49838    54.337872    126081.91   -39748.624    2930.0475   -42678.671    165.14869   0.99057423 
   48600    226.91357    244.14829    126234.77   -39736.549    2823.2362   -42559.785    165.66998    0.9893747 
   48700    232.05219    414.80888    126358.88   -39708.645    2887.1705   -42595.815    165.38716   0.98840297 
   48800    231.35075    162.70326    126347.75   -39746.325    2878.4431   -42624.768    165.43324   0.98849003 
   48900    233.66969    384.92483    126313.26   -39736.763    2907.2951   -42644.058    165.40672   0.98875995 
   49000     227.4895    165.70331    126296.09   -39786.681    2830.4018   -42617.083     165.7742   0.98889434 
   49100    231.55495    194.34658    126379.93   -39780.974    2880.9838   -42661.958    166.26513    0.9882383 
   49200    226.55722     220.5857     126319.6   -39818.797    2818.8025     -42637.6    166.55873   0.98871034 
   49300    230.91155    325.33205    126489.97   -39759.237    2872.9787   -42632.215    167.21847    0.9873786 
   49400    228.66766    247.34166    126631.92   -39735.021    2845.0604   -42580.082    168.19638   0.98627177 
   49500    232.09296    278.91969     126336.4   -39740.905    2887.6776   -42628.583    168.32164    0.9885788 
   49600    232.84465    157.49399    126451.64   -39740.824    2897.0301   -42637.854    168.53147   0.98767792 
   49700    229.40688    296.99197    126570.28   -39755.291    2854.2577   -42609.548    169.06224   0.98675209 
   49800    227.04572    184.89645    126715.69   -39812.478    2824.8804   -42637.359    169.73543   0.98561982 
   49900    231.22415    274.93609    126667.15   -39688.138     2876.868   -42565.006    169.77831   0.98599751 
   50000     233.2462    195.96044    126564.86   -39718.008    2902.0262   -42620.034    170.00642    0.9867944 
   50100    230.14231    380.77586    126838.83   -39730.197    2863.4078   -42593.605    170.65796   0.98466292 
   50200    226.91004    127.92186    127023.03   -39768.099    2823.1923   -42591.291    171.20834   0.98323504 
   50300    231.39977    76.871797    126925.71    -39739.18    2879.0531   -42618.233    171.48673   0.98398894 
   50400    228.78413    236.17488    127077.95   -39765.157    2846.5096   -42611.667    171.77249   0.98281011 
   50500    228.56359    43.752657    127098.22   -39810.977    2843.7655   -42654.742    171.94564   0.98265331 
   50600    227.29906    263.58718    127367.58   -39839.429    2828.0324   -42667.462    172.61542   0.98057521 
   50700    229.68587    103.43163    127382.12   -39850.918    2857.7289   -42708.647    172.97111   0.98046324 
   50800    230.02166   -51.966765    127269.54   -39841.314    2861.9068   -42703.221     173.1219   0.98133056 
   50900    226.16578    168.07497    127061.78   -39758.539    2813.9323   -42572.471     173.3535   0.98293513 
   51000    230.28742    160.84604    127205.63   -39794.077    2865.2133    -42659.29    173.99105   0.98182358 
   51100    232.98653    173.69069    127115.71   -39837.076    2898.7954   -42735.872    174.01533   0.98251816 
   51200    232.99918    184.89476    127048.19   -39839.187    2898.9528    -42738.14    174.43839   0.98304032 
   51300    227.04869    84.856423    127108.01   -39897.966    2824.9174   -42722.884    174.85761   0.98257769 
   51400    227.16896    315.96219    126812.88    -39889.21    2826.4137   -42715.623    174.76628    0.9848644 
   51500    230.00887    130.92216    126822.68   -39883.921    2861.7476   -42745.668     174.9935   0.98478832 
   51600    227.84499    125.22978    126807.61   -39823.241    2834.8249   -42658.066    175.19212   0.98490535 
   51700    229.17536    267.07981    126775.86   -39817.036    2851.3771   -42668.414      175.494   0.98515196 
   51800    231.57287    107.72364    126759.53   -39845.333    2881.2068   -42726.539    175.55797   0.98527891 
   51900    224.64247   -108.91594    126681.81   -39877.999    2794.9794   -42672.979     175.6732   0.98588335 
   52000    224.95174   -57.116229    126668.02   -39883.122    2798.8273   -42681.949     175.9325   0.98599075 
   52100    226.22442    3.6572797    126443.14   -39813.709    2814.6619   -42628.371    176.44866   0.98774433 
   52200    228.41385    310.88553     126482.1   -39834.916    2841.9025   -42676.818     176.6316   0.98744007 
   52300    226.54298      289.204    126591.56   -39838.686    2818.6253   -42657.311    176.79978   0.98658622 
   52400    230.04192    207.00597    126895.57   -39788.824    2862.1589   -42650.982    177.64422   0.98422263 
   52500    230.63234     97.95792    126828.55   -39776.864    2869.5048   -42646.369    177.63345   0.98474274 
   52600    226.33032    124.05712     126840.5   -39811.691    2815.9795    -42627.67     177.8178   0.98464995 
   52700    227.05878    193.15528    126842.95   -39844.182    2825.0429   -42669.225    178.40581   0.98463093 
   52800    229.44812     244.9193    126958.05   -39782.246    2854.7708   -42637.017     178.6157   0.98373829 
   52900    227.08446    190.14048    127279.49   -39747.291    2825.3624   -42572.653    179.50844   0.98125385 
   53000    234.25261    177.96671    127157.38   -39711.614    2914.5478   -42626.162    179.44466   0.98219616 
   53100    223.13986    214.30111    126875.91   -39753.204    2776.2841   -42529.488    179.78299   0.98437515 
   53200    225.99925     163.4484    126737.85   -39725.305    2811.8603   -42537.165    179.52473   0.98544746 
   53300    232.14077    205.29074    126605.62   -39727.631    2888.2725   -42615.904    180.15154   0.98647669 
   53400       225.94    137.34955    126554.09   -39810.561    2811.1231   -42621.684    180.14139   0.98687838 
   53500    226.59807    71.485847    126346.92   -39827.262    2819.3108   -42646.573    179.82195   0.98849649 
   53600     227.0142    177.89059    126123.54   -39826.674    2824.4883   -42651.163    179.67959   0.99024731 
   53700    229.01426    181.39582    126268.73    -39873.05    2849.3728   -42722.423    180.27944   0.98910866 
   53800    230.09189    221.21367    126577.27   -39774.481    2862.7806   -42637.262    181.42577   0.98669761 
   53900    226.86988    113.46336    126576.31   -39819.458    2822.6926   -42642.151    181.66776   0.98670511 
   54000     234.3947    309.01357    126771.07    -39799.78    2916.3157   -42716.096    182.38319   0.98518925 
   54100    225.58785     205.0862    126680.73   -39821.158    2806.7417   -42627.899    182.43023    0.9858918 
   54200    227.86943    199.29993    126639.57   -39806.073    2835.1289   -42641.202    182.32042   0.98621225 
   54300    227.18934    243.86338    126763.63   -39759.489    2826.6674   -42586.157    182.83237   0.98524701 
   54400    232.81294    92.560099    126926.94   -39797.164    2896.6356     -42693.8    183.58938   0.98397934 
   54500    232.41465    146.30863    126962.65   -39796.171    2891.6801   -42687.851    184.26949   0.98370263 
   54600    231.19997    73.397125    127151.81   -39696.598    2876.5672   -42573.165    184.88158   0.98223918 
   54700    232.07004    159.79529    126868.75   -39710.498    2887.3925    -42597.89    184.56727   0.98443071 
   54800    228.64631    357.66456    127028.66   -39791.466    2844.7948   -42636.261    185.44187   0.98319143 
   54900    227.02972    130.26001    127126.53   -39837.807    2824.6814   -42662.488    185.79358   0.98243448 
   55000     225.0918     448.1819    127256.56   -39915.587    2800.5699   -42716.157    185.62453   0.98143068 
   55100    231.50118    170.78449     127382.9   -39908.104    2880.3148   -42788.419    186.16016   0.98045725 
   55200    227.08292    300.43204    127206.56   -39926.085    2825.3433   -42751.428    186.16098   0.98181642 
   55300    232.55543    97.278516    127122.48   -39884.755    2893.4317   -42778.186    186.52466   0.98246583 
   55400    228.92957    172.42599    126904.12   -39879.988     2848.319   -42728.307    186.78613   0.98415632 
   55500    231.62871      129.788    126835.61   -39810.401    2881.9015   -42692.303    186.82003    0.9846879 
   55600    230.77683    114.49831    126648.67   -39842.314    2871.3025   -42713.617    187.43251   0.98614135 
   55700    229.96165     172.5842    126650.77   -39824.708    2861.1601   -42685.868    188.13772   0.98612503 
   55800    232.41576    257.08593    126648.32   -39826.438    2891.6939   -42718.132    188.19439   0.98614409 
   55900    235.15535    236.89986    126800.18   -39798.102    2925.7796   -42723.882    188.71267   0.98496303 
   56000    234.89365    278.14999    126947.49   -39793.091    2922.5236   -42715.615    189.31004   0.98382005 
   56100    234.63515    7.1831605    127156.78   -39758.987    2919.3074   -42678.294     190.1064   0.98220078 
   56200    231.78936    142.74872    127147.47    -39772.42    2883.9003   -42656.321    190.48462   0.98227275 
   56300    231.16131    266.04856    127137.53   -39818.691    2876.0862   -42694.777     190.5655   0.98234951 
   56400    229.69991    123.93933    127081.37    -39807.01    2857.9036   -42664.913    190.77143   0.98278367 
   56500    227.84678    67.608183    126971.36    -39897.42    2834.8471   -42732.267    191.03924   0.98363515 
   56600    226.37735    429.98344    126799.84   -39903.144    2816.5646   -42719.709    191.15879   0.98496569 
   56700     228.6431    117.85553    126897.83   -39938.571    2844.7549   -42783.326    191.46948   0.98420512 
   56800    231.32215    97.214656    126985.27   -39854.568    2878.0873   -42732.655     191.5869   0.98352739 
   56900    228.57811    172.23764    126839.98   -39840.335    2843.9463   -42684.282    192.61088   0.98465401 
   57000    230.02094    388.45256     126979.2   -39799.716    2861.8978   -42661.614    193.17286   0.98357442 
   57100    227.99448    140.92181    127223.11   -39872.844    2836.6847   -42709.529    193.81202   0.98168869 
   57200    232.39261    255.49721    127197.19   -39924.264    2891.4059    -42815.67    193.60039   0.98188874 
   57300    226.63665    127.65837    127220.62   -39987.762    2819.7908   -42807.553    193.73609   0.98170789 
   57400     220.4982     94.97174    127439.19   -39991.349    2743.4168   -42734.766    194.19835   0.98002421 
   57500    222.88603    256.95076    127547.06   -40024.675    2773.1259   -42797.801    194.52531   0.97919537 
   57600    228.15696     56.21752    127322.86   -39980.796    2838.7064   -42819.503    194.16581   0.98091962 
   57700    225.05191    96.747924    127298.54   -40032.338    2800.0737   -42832.412    194.55252     0.981107 
   57800    224.10611    114.27231    127031.12   -40069.779     2788.306   -42858.086    194.31417   0.98317238 
   57900    223.98076    247.25007    127023.12   -40020.744    2786.7465   -42807.491    194.78376   0.98323431 
   58000    226.57283    345.04947    127148.61   -40028.877    2818.9968   -42847.874     195.7806   0.98226394 
   58100    228.28427    297.79987    127020.61   -39962.419    2840.2903   -42802.709    195.68011   0.98325373 
   58200    226.69969    22.997486    127256.11   -39898.042    2820.5751   -42718.618     196.2766   0.98143412 
   58300    230.60598    250.53513    127003.92    -39823.14    2869.1769   -42692.317     196.4517   0.98338294 
   58400    231.57312     198.0229    126942.29   -39821.351    2881.2099   -42702.561    196.26262   0.98386036 
   58500    231.58054    249.04627    127183.56   -39818.513    2881.3021   -42699.816    197.21399   0.98199402 
   58600    228.89914    249.56713    127142.55   -39773.584    2847.9404   -42621.525    197.35957    0.9823107 
   58700    230.76913    107.58571    126980.42   -39772.958    2871.2067   -42644.164    197.92927   0.98356497 
   58800    230.49332    109.03097    126676.07   -39815.862    2867.7751   -42683.637    197.98627   0.98592802 
   58900    230.18269     8.132376    126815.84   -39855.646    2863.9103   -42719.556    198.25702   0.98484144 
   59000    234.63642    89.045853     126678.8   -39844.862    2919.3231   -42764.185     197.9788   0.98590678 
   59100    230.18943    19.287289    126675.13   -39852.382    2863.9942   -42716.376    197.95615   0.98593538 
   59200    229.95416    313.63971    126752.26   -39874.981     2861.067   -42736.048    197.94907   0.98533545 
   59300    230.85062    134.16248    126555.23   -39871.596    2872.2206   -42743.816    198.12192   0.98686947 
   59400    228.67932    173.49085    126515.48   -39906.041    2845.2054   -42751.247    198.00724    0.9871795 
   59500    229.33577    340.09791    126679.27   -39857.246    2853.3729   -42710.619    198.33742   0.98590318 
   59600    228.04718   -50.579989    126586.96   -39825.947    2837.3404   -42663.288    198.29762   0.98662206 
   59700    228.69528     122.7354    126576.77   -39842.594    2845.4041   -42687.998    198.69254    0.9867015 
   59800    226.69279    347.46984    126687.48   -39832.793    2820.4893   -42653.282    199.02985   0.98583925 
   59900    227.02219    187.81781     126498.8    -39803.44    2824.5877   -42628.027    199.41174   0.98730969 
   60000    228.02659    213.30644    126573.56   -39835.382    2837.0842   -42672.467    199.58998   0.98672652 
   60100    231.91859    24.107815    126598.54   -39802.962    2885.5081    -42688.47    200.01054   0.98653183 
   60200    229.48824    361.77049     126508.5   -39774.012      2855.27   -42629.282     200.0096     0.987234 
   60300    233.50475    352.62107    126802.68   -39732.961     2905.243   -42638.204    201.07512   0.98494361 
   60400    234.53917    214.85036    127155.96   -39675.506    2918.1132   -42593.619    201.86897   0.98220711 
   60500    229.90342    259.70034    127215.08   -39719.326    2860.4356   -42579.762    202.27686   0.98175069 
   60600    228.68228    202.91837    127018.75   -39777.363    2845.2423   -42622.606    202.32781   0.98326818 
   60700    230.10405    269.38678    126943.14   -39799.725    2862.9319   -42662.657    202.42116   0.98385384 
   60800    229.50418    308.86944    126804.71    -39742.02    2855.4683   -42597.489    202.55218   0.98492789 
   60900    229.89946    108.69136    126713.27   -39733.172    2860.3863   -42593.559    202.80472   0.98563858 
   61000    230.52827    271.49212    126552.11   -39771.856      2868.21   -42640.066    202.91063   0.98689381 
   61100    230.24642    170.83792    126542.28   -39789.916    2864.7032   -42654.619    203.49978   0.98697045 
   61200    228.43639    261.41946    126690.35   -39796.282     2842.183   -42638.465    203.72492   0.98581691 
   61300    231.98015    50.190943    126537.28    -39781.27    2886.2741   -42667.544    204.02589   0.98700944 
   61400    229.60552   -161.04323    126203.71   -39831.668    2856.7292   -42688.397    203.77206   0.98961822 
   61500    226.65532    330.34542    125919.35   -39830.938    2820.0231   -42650.961    203.58298   0.99185302 
   61600    229.44811    273.51731    126163.33    -39798.14    2854.7707   -42652.911    203.66981   0.98993495 
   61700    227.94936    120.78476    126109.71   -39873.328    2836.1234   -42709.451    204.42192   0.99035589 
   61800     226.0033    350.92856    126192.85   -39935.917    2811.9108   -42747.828    204.73692   0.98970335 
   61900    228.05532     235.7762    126239.51   -39869.116    2837.4418   -42706.557    204.99149    0.9893376 
   62000    228.72584    152.98994    126264.82    -39822.92    2845.7843   -42668.705    205.51305   0.98913927 
   62100    230.50335    332.55864    126189.18   -39846.164    2867.8999   -42714.064    205.49989   0.98973216 
   62200    228.00448    117.71434    126450.06   -39787.806    2836.8092   -42624.615    205.91087   0.98769028 
   62300    224.31152    -34.30687       126501   -39826.408    2790.8617   -42617.269    206.65084   0.98729251 
   62400    229.13662   -33.926492    126403.65    -39762.96    2850.8951   -42613.855    206.77932   0.98805292 
   62500    232.83946    434.51816     126288.4   -39772.007    2896.9656   -42668.973    207.16958   0.98895458 
   62600    229.30504    253.27548    126195.52   -39767.179    2852.9907    -42620.17    207.61011   0.98968247 
   62700    226.76893    164.45761    126489.56    -39807.73    2821.4366   -42629.166    207.91627   0.98738182 
   62800    229.25311    94.126201    126327.28   -39770.945    2852.3446   -42623.289    208.11908   0.98865021 
   62900    228.75812     131.2661    126356.77    -39705.73    2846.1859   -42551.916      208.588   0.98841946 
   63000    235.82005    160.15838    126363.54   -39661.676    2934.0497   -42595.725    209.03265    0.9883665 
   63100    235.97468    344.16797    126271.65   -39661.651    2935.9736   -42597.624    209.13921   0.98908578 
   63200    231.73542    86.573116    126323.73   -39690.759    2883.2292   -42573.989    210.08912   0.98867798 
   63300    228.65394    4.6821381    126184.18   -39721.939    2844.8897   -42566.829    210.39631   0.98977136 
   63400    235.99688    238.77084     126212.2   -39651.633    2936.2499   -42587.882    210.90061   0.98955166 
   63500    229.94339    288.10053    126314.94   -39757.601    2860.9329   -42618.534    211.24543   0.98874683 
   63600    227.38672    249.82826    126354.09   -39755.754    2829.1231   -42584.877    211.90278   0.98844045 
   63700     229.0994    89.988502    126286.34   -39769.906     2850.432   -42620.338    212.12958   0.98897067 
   63800    225.38391     46.32296    126060.46   -39881.253    2804.2043   -42685.457     212.1863   0.99074281 
   63900    226.52928    164.49238    126161.35   -39867.598    2818.4549   -42686.053    212.50398   0.98995048 
   64000    228.01539    51.113195    126070.22   -39832.698    2836.9449   -42669.643    212.70834    0.9906661 
   64100    228.40137    258.61864    126104.31   -39733.368    2841.7472   -42575.116    212.84659   0.99039829 
   64200    229.55843     314.9277    126205.32   -39721.439    2856.1434   -42577.582    213.79213   0.98960561 
   64300    236.18543    157.61047    126292.57   -39621.279    2938.5958   -42559.875    214.10688   0.98892195 
   64400    231.66956    159.15287     126213.3   -39647.129    2882.4097   -42529.538    214.30343   0.98954304 
   64500    236.43054    181.27478    126189.15   -39640.092    2941.6455   -42581.737    214.81446   0.98973244 
   64600     227.6169    263.02095    126214.64    -39696.26     2831.987   -42528.247    214.97349   0.98953255 
   64700    230.14545    344.71365    126242.57    -39712.87    2863.4469   -42576.316    214.96111    0.9893136 
   64800    234.46163    335.64214    126237.23   -39720.947    2917.1484   -42638.095    214.91459   0.98935548 
   64900    231.14361    402.46782    126400.14   -39702.935    2875.8659   -42578.801    215.52939   0.98808032 
   65000    230.48449    58.730483    126514.01   -39669.782    2867.6653   -42537.447    215.96953   0.98719103 
   65100    233.40374  -0.86126098     126205.8   -39698.333    2903.9863   -42602.319    216.13187   0.98960184 
   65200    229.44038    239.94536    126099.21   -39684.943    2854.6745   -42539.618     216.4311   0.99043829 
   65300    227.73952    270.45768    126018.67   -39677.194    2833.5126   -42510.707    216.67836    0.9910713 
   65400     231.8703    182.67162    126095.44   -39584.327    2884.9073   -42469.234    216.97048   0.99046791 
   65500    230.05144   -28.949774    126053.98    -39665.53    2862.2773   -42527.807    217.01669   0.99079374 
   65600    223.79144     233.3289    125996.69   -39693.119     2784.391    -42477.51    217.30425   0.99124426 
   65700    231.27108    27.201889    126120.69    -39743.02    2877.4519   -42620.472       218.03   0.99026964 
   65800     229.3077     248.0174    126111.91   -39752.031    2853.0237   -42605.055    219.11691   0.99033861 
   65900    231.31845    267.96483    126231.22   -39728.267    2878.0413   -42606.308    219.64306   0.98940252 
   66000    233.06667    195.27696     126274.7   -39640.855    2899.7924   -42540.648    219.68668   0.98906189 
   66100    232.26875    171.78449    126241.87   -39602.987    2889.8648   -42492.852    219.81401   0.98931909 
   66200    237.63207    -156.4494    126011.67   -39567.812    2956.5948   -42524.407    220.14003   0.99112641 
   66300    231.81163    74.971062    126002.39   -39595.482    2884.1773    -42479.66    220.25041   0.99119935 
   66400    229.43747    235.59087    125789.24   -39638.936    2854.6384   -42493.574    220.26198   0.99287896 
   66500    231.23338    259.31776    125884.92     -39653.1    2876.9828   -42530.083    220.71573   0.99212436 
   66600    229.88147    146.75364    125959.09   -39683.375    2860.1625   -42543.537    221.32668   0.99154013 
   66700     226.4724    245.34132    126070.06   -39716.849    2817.7472   -42534.596    221.66951   0.99066731 
   66800    232.04965    45.473151    125837.25   -39638.284    2887.1389   -42525.423    222.13431   0.99250014 
[...]
   84600    229.47587    220.71542    126178.97   -39834.258    2855.1161   -42689.375    283.59178   0.98981224 
   84700    223.89858    296.54632    126110.79   -39857.393    2785.7241   -42643.117    284.60949   0.99034741 
   84800    227.39011     122.3998    126030.72   -39829.589    2829.1652   -42658.754    284.71747   0.99097655 
   84900    228.10737    273.23196    126162.52    -39805.93    2838.0894    -42644.02    284.94495   0.98994129 
   85000    231.43688    290.54464    126315.12   -39756.263    2879.5147   -42635.777    285.32256   0.98874537 
   85100    233.77513    135.20312    126207.81   -39767.309    2908.6071   -42675.916    285.37715   0.98958606 
   85200    229.15659    27.415336    126071.97   -39778.128    2851.1436   -42629.271    284.78783   0.99065236 
   85300    227.09484    67.826263    126050.23   -39812.497    2825.4916   -42637.989    285.36281   0.99082322 
   85400    226.73352    244.31691     125947.9   -39789.779    2820.9961   -42610.776    285.50081   0.99162821 
   85500    228.33556    115.94005    126115.35   -39736.681    2840.9285   -42577.609    286.89432   0.99031159 
   85600     228.3741    214.11225    126370.26   -39711.407     2841.408   -42552.815     288.3098   0.98831399 
   85700    227.99416    206.66523     126292.3   -39752.514    2836.6808   -42589.195    288.76368   0.98892406 
   85800    226.24898    245.24421    126442.84   -39759.794    2814.9674   -42574.761    289.36423   0.98774665 
   85900    234.41329    298.50369    126551.76   -39683.773     2916.547    -42600.32    290.11957    0.9868965 
   86000    227.17413    327.64619    126528.49   -39754.387    2826.4781   -42580.865    290.78184   0.98707802 
   86100     232.8706    278.05615       126598    -39751.52     2897.353   -42648.873     291.5873   0.98653609 
   86200    230.77923     277.5154    126674.15   -39718.428    2871.3324    -42589.76    291.56143   0.98594299 
   86300    234.81069    165.91162    126764.84   -39765.412    2921.4914   -42686.903    291.72251    0.9852376 
   86400    226.04934    118.11468    126720.57   -39789.914    2812.4835   -42602.398    291.68667   0.98558182 
   86500    233.58107    231.51027    126663.51   -39771.001    2906.1925   -42677.193    292.00995   0.98602581 
   86600    232.13594   -9.1779906    126586.38   -39709.513    2888.2124   -42597.725     292.1997   0.98662663 
   86700    234.10258    126.96954    126424.96   -39699.586    2912.6812   -42612.267    292.52079   0.98788638 
   86800     229.9888    281.95176    126276.57   -39751.662    2861.4979    -42613.16      292.855    0.9890472 
   86900    228.44935    85.247498    126269.38   -39702.858    2842.3442   -42545.202    293.45687   0.98910351 
   87000    229.51674    175.01451    126423.16   -39696.664    2855.6246   -42552.289    294.32414   0.98790041 
   87100    226.93216     221.8224    126458.59   -39722.186    2823.4676   -42545.653    295.11847   0.98762361 
   87200     231.1476    114.30283    126321.98   -39715.212    2875.9156   -42591.128    295.55339    0.9886917 
   87300    227.26613    300.36155    126375.38   -39713.407    2827.6227   -42541.029     295.9823   0.98827395 
   87400    226.75331    379.26651    126510.02   -39707.564    2821.2423   -42528.807    296.58107   0.98722213 
   87500    230.24306     57.20987    126660.94   -39717.365    2864.6615   -42582.026    297.25117   0.98604581 
   87600    228.76134    123.86929    126746.75   -39724.542    2846.2259   -42570.768    297.81418   0.98537822 
   87700    231.27843    239.20777    126750.71   -39754.281    2877.5434   -42631.824    297.80041   0.98534749 
   87800    229.63575    163.89333    126742.01   -39741.469    2857.1053   -42598.574    298.22944   0.98541513 
   87900    226.22613    134.08593    126640.39   -39780.847    2814.6831    -42595.53    299.43923   0.98620585 
   88000    231.62228    77.469319    126627.02   -39817.674    2881.8215   -42699.495     299.7098   0.98630994 
   88100     231.0146    214.96636    126759.73   -39745.933    2874.2608   -42620.194    299.98929   0.98527737 
   88200    228.79917    253.71488    126664.96   -39718.867    2846.6967   -42565.563    299.99305   0.98601453 
   88300    228.00548     255.7475    126580.09   -39740.852    2836.8216   -42577.673    299.57411   0.98667561 
   88400    223.85248    216.14477    126424.77   -39830.067    2785.1504   -42615.218    299.98613   0.98788786 
   88500    233.37671    275.83268    126630.87   -39721.225    2903.6499   -42624.875    300.76438      0.98628 
   88600     237.1372    222.10392    126764.17    -39685.22    2950.4375   -42635.658    301.45636   0.98524288 
   88700    231.00226     286.8777    126612.24   -39666.465    2874.1072   -42540.572    301.62994    0.9864251 
   88800    236.39087    139.31306    126742.42   -39607.834    2941.1518   -42548.986    301.40539   0.98541193 
   88900    234.70419    215.63813    126640.93   -39661.376    2920.1663   -42581.542    301.67415   0.98620163 
   89000    233.04543    164.13361    126599.92   -39649.182    2899.5282    -42548.71    301.92029   0.98652113 
   89100    229.81147    118.74032    126438.44   -39740.434    2859.2915   -42599.726    302.49119   0.98778098 
   89200    231.48793    307.10111    126405.43   -39774.208      2880.15   -42654.358    302.78764   0.98803901 
   89300    226.91995    78.527748    126302.04   -39795.917    2823.3156   -42619.233    303.06627   0.98884779 
   89400    230.18625    188.76724    126218.43   -39829.205    2863.9546    -42693.16    303.48609   0.98950279 
   89500    225.91749    289.46534    126082.34   -39872.905     2810.843   -42683.748    303.26989   0.99057082 
   89600    223.62014     261.5733    126167.06   -39911.113    2782.2597   -42693.372    304.03923   0.98990567 
   89700    224.56141    160.63222    126224.66   -39877.956    2793.9708   -42671.927    304.20582   0.98945397 
   89800    228.40665      325.042    126259.26   -39823.784     2841.813   -42665.597    304.68831   0.98918284 
   89900    225.05307    218.99289    126311.73   -39865.654    2800.0881   -42665.742    304.72972   0.98877191 
   90000    230.13403    233.23036    126422.17   -39777.592    2863.3049   -42640.897    305.16901   0.98790812 
   90100     229.1588    111.09674    126193.06   -39779.647    2851.1712   -42630.818    305.23819   0.98970177 
   90200    228.19049     110.0267    126144.34   -39812.374    2839.1236   -42651.498    305.51389   0.99008403 
   90300    227.69562    189.11688     126107.5   -39812.348    2832.9664   -42645.314     305.8158   0.99037325 
   90400     229.6703    88.427977    126119.12   -39780.641    2857.5352   -42638.176    307.18028   0.99028194 
   90500    230.92932    272.59436    126208.33   -39768.018    2873.1998   -42641.218     307.4706   0.98958197 
   90600    230.22939    189.93488    126410.39   -39683.222    2864.4913   -42547.714    308.42387   0.98800021 
   90700    230.74935    242.10668    126363.19   -39697.217    2870.9606   -42568.178    308.17303   0.98836927 
   90800    231.62776    176.74241    126496.51   -39752.063    2881.8897   -42633.953    308.54022   0.98732757 
   90900    224.43392    271.13185    126500.63   -39851.817    2792.3846   -42644.201    308.69145   0.98729543 
   91000     228.9488    309.81006    126472.54   -39876.912    2848.5583   -42725.471    308.80384    0.9875147 
   91100    225.94685    135.38096    126427.64   -39848.961    2811.2084    -42660.17    309.32078    0.9878654 
   91200    223.56084    233.47181    126436.25    -39786.92    2781.5218   -42568.441    309.59762   0.98779812 
   91300    234.80444    256.37748     126179.4    -39685.04    2921.4137   -42606.454     309.3094   0.98980889 
   91400    233.93228 -0.030207644    125992.61   -39668.039    2910.5622   -42578.601    309.35637    0.9912763 
   91500    232.22363    278.82657    126034.19   -39679.092    2889.3035   -42568.396    309.91041   0.99094928 
   91600    224.50776    128.46846    126111.78   -39724.272    2793.3033   -42517.575     310.8606   0.99033961 
   91700    230.79884    200.08527    126224.67   -39797.256    2871.5763   -42668.833    311.29286   0.98945393 
   91800    230.89557    75.950279    126267.79    -39767.12    2872.7798     -42639.9    311.43156   0.98911598 
   91900    229.42465    156.55451     126329.9   -39782.642    2854.4788   -42637.121    311.12861   0.98862969 
   92000    226.60644    264.62219     126120.6   -39779.632     2819.415   -42599.047    311.56337   0.99027039 
   92100    229.99445     182.3154    125785.04   -39821.996    2861.5682   -42683.564    311.34282   0.99291214 
   92200    233.05154    227.38575    125995.83   -39761.565    2899.6042   -42661.169    313.08357   0.99125099 
   92300    231.72674    382.30759    125933.62   -39668.914    2883.1212   -42552.035    312.89069   0.99174069 
   92400    236.21585   -88.378699     126076.1   -39683.239    2938.9742   -42622.213    313.30608    0.9906199 
   92500    230.13233    196.30283    126010.24   -39731.502    2863.2837   -42594.786     314.0862    0.9911376 
   92600    233.17815    554.92447     126284.9   -39698.216    2901.1795   -42599.396    315.11722   0.98898202 
   92700    231.09563    195.73399     126367.3   -39685.591     2875.269   -42560.859     315.1539   0.98833711 
   92800    229.65477    202.53461    126449.97   -39731.637     2857.342   -42588.979    315.57867   0.98769096 
   92900    233.51251    105.20507    126687.12   -39698.226    2905.3396   -42603.565    315.92309   0.98584202 
   93000    232.59904    184.98619    126631.66    -39736.83    2893.9743   -42630.805    316.03451   0.98627384 
   93100    232.59337    205.19102    126576.29   -39679.067    2893.9037    -42572.97    316.11991   0.98670528 
   93200    238.06781    53.896433    126342.86   -39698.601    2962.0162   -42660.617    316.00207   0.98852831 
   93300    230.70946    298.89852    126290.64   -39725.274    2870.4642   -42595.738    316.11054   0.98893705 
   93400    228.84321    240.69154    126399.57   -39771.893    2847.2446   -42619.138    316.33613   0.98808478 
   93500    230.22963    28.585651    126419.32   -39824.266    2864.4944   -42688.761    317.11983   0.98793041 
   93600    225.52619    143.46334     126464.9   -39893.039    2805.9745   -42699.014    317.44592   0.98757434 
   93700     225.6522    227.52973    126412.52   -39851.595    2807.5424   -42659.137    317.63018   0.98798359 
   93800    230.32769    185.31028    126339.36   -39830.305    2865.7143   -42696.019    317.86316   0.98855565 
   93900    231.13968   -58.826898    126234.09    -39814.42     2875.817   -42690.237    317.62351   0.98938009 
   94000    231.02292    334.80419    126229.22   -39813.718    2874.3643   -42688.082    317.63824    0.9894182 
   94100    226.99222    141.94204    126363.25   -39823.546    2824.2148   -42647.761    318.24706   0.98836881 
   94200    225.20779    262.43305    126429.28   -39812.954    2802.0131   -42614.967    318.83361    0.9878526 
   94300    228.79145    453.33601    126515.11   -39753.723    2846.6007   -42600.324    319.45248   0.98718238 
   94400    230.03752    102.50772    126517.88   -39736.422    2862.1041   -42598.526    320.29057   0.98716082 
   94500    230.42027    261.23228    126454.53    -39658.52    2866.8662   -42525.386     320.3875   0.98765535 
   94600    231.68792     238.4188    126557.56   -39693.938    2882.6381   -42576.576    320.57372   0.98685126 
   94700    227.53358    202.68767    126596.19   -39740.878    2830.9503   -42571.829    321.20357   0.98655018 
   94800    233.63749    200.78752    126602.93   -39735.446    2906.8946   -42642.341    321.01342    0.9864976 
   94900    231.01774    149.59833    126639.84   -39700.498    2874.2998   -42574.797     321.0984   0.98621014 
   95000    230.19356    250.47699    126557.57   -39675.244    2864.0456    -42539.29    320.62722   0.98685124 
   95100    231.71376    330.58616    126537.65   -39666.163    2882.9597   -42549.123    321.49092   0.98700656 
   95200    230.57025    188.50829    126457.18   -39715.796    2868.7322   -42584.528    322.16326   0.98763467 
   95300    233.42606    141.11658    126292.22    -39620.28     2904.264   -42524.544    322.73009   0.98892469 
   95400    225.98456    203.78228    126437.73   -39687.046    2811.6775   -42498.723    323.00424   0.98778656 
   95500    232.46807    107.08711    126386.74   -39704.544    2892.3447   -42596.889    323.12846   0.98818506 
   95600    232.09582     427.9517    126456.23   -39691.613    2887.7133   -42579.326    323.59307   0.98764206 
   95700    230.74118    72.351234    126247.52    -39747.67     2870.859   -42618.529    324.07037   0.98927477 
   95800    226.12503    10.751989    126381.04    -39787.15    2813.4252   -42600.575    324.03966   0.98822962 
   95900    233.70706    191.48633    126118.33   -39725.145    2907.7601   -42632.905    323.28603   0.99028818 
   96000    230.24685    89.012645    126224.59   -39786.608    2864.7085   -42651.316    323.60019   0.98945451 
   96100    227.85282    30.263465    126246.35   -39719.314    2834.9223   -42554.237    323.99471   0.98928398 
   96200     227.6645    220.04485    126072.95   -39749.404    2832.5792   -42581.983    324.09141    0.9906446 
   96300    232.08259    231.02164    126068.92   -39699.541    2887.5487    -42587.09    324.63507   0.99067628 
   96400    230.52672    343.64107     126194.2   -39679.821    2868.1906   -42548.011    324.84594   0.98969279 
   96500    228.72647    349.59698    126167.63   -39733.568    2845.7921    -42579.36    325.16386   0.98990126 
   96600    231.51014   -11.489297    126225.09   -39731.452    2880.4263   -42611.879    326.06431   0.98945062 
   96700    225.92931    249.12133    126241.97   -39825.665    2810.9902   -42636.656    326.82319   0.98931828 
   96800    226.20414    147.51956    126280.32   -39882.206    2814.4095   -42696.616    326.61313   0.98901787 
   96900    225.67437    346.98557    126299.35   -39828.106    2807.8182   -42635.925    327.19128   0.98886887 
   97000    228.38905     137.6085    126457.49   -39845.347     2841.594   -42686.941    327.76523   0.98763224 
   97100    226.18169    136.67469    126388.56   -39833.715    2814.1302   -42647.845    327.84002   0.98817083 
   97200    227.15766    284.38018    126516.06   -39831.552    2826.2731   -42657.825    328.95124   0.98717499 
   97300    228.89075    44.320915    126330.94   -39835.155    2847.8361   -42682.991    328.81571   0.98862159 
   97400     229.9478    192.62734    126347.46   -39842.306    2860.9878   -42703.294    328.91722   0.98849233 
   97500    230.48176    304.18499    126377.83   -39736.844    2867.6313   -42604.475    329.20396   0.98825473 
   97600    225.85903    354.73113    126494.54   -39795.218    2810.1157   -42605.334    330.08092   0.98734291 
   97700    232.09284    243.19185    126631.46   -39722.216    2887.6762   -42609.892    330.72749   0.98627537 
   97800    233.19536    114.61872    126831.12   -39704.593    2901.3936   -42605.986    331.38661   0.98472276 
   97900    233.23239    196.95656    126937.46   -39669.541    2901.8543   -42571.395    332.11215   0.98389785 
   98000    234.54947    49.910759    127076.11   -39696.741    2918.2413   -42614.982    332.96467   0.98282431 
   98100    232.66361    172.71561    126915.12   -39777.675    2894.7776   -42672.453    333.01087   0.98407101 
   98200       230.72    148.98537    126743.83   -39778.711    2870.5954   -42649.306     333.6022   0.98540094 
   98300    230.84023    295.32017    126821.68   -39797.843    2872.0913   -42669.935    333.68047   0.98479606 
   98400    228.78734    182.57434    126768.85   -39832.062    2846.5495   -42678.611    333.85025   0.98520647 
   98500    228.06181    109.72383    126791.89   -39836.339    2837.5225   -42673.862    334.26864   0.98502745 
   98600    226.05179    120.57169    126570.24   -39854.149    2812.5141   -42666.663    334.45849   0.98675244 
   98700    228.32182    232.35219    126637.03   -39900.652    2840.7575   -42741.409    335.19961   0.98623199 
   98800    223.63031    214.89122    126362.91    -39860.33    2782.3862   -42642.716    334.84995   0.98837147 
   98900    226.97347    224.33094    126351.19   -39872.465    2823.9815   -42696.447    334.81851   0.98846311 
   99000    227.66811    139.23558    126503.97   -39912.133    2832.6241   -42744.757    335.82675   0.98726936 
   99100    231.66959    300.54354    126499.89   -39825.971    2882.4101   -42708.381    335.25405   0.98730116 
   99200    227.86981    271.76909    126361.67   -39828.717    2835.1337   -42663.851    335.80533   0.98838114 
   99300    235.15868    221.31315     126545.4   -39793.606     2925.821   -42719.427     336.2404   0.98694609 
   99400    231.23457    379.10822     126661.9   -39781.231    2876.9977   -42658.229    337.06871   0.98603835 
   99500    233.69885    282.15027    127065.14   -39656.078     2907.658   -42563.736     338.3024   0.98290918 
   99600    230.53826    163.01191    126992.64   -39674.961    2868.3342   -42543.295    338.14996   0.98347035 
   99700    238.26695    149.05358    127132.51   -39680.954    2964.4939   -42645.448    339.10625   0.98238829 
   99800    235.58215    257.08544    127124.82   -39715.203    2931.0898   -42646.293      339.121   0.98244772 
   99900    233.07002    25.968918    126889.94   -39784.355    2899.8342   -42684.189    339.19722   0.98426631 
  100000    228.32782    140.93261    126660.67   -39787.423    2840.8321   -42628.255    338.70262   0.98604795 
  100100    234.05772     268.3741    126702.56    -39694.01     2912.123   -42606.133    338.74846   0.98572196 
  100200    231.28313     27.94009    126703.31   -39703.473    2877.6018   -42581.075    339.01531   0.98571608 
  100300    230.12814    154.76359     126491.8   -39665.751    2863.2316   -42528.982    338.53336    0.9873643 
  100400    231.47357    80.851948    126700.22   -39700.748    2879.9713    -42580.72    339.37104   0.98574017 
  100500    235.06374    351.29886    126390.52   -39612.836    2924.6399   -42537.476     339.2358   0.98815554 
  100600    227.90799    311.29726    126116.52   -39696.476    2835.6086   -42532.085    339.05311   0.99030239 
  100630    230.79419    370.32415    126207.39    -39675.59    2871.5185   -42547.108    339.63249   0.98958938 
Loop time of 99.8412 on 6 procs for 100000 steps with 4175 atoms

Performance: 432.687 ns/day, 0.055 hours/ns, 1001.590 timesteps/s
98.8% CPU use with 6 MPI tasks x no OpenMP threads

MPI task timing breakdown:
Section |  min time  |  avg time  |  max time  |%varavg| %total
---------------------------------------------------------------
Pair    | 81.106     | 82.123     | 82.717     |   5.6 | 82.25
Neigh   | 5.3769     | 5.3932     | 5.4102     |   0.5 |  5.40
Comm    | 8.9217     | 9.5708     | 10.614     |  17.1 |  9.59
Output  | 0.19653    | 0.19769    | 0.20302    |   0.5 |  0.20
Modify  | 1.8491     | 1.877      | 1.8952     |   1.2 |  1.88
Other   |            | 0.6793     |            |       |  0.68

Nlocal:        695.833 ave         701 max         691 min
Histogram: 1 0 1 0 1 0 1 1 0 1
Nghost:        1488.33 ave        1511 max        1475 min
Histogram: 3 0 1 0 0 0 0 0 1 1
Neighs:        0.00000 ave           0 max           0 min
Histogram: 6 0 0 0 0 0 0 0 0 0
FullNghs:      19956.7 ave       20046 max       19805 min
Histogram: 1 1 0 0 0 0 0 0 2 2

Total # of neighbors = 119740
Ave neighs/atom = 28.680240
Neighbor list builds = 5827
Dangerous builds = 0

undump              1
unfix               2
unfix               3
unfix               4


################################################
#######         Run Simulation         #########
################################################

reset_timestep      0
log                 log.run_${NAME}
log                 log.run_liquid_density_MLmW
