LAMMPS data file via write_data, version 29 Oct 2020, timestep = 800000

4175 atoms
1 atom types

-0.5869315512068489 50.58693155120562 xlo xhi
-0.5869315512068489 50.58693155120562 ylo yhi
-0.5869315512068489 50.58693155120562 zlo zhi

Masses

1 18.015

Atoms # atomic

3794 1 1.3673834794454278 1.15476151194729 1.3858746716774244 0 1 1
1633 1 3.8942131036357868 2.050234616307457 1.6773651598300896 0 0 1
3914 1 9.872769806402399 2.155344619865614 2.0405093400841325 0 1 1
474 1 34.6683136881187 16.906653054398312 -0.2693916858261886 0 0 0
3515 1 18.645548221068218 2.6127270171793975 1.3510591428528977 0 1 1
2339 1 43.45124741155607 24.80363541135658 8.379510847112579 0 0 0
2177 1 5.903293084472487 24.32852015768001 15.476620498724937 0 0 0
269 1 25.15973249148891 0.17726062321349212 1.0498097420718298 0 0 0
2011 1 24.79717167524933 2.227082212243675 2.6595598979764423 0 0 1
2036 1 48.19937201877872 22.609843173872374 14.753915375035831 0 0 0
1848 1 13.072527972333337 7.0197996662997975 -0.14384628202070532 0 0 1
2767 1 30.211490380371494 24.52919869855336 13.55075271480661 0 0 0
1674 1 30.368757342879665 0.17061873177185582 0.7861218671469439 0 0 1
3376 1 33.59521461734977 2.3655334233267897 0.317671035268945 0 1 1
2467 1 34.986551585581324 0.26407214912977406 1.347985864873303 -1 1 0
1488 1 37.69291632819365 0.9973499704051674 0.8521398498337349 0 0 1
2792 1 44.36649569047768 2.179305929929899 1.3953748514628945 0 1 0
2071 1 27.712501200937623 0.2873848993756696 -0.3615336439873299 0 0 1
35 1 46.765407173122924 2.2419325916924118 3.578476781859126 0 0 0
683 1 4.1005353516678005 4.853549170353681 1.4123820183983902 0 0 0
127 1 6.694739840779266 5.244728765937366 2.0191022730678494 0 0 0
1505 1 9.219065336484308 4.51994754377017 0.8234036560037394 0 0 1
312 1 43.47994896995732 5.999060628064304 -0.3904156371273496 0 0 0
238 1 12.430397488173924 2.935311626084416 2.954356372612404 0 0 0
1773 1 15.476449000553199 5.461133248626696 0.22799723488520018 0 0 1
1446 1 20.841628544283612 4.1979823141680725 0.2279762209479509 0 0 1
4031 1 23.85617188362772 3.7236072885667797 0.629394752841923 0 1 1
1594 1 28.33679460070587 4.239898078780493 1.7535743999721354 0 0 1
28 1 31.160371596791304 2.8722364978098156 1.5101630109432906 0 0 0
58 1 31.523218916531466 5.6259409373553755 0.8074998126942814 0 0 0
962 1 34.4222815853515 5.030174202052439 0.4331899741872871 0 0 1
69 1 36.14603213752781 5.147905278517026 2.5747387568543094 0 0 0
552 1 38.41640718286715 3.4099978250896297 2.159928299109794 0 0 0
121 1 40.21039510930353 4.627727475859013 0.23010554449243148 0 0 0
2770 1 42.57610363021182 4.235484781173482 1.8602316075846912 -1 1 0
451 1 48.6272912316297 3.8330804588934395 2.2528834134713573 0 0 0
851 1 1.0593469420574793 7.939642789366216 2.5437472666776557 0 0 1
1841 1 3.0078094981516093 9.07333031562872 0.7600127372853629 0 0 1
1476 1 7.299936324638841 7.771934849945888 1.281908384142637 1 0 1
191 1 9.865118602071263 8.898344964441788 2.185274763070329 0 0 0
3700 1 10.954439272760256 6.54086749775738 1.464784003745775 0 0 1
1384 1 26.80898234592472 3.014931541128585 -0.2697216745712396 0 0 1
1786 1 11.117542157391954 -0.4740106767368335 5.842649124382713 0 0 1
3595 1 26.691619231788767 6.130665571708694 0.1170464064812029 0 1 1
1419 1 24.029493157987172 6.695687303237465 0.27821815819390605 0 0 1
102 1 27.18736626370904 8.976785853693642 0.6828343105279144 0 0 0
3650 1 29.423097591188434 6.689236784447573 2.812539813594252 0 1 1
1567 1 33.1834357718657 7.951781339421586 0.9453646467846621 0 0 1
511 1 37.98651822187489 7.409637231936267 2.699474384830159 0 0 0
2763 1 12.484321267848953 1.8067956068282673 0.1294809330861595 0 1 0
1851 1 45.60329171854352 7.321378528685327 0.6751476087578123 0 0 1
659 1 47.959572076252044 6.160958426392784 0.6158148295163468 0 0 0
227 1 49.87054197303853 8.17566770051039 0.773127686508986 -1 0 0
2326 1 2.8681352373119133 11.796486526718406 0.5912256015065132 0 1 0
187 1 5.370156964097881 9.604867412400262 2.2905855260806876 1 0 0
477 1 6.775197148378586 11.682784880511946 0.9748512607848818 0 0 0
2797 1 20.309252417778225 0.12303875118440544 1.0317259794299323 0 1 0
32 1 12.454568340327757 10.09869648778783 0.9685423685933958 0 0 0
468 1 11.51994251418563 12.77228931912345 0.779510151177734 0 0 0
239 1 19.346944132354047 8.89113080968808 2.3710600306461704 0 0 0
717 1 17.424220258784416 11.202030471925449 0.9087434477196332 0 0 0
600 1 21.94405638524716 9.488751270021535 2.5425294164768086 0 0 0
1542 1 23.213557056315093 10.423102796209253 0.2978176936992234 0 0 1
230 1 24.675774465024755 11.62766296505812 2.4783638187423915 0 0 0
1804 1 30.21261461872336 8.806284773570884 0.6336682660672115 0 0 1
1607 1 30.435193843718423 11.207763158715931 2.0719704072666856 0 0 1
2705 1 38.19737752267487 -0.2615011680090472 15.30596605062095 0 1 0
341 1 40.56684904968449 11.817911829489187 0.1971557149999399 0 0 0
1677 1 42.28160967365051 9.924636177596634 1.2023477104163547 0 0 1
553 1 44.37172805310857 11.845843343624727 1.3490486353319793 0 0 0
1976 1 46.547934499064766 10.071904790825457 0.6126200830966668 -1 0 1
2037 1 49.329886799475716 10.986794744338523 1.1524683461571015 0 0 1
2914 1 4.676599805433742 15.641438727983179 1.9829822229235172 1 0 1
17 1 6.949333269475241 14.28412057269388 1.1966150493721437 0 0 0
457 1 22.975083988773928 23.254095593583376 -0.23174700349300775 0 0 0
1533 1 14.065413303325794 14.032394766666647 0.40662539889140026 0 0 1
678 1 19.23827266459807 13.46665325351181 0.8841180894575702 0 0 0
1826 1 21.780395207553784 12.990777671459377 0.23767289887229925 0 0 1
274 1 25.402632554526967 13.857547098016129 0.8920746781205757 0 0 0
568 1 29.689853363133377 13.993467451828588 1.197917359215031 0 0 0
1964 1 35.09596949978679 12.343162628277112 1.8536202520144887 0 0 1
294 1 35.396101872858736 15.070659005376392 1.7248549340820034 0 0 0
1515 1 40.325058997976114 13.83676039949905 2.0957096043775216 0 0 1
1720 1 45.049607055702864 14.637661283781329 1.4476408039957485 0 0 1
353 1 49.35834208869689 15.98955256118606 0.33474642859321857 0 0 0
2546 1 4.003256883453928 17.065552855602416 -0.2472511172115625 0 1 0
302 1 1.6905928221687483 18.376972589087824 -0.20579733183007853 0 0 0
292 1 0.7890868846684012 18.55788128418314 2.380978325270817 1 0 0
2161 1 49.15872881505412 13.455568509260381 -0.36877058289436193 -1 1 0
97 1 9.878072131399998 17.88992230493073 0.33081700361515354 0 0 0
214 1 16.16731796563613 17.932058319150936 2.9912387449680553 0 0 0
276 1 15.689817139667241 17.043911575425877 -0.019534450041535978 0 0 0
2956 1 33.81818172541057 1.1314795065307062 14.188807606211608 0 1 0
1681 1 20.51073287329618 18.416724925399063 2.2385957936942926 0 0 1
2786 1 0.36660768386539044 0.5839412476373114 4.8144287583348495 1 1 0
1619 1 23.203868126381504 15.355739823320167 0.8417034133105261 0 0 1
1719 1 27.55823569078521 15.847468290802919 1.2648168515921614 0 0 1
2000 1 31.242713281880604 16.068954337516093 2.721514580459589 0 0 1
1465 1 30.980622113281328 4.094297018890199 15.080666274341752 0 0 1
1781 1 38.702024090158574 16.201593461317206 0.02663566019376118 0 0 1
2016 1 41.49788292741874 16.807071260274636 0.15773010125392695 -1 0 1
1473 1 42.58030115316514 15.547334203874598 2.1734117729723907 0 0 1
2364 1 47.29632920063409 17.71652968459541 0.7911078996741163 -1 0 0
476 1 -0.5232498640902747 21.240505519023888 2.331559628127797 0 0 0
2055 1 5.113259449342379 22.461858133599282 1.5889073570713368 0 0 1
2342 1 6.425758619633934 20.055835556354676 1.713286944432474 0 0 0
2805 1 9.507938853478192 22.567423317725538 2.7706620278005825 0 0 0
3952 1 20.373115144408303 24.917096172672757 9.304938068867193 0 0 1
4131 1 12.043526363309747 22.049450605775817 1.6658327433963542 0 0 1
2453 1 16.1792521539564 21.65109090747506 1.869335621299438 0 0 0
3915 1 20.272325770808244 22.598525764865904 0.3771936109948091 0 0 1
2511 1 24.97224669243445 21.009160362947682 2.271616056935287 0 0 0
1877 1 28.737977799505202 20.089350848188367 0.6118718841130024 0 0 1
2602 1 30.936967071826437 18.943198204305332 2.0219318196134273 0 0 0
125 1 35.14992867319083 22.12877324716135 1.8654119598814107 0 0 0
2514 1 36.85580949114792 19.639187146353024 2.0671197767093803 -1 0 0
65 1 41.39532556783706 19.45401731684244 0.7421368461910332 0 0 0
2796 1 43.30074506765651 19.85814603825055 2.8098846602376617 0 0 0
4139 1 45.69540875452125 20.152867498198372 1.5708941312603297 0 0 1
340 1 -0.43710568631429814 22.555328834846662 -0.2158697988793588 0 0 0
181 1 25.50138996436028 6.20462863219467 16.325780016733415 0 0 0
402 1 7.370246722938345 23.692618011912703 1.3913233365891322 1 0 0
2117 1 12.548392248849392 24.640604386340094 0.5707520912916948 0 0 0
1641 1 16.29359246156812 24.254555000668763 2.2001244793305874 0 0 1
3874 1 18.369772942567035 24.806410256813784 0.4456667965634622 0 0 1
2280 1 16.51733848021592 0.023401845424164236 11.20539970928006 0 1 0
2042 1 22.60524173960461 24.401638241938407 2.2794938515057264 0 0 1
694 1 27.165604892822657 24.743114328411924 2.1908500945952443 0 0 0
342 1 20.75481882817854 17.25781177349919 -0.11471154963823216 0 0 0
874 1 32.34814271054613 21.714736129800386 2.3086244587093665 0 0 0
2601 1 30.49771985129999 22.173488265108563 0.12222693891576764 0 0 0
322 1 47.35332485331337 13.596999440778003 16.225999737895616 0 0 0
2801 1 47.19208650172142 -0.5585049982106755 3.52716650333708 0 1 0
672 1 40.583505954671296 23.79562808488473 2.379590434648956 -1 0 0
416 1 21.659355319643293 24.387293398142543 6.771273168969926 0 0 0
1523 1 44.7388063527425 22.860340273299435 0.7027583795843912 0 0 1
2737 1 10.590548434515728 -0.37448890885702635 14.35851760197921 0 1 0
3033 1 47.40012634968964 24.422707815269916 0.5460037303766927 0 0 0
4127 1 44.610677373606705 -0.018162178481318403 4.9067941202188425 0 1 1
48 1 3.1418588613191556 0.6633260321576149 5.782503115167119 0 0 0
301 1 5.152232130812538 1.2092690181721464 4.034367397913393 0 0 0
3879 1 7.211610174279466 2.1663747003970073 5.534870815219618 0 1 1
289 1 9.800104954306251 1.8877641950352144 4.934932122520223 0 0 0
2816 1 14.494598412729207 1.7157769435712371 4.370220660742518 0 1 0
599 1 18.359411610984104 1.9974311637134834 5.486238587292395 0 0 0
1969 1 22.645542241833112 1.3475321515917082 4.517212346330719 0 0 1
2237 1 27.06308724001866 0.8191519570020098 5.60908481793105 0 1 0
2350 1 31.072360157647456 0.8319330589216283 5.387078078326018 0 1 0
1874 1 35.33551697042981 1.082304434730975 5.326249746689722 0 0 1
1814 1 38.096891019039504 0.9099030732815385 6.2556644202030185 0 0 1
1771 1 39.597142954175396 2.1572177084892505 4.306168759350979 0 0 1
465 1 1.58007251415845 18.413011275805037 15.701317708032573 0 0 0
2753 1 49.466093304455114 3.9010943184867344 5.542812333493473 0 1 0
2382 1 1.1908283610891892 3.6411939162522886 5.600328150068709 1 1 0
380 1 0.24830425278654034 3.310439599779014 2.8758393163787677 0 0 0
31 1 2.2950563157055184 5.4799527236975685 3.461984892155143 0 0 0
2594 1 4.148587692110514 5.439590210891411 5.562727036773662 0 1 0
2667 1 6.758510166257779 4.618283319923388 4.656717277179682 0 1 0
554 1 12.226466126090065 5.445889041464775 3.4327963975792324 0 0 0
641 1 16.79864825674253 3.2171257654491447 3.3767081104242154 0 0 0
1531 1 16.207202727284184 5.784925871590688 2.849982470454808 0 0 1
182 1 21.31627343589984 5.25753325280608 2.9275204971181434 0 0 0
2462 1 20.84873120281819 3.4338332795721858 5.103539999498574 0 1 0
170 1 25.998098444831808 5.442845635392452 5.880296546972718 0 0 0
225 1 26.859761034175477 3.4807048991588854 4.2547851253070155 0 0 0
4145 1 29.55627413311603 3.4639245074767064 5.539742867302904 0 1 1
1202 1 31.962554100187976 3.594406082865558 4.054358986488381 0 0 1
3596 1 34.83811358361547 3.8025290413675448 4.773367750698342 0 1 1
43 1 34.818003056516204 5.581994563511523 6.991588408294545 0 0 0
4112 1 41.11446787596901 3.6832313353437156 5.898090012537691 0 1 1
3552 1 42.27703477687797 5.61207098238156 4.111654560943929 0 1 1
164 1 46.18327692906604 4.163119032431577 5.64075534771584 0 0 0
2626 1 47.273070120388354 6.037930730306516 3.9004543130745413 0 0 0
344 1 1.6599510606097452 8.243614358255414 5.341002604712212 0 0 0
1057 1 14.170754394909768 7.0058299557815165 4.200784284449721 0 0 0
2776 1 18.791461476565196 6.434612212427806 3.825113025082155 0 1 0
139 1 18.284594677961998 7.747672734306294 6.2124176434196094 0 0 0
1597 1 23.18640380737643 7.0940275747209265 2.782722696877657 0 0 1
1712 1 24.86751326356817 7.888890415555709 4.589902501243938 0 0 1
1557 1 31.744692084793034 6.385558074959974 4.571346390263374 0 0 1
195 1 29.883166039311895 8.478016886136173 5.676769770170046 0 0 0
2038 1 33.56486784078544 8.55030813683832 3.6160604824349765 0 0 1
1801 1 36.30290464167808 8.89829104732081 4.281510342153286 0 0 1
1510 1 36.43947161762175 8.119176968136687 6.932239858859416 -1 0 1
438 1 40.41005370730332 7.578293432275638 4.2183057428750494 0 0 0
582 1 39.16899209865102 7.646945542088284 6.708555537444885 0 0 0
3460 1 44.79756990221671 6.805604883368746 3.4123582792538354 0 1 0
795 1 48.59064034462851 7.708848967835868 5.775512325327226 -1 0 0
198 1 5.627593302546017 10.013460380047926 5.018637473282057 0 0 0
371 1 7.99441754754225 9.214072002843912 5.962444189126378 1 0 0
311 1 9.896489075080328 10.463387389977978 4.40800502517674 0 0 0
459 1 13.655110402376142 9.803220283235659 3.402719867002291 0 0 0
357 1 12.209681963752496 10.171972314085986 5.8301644495287395 1 0 0
265 1 15.966428537231657 11.189662842919722 3.259051340697601 0 0 0
1262 1 21.920461930351188 10.985861174060155 4.899754114084173 0 0 0
374 1 26.38612505218445 9.731737234763312 3.3288914275529407 0 0 0
60 1 28.711672283182338 10.848642317038493 4.304573734173205 0 0 0
1704 1 32.77995181454118 11.382953276676195 3.3402379254479744 0 0 1
2263 1 37.56870721652204 11.064924932483075 3.3016868091560383 0 1 0
366 1 41.59766068768799 9.987339443899497 3.821339437094373 0 0 0
1595 1 40.00604744972672 12.242214429158988 4.406863441846726 0 0 1
10 1 44.210857873110186 9.37694871022013 4.6092721072265945 0 0 0
983 1 45.43728259483741 11.736818261442615 3.868881531478956 0 0 0
1180 1 49.90909527628949 11.821681177954849 3.5989836574783505 0 0 0
1253 1 50.14624020153211 9.936843865830701 5.542176917388185 0 0 0
1899 1 0.4169736811262741 14.006482532488612 4.132521685730544 1 0 1
535 1 2.9072554061590883 13.474511029296478 3.107396600024557 1 0 0
2785 1 4.626899586708737 12.879779711443513 5.4143004613866195 1 1 0
603 1 7.041918501151528 14.209731825245795 5.599763535518523 1 0 0
2787 1 8.254035325346049 14.964356981487057 3.3594576518063457 1 0 0
33 1 10.385858588807995 13.128171646719737 3.169357555484567 0 0 0
1577 1 12.596832892278941 13.974007416803966 4.605671860345906 0 0 1
3975 1 14.810325290428839 13.761342741038655 3.019364078477784 0 1 1
2538 1 16.761254973938307 15.369783056205582 4.028985794885385 0 0 0
622 1 19.57429411680509 12.199802154846873 5.526742399549846 0 0 0
693 1 19.16238121335055 14.197886645301221 3.48986612053427 0 0 0
3424 1 23.7806629532663 13.002649060582419 4.8087699394661225 0 0 0
140 1 32.492232576466506 12.736380099549264 5.826749485881831 0 0 0
2398 1 34.57097057256105 14.21061923557163 5.576354507570204 0 1 0
460 1 37.084046687982465 13.174470284187484 5.2224662194380755 0 0 0
46 1 37.939505469931646 15.137481428321712 2.714491165434279 0 0 0
1820 1 40.86690525612174 13.961598964031452 6.514418090869234 0 0 1
304 1 43.429391831298304 12.948474221069707 6.034876843668807 0 0 0
1805 1 47.71576946185954 13.315590882159283 4.132963513924541 0 0 1
1478 1 46.918880270674265 15.839761406521916 3.0227594462939558 0 0 1
938 1 5.030664596001964 18.195967720922123 3.251083283021961 0 0 0
30 1 6.488476765356585 16.890954489665422 5.718995184174878 1 0 0
271 1 9.570576254675775 17.432424433118264 3.051722704644672 0 0 0
3740 1 11.993292186894935 16.673734712328965 4.3103129295062 0 0 1
2584 1 13.988485205110507 18.31636837065747 4.708056400189576 0 0 0
709 1 20.655361564199456 16.40293407166629 4.112323186087959 0 0 0
1652 1 23.19073437677783 15.498320295698463 3.7649433322192376 0 0 1
348 1 24.889669906516698 17.27298361866453 5.104435178717629 0 0 0
2878 1 27.181251366727427 17.179721736464202 3.823323891650377 0 0 0
355 1 29.852749282496116 16.63284158889038 4.974675472429942 0 0 0
85 1 31.24902713504673 18.617901048899476 6.129838256760552 0 0 0
2284 1 34.98085128623043 18.608863531682932 3.8995269708648763 0 0 0
645 1 33.87174200649254 16.124796305680967 3.775112580962782 0 0 0
1813 1 38.54115359312755 17.15367220404318 4.417730917567059 0 0 1
2113 1 40.91549908623365 16.576363167096986 5.64550648078387 0 0 0
1188 1 43.262128365545934 17.467591499801507 4.01885569541961 0 0 0
2625 1 45.91823071591851 17.14032325236101 4.897973054636703 0 0 0
666 1 50.201859931830256 16.382526315689347 3.228758100501874 0 0 0
559 1 49.95377551066461 17.485305778308074 5.871812013561001 0 0 0
2889 1 2.6910601739969793 19.115725734328343 4.288074608839686 0 0 0
2755 1 7.405278142753952 21.72288674592272 5.736955052368771 0 0 0
1159 1 8.432749901191958 20.075168570452046 3.687291088888635 0 0 0
501 1 14.020250608291374 20.98365020308899 3.4988513819046956 0 0 0
1763 1 18.282829064549798 19.854554180424294 3.2207460509879984 0 0 1
2500 1 17.9787883553396 19.104824590742965 5.9285376270258725 0 0 0
1815 1 22.48774947420059 20.346551551587726 3.3792068764380625 0 0 1
1779 1 23.660701739554007 19.573586720047945 5.588323735082741 0 0 1
1737 1 27.440196331038315 20.136589444089317 3.1383999149781534 0 0 1
11 1 27.76371461660628 21.78131553799837 5.451780990389462 0 0 0
512 1 32.81414677258624 20.059008140705792 4.494464323597115 0 0 0
862 1 39.40164180099873 19.44707329656158 2.849687292660466 0 0 0
3095 1 40.775118710719 21.56091132964179 3.898892199259988 0 0 0
25 1 43.56441218087589 21.786545373250842 4.605673792756535 0 0 0
1494 1 47.84130825311419 21.139662590996757 3.462532663049597 0 0 1
1360 1 47.811266010601926 19.294373172299554 5.564271350582782 0 0 0
3615 1 0.34146714485137664 23.250559695143092 4.194391298356577 0 0 1
1197 1 40.43498613180256 19.16757303157009 15.157264727325527 -1 0 0
2227 1 3.0788307132371187 22.110313366770058 3.810307933193741 0 0 0
23 1 9.026625441009422 10.544227771452405 -0.11729029065512037 1 0 0
2600 1 9.824704382486168 23.691521435760436 4.989965850418836 0 0 0
2570 1 13.628028587418887 22.568964265079618 5.9077373390215335 0 0 0
2860 1 17.587180027080482 23.894581018571582 13.897192935916033 0 0 0
2073 1 19.441717912601685 23.485997916124887 5.426111127274876 0 0 1
1631 1 20.186348678439973 22.095251764083905 3.1943106219214217 0 0 1
122 1 24.94629586168793 22.11918898504123 5.642291555008579 0 0 0
79 1 24.940436444814154 23.499274407307446 3.147808576395516 0 0 0
253 1 28.85378686366283 24.050401507107825 4.4153254579664045 0 0 0
2 1 31.525859748103667 23.790670199701623 4.1066136865458835 0 0 0
1945 1 35.97171392388911 24.565856307656603 3.1921096087157084 0 0 1
545 1 44.260790356183364 24.218714383025155 4.1059263511998605 0 0 0
2446 1 46.78822106382921 23.36691856472844 5.005093031046511 0 0 0
212 1 14.80931945053646 23.834083596262612 14.831757345979948 0 0 0
710 1 37.75032891570278 24.78946347836055 9.829012790058364 0 0 0
2717 1 24.781221965944233 -0.4365190355059061 14.820932844202506 0 1 0
2059 1 31.908539090922584 1.548495794920719 16.315264473866392 0 0 1
4029 1 7.420731362416783 1.3259553217696827 8.210649249469844 1 1 1
2434 1 9.920910067297203 2.605559243656923 8.974335078105916 0 1 0
2605 1 14.085600507606188 2.7793114566497152 6.942694594538033 1 1 0
2340 1 40.21933294452127 23.286831557415695 15.937862012839616 0 0 0
3073 1 15.90669064006238 0.6097251309161071 8.551542495232527 0 1 0
3838 1 17.563527579427934 2.6925628600291747 7.944799179736021 0 1 1
2768 1 24.166201588895625 0.43224230070430103 6.608735984340293 0 1 0
114 1 25.41726406396623 2.097363593348577 8.220537972854064 0 0 0
605 1 29.091431429322984 0.16239522036726328 7.163548539164126 0 0 0
2702 1 28.198908431715132 1.9512030588967848 9.031453045236916 0 1 0
674 1 33.30572773350609 0.21592393454181003 6.938564047252128 0 0 0
2716 1 33.83171234311065 0.5174633241329833 9.725838566738231 0 1 0
1257 1 8.288372173282092 15.458918501961318 15.50193313626437 0 0 0
923 1 41.91210825751264 0.3289269729347568 8.570462112334539 0 0 0
388 1 48.28278493577085 1.8555697954166432 7.008826898458725 0 0 0
1689 1 2.373040918480618 2.2776006017811117 7.99643655856703 1 0 1
2435 1 4.01944571256413 4.3688524403570375 8.21773389458553 1 1 0
324 1 11.282231107114388 3.4540642206780667 6.729857309611729 0 0 0
1979 1 15.534037141996954 4.585055205857956 8.482014542164643 0 0 1
2127 1 20.18428079869184 3.242441202723856 9.300802151482017 0 1 0
317 1 21.492175609244082 4.686887583497642 7.511577041812373 0 0 0
427 1 24.404160952312196 4.575667603515407 7.973076984576782 0 0 0
2091 1 29.23313770605679 4.559736489342793 8.505702003782886 0 0 1
1707 1 31.592010070943143 2.6940580718330636 8.146947028146364 0 0 1
1002 1 36.96387423162987 4.247695713543555 8.553841883683253 0 0 0
2723 1 39.5364996351678 5.049173264492247 7.841705451344836 -1 1 0
337 1 43.28943503063094 1.7770778916280525 6.821363836080977 0 0 0
2130 1 43.758775829442754 5.76444000148513 6.6180625262053185 0 1 0
401 1 45.621721981252364 2.4784767803657326 7.845756593429785 0 0 0
1244 1 49.33576779181864 5.892033285488223 7.441438225531082 -1 0 1
318 1 0.0564659616137867 6.873955755617567 10.0619614224973 0 0 0
200 1 2.8286770949355695 6.598319048511495 9.672233072334402 1 0 0
398 1 4.2874445850203395 8.202962609253385 6.529330906427578 0 0 0
502 1 4.6452323023986075 8.906249768274462 9.664254379242033 0 0 0
297 1 8.307601125936703 6.5208055426489855 6.236768648534724 0 0 0
16 1 10.984923643473401 5.995388766792614 5.986241724668114 1 0 0
609 1 8.420802849959637 6.370884262826965 9.180636805734117 1 0 0
373 1 12.200738133757566 7.969591953147161 7.441083814986827 0 0 0
410 1 15.774517823310234 6.577113945637026 6.4779471014104635 0 0 0
203 1 14.856158595585086 8.529490543573493 8.107674584213186 0 0 0
110 1 20.767184451556016 7.297925750283857 7.344496004831641 0 0 0
2049 1 28.183731234987462 6.967953304810558 7.170035361440309 0 0 1
527 1 27.283631272493075 8.906692433140357 8.490891804652659 0 0 0
1503 1 31.796281469719613 5.804337972260361 7.5976779371943195 0 0 1
1647 1 40.89101069303946 6.247717135984622 10.017315042196405 0 0 1
498 1 39.896876356240256 8.941136520226214 10.156245448805926 0 0 0
208 1 43.615396142961586 6.599381927383706 9.557173522099344 0 0 0
1806 1 47.15511153526879 7.466156314086453 10.189415846632576 -1 0 1
1559 1 1.1847476255307248 6.128326546304872 7.092386773010103 1 0 1
19 1 5.6454194962874285 11.168826046329198 7.93817061272809 0 0 0
1321 1 10.634393597789844 12.162415612438947 8.723005352314164 0 0 0
1808 1 15.522750285721976 11.078037751441059 7.4513176129875855 0 0 1
706 1 17.397392886236073 10.402734954202636 5.53577991640987 0 0 0
639 1 23.036809981032274 9.053913922589812 6.418828716654457 0 0 0
467 1 24.33546248062132 9.703736060913126 8.740940802347541 0 0 0
1329 1 29.21623826664179 10.95918091940977 8.439167718834334 0 0 0
1526 1 31.439485024379 9.361442394926378 8.044017778140912 0 0 1
1434 1 33.38632537824857 11.36118306318737 8.128951192781692 0 0 1
489 1 35.89012936874626 10.387816006165334 8.451162064260622 0 0 0
579 1 40.00650331835101 10.114678805819386 7.810558718270993 0 0 0
475 1 42.82576310252766 10.902252073474205 7.970083103675162 0 0 0
1649 1 44.208933089355625 8.463089447036456 7.141194421998878 0 0 1
166 1 46.758478962983745 8.815476455754862 7.750029824592936 0 0 0
453 1 47.29868241200349 11.523884803334896 8.451511729637758 -1 0 0
20 1 50.32149190790997 11.405220976740315 7.811207939890581 0 0 0
447 1 0.346031089215307 13.816400656024534 7.221804236840666 0 0 0
626 1 3.186142301502348 14.080081449019232 7.488909633801134 0 0 0
196 1 8.217325357166986 10.550414665439648 8.414515049889358 0 0 0
492 1 12.67207292690361 12.512529170534583 6.92497304411377 0 0 0
90 1 13.49858989435216 15.261747060464904 7.8110891887206915 0 0 0
369 1 19.784771922288954 12.860891680336904 8.055542909616452 0 0 0
234 1 25.53442826566031 13.473460697043965 6.984760363330969 0 0 0
1543 1 24.606795611731712 12.48736359587788 9.428336764855398 0 0 1
130 1 28.168405946253223 12.811167925297287 6.455671584722318 0 0 0
179 1 30.333328587013572 14.426646755345148 6.282504919008164 0 0 0
1553 1 37.986673161527804 12.030190945221639 7.523378827881219 0 0 1
407 1 45.14493079631869 15.18857263406495 6.772868952492056 -1 0 0
648 1 47.52828089729539 13.798828616526174 6.783884275971095 -1 0 0
510 1 49.472978871021255 15.520638889751304 7.494787967978345 0 0 0
2139 1 1.6430441897457388 18.284722935004392 6.705268105826897 1 0 0
471 1 4.072983192084905 16.71337937507522 7.340045711934188 1 0 0
656 1 8.692029720730265 13.8559430840383 7.818371198329915 0 0 0
186 1 8.54599441474493 16.885803990343454 7.694589422273635 0 0 0
865 1 11.29541818437961 16.95217106889404 7.174867866181005 0 0 0
628 1 15.743123041572353 17.624068847063615 6.561701611963288 0 0 0
2188 1 16.227004273703777 14.489741041485674 6.585754930309053 0 0 0
347 1 18.602949713278136 15.215120936666189 8.190373730744458 0 0 0
887 1 20.094873044110027 17.23423781078725 6.795014354636693 0 0 0
365 1 23.423451798069202 16.38020752047056 9.014769084063063 0 0 0
3310 1 25.79246557260027 15.9763016805632 7.55316864819318 0 0 0
697 1 28.274385731782456 16.946001018627932 8.48619550918991 0 0 0
562 1 30.68622776264259 15.650578592209317 8.731124009603308 0 0 0
93 1 32.764890058553206 17.4256271612206 8.158693397707664 0 0 0
515 1 35.236045826308 16.17972740954402 7.411556040589089 0 0 0
653 1 36.454091931287266 18.339198459359455 6.24465643305637 0 0 0
2988 1 40.36124916340867 17.769966203128508 8.031027925560583 0 0 0
500 1 44.32352942029928 16.55339337775059 8.996665318748255 0 0 0
415 1 0.9192885324440345 19.96980801351106 8.878023597203217 0 0 0
81 1 50.35960047215285 22.21575984930737 8.965922282372832 -1 0 0
2185 1 3.4902096693100706 21.381817683307318 8.951256699740727 1 0 0
142 1 7.8507475712735815 19.88453490169187 8.040349600293197 0 0 0
505 1 10.329654395755927 20.886284945682874 9.105721006751596 1 0 0
4125 1 12.07598592230741 18.61814504471643 9.030781199989553 0 0 1
429 1 14.771795748583136 18.943874625523268 8.542710513556708 0 0 0
1078 1 22.323245066117575 18.512884007998874 7.869744069762623 0 0 0
820 1 28.223066354795787 19.786130297971877 9.519758131638572 0 0 0
399 1 29.608217986425444 20.64749579291297 7.149872940536795 0 0 0
1863 1 33.94844447355035 22.077118679381226 6.568574006006456 0 0 1
3977 1 38.40435253615989 19.87449810019422 7.585670200450934 0 0 1
378 1 42.76675185451815 18.666660006438995 8.970413539147778 0 0 0
261 1 43.77709362175656 20.872416415370793 7.327199014904922 0 0 0
3439 1 46.21507470109347 22.249572982885994 7.683721858348033 0 0 0
59 1 48.02564925445563 20.533665243494873 8.418267286724848 -1 0 0
442 1 0.2877731513470613 24.16291837509086 7.084026517238024 1 0 0
3436 1 4.6436222844632935 22.213764228384424 6.060009042038191 1 0 0
3083 1 11.393548214059399 22.73778363399276 7.457604512963526 0 0 0
3519 1 15.45849380587208 21.79472700499063 7.6827681483260815 0 0 1
2740 1 8.848348493948489 24.990907623370383 11.113154581829553 0 0 0
1886 1 18.089674724378213 21.747839502485444 6.9618403339074115 0 0 1
1073 1 38.30657547167446 23.11033174010912 14.03251473256101 0 0 0
133 1 24.20681955044877 23.221908197934244 8.141928670607165 0 0 0
241 1 35.46071422911416 -0.31479983928381117 15.869912854507948 0 0 0
428 1 31.241819601248096 22.828607855885025 7.0502397013235445 0 0 0
2935 1 35.77546468126674 24.079356496731478 5.873538164771982 0 0 0
3459 1 38.078558202383434 23.852630325119026 7.305919870236662 0 0 0
287 1 39.901992273838175 21.828552481507305 6.60017302830978 0 0 0
671 1 38.007239294184245 11.01278998614114 0.3672392292877147 0 0 0
3291 1 41.94159887218102 22.5840343580415 8.404747540801996 0 0 0
3483 1 45.957573828252606 24.10949055728885 9.476234635313425 -1 0 0
2134 1 4.380806940707651 1.1139776543486641 11.560408721510981 0 1 0
1349 1 5.800899327051242 2.816437437129669 9.685296862181552 1 0 0
309 1 11.079041329239212 0.18809961255251562 9.769979472855695 0 1 0
3467 1 12.412437039615885 0.6134795830901951 12.304642715481295 0 1 0
2118 1 42.44967567231227 24.56172447834427 15.112203029453658 0 0 0
3390 1 17.548547441338812 1.9086179573343038 12.784515143949129 0 1 0
437 1 21.26825096974371 1.0742150436291906 10.714910966267354 0 0 0
3348 1 25.33827001665018 0.25619969071251436 12.085771888803606 0 1 0
2153 1 24.056309545659783 1.7560129080753675 10.60177906508174 0 1 0
2752 1 27.97593496318331 1.1337070207357591 11.606541737118217 0 1 0
1561 1 43.05483724438798 11.077571225986325 15.582178961191325 0 0 1
1463 1 38.21095881117813 1.722399614717129 9.022146300447183 0 0 1
147 1 36.37885302017392 0.06150247243962714 10.356766526875816 0 0 0
1870 1 41.3610703210756 0.7384440459225181 11.25468244222204 0 0 1
841 1 45.883087865442874 0.1558398749135348 9.907694261118248 0 0 0
3985 1 45.402751166431116 4.635249215518758 10.006464340407767 0 1 1
2556 1 45.42983171761868 0.3442666466391032 12.586410608151573 -1 1 0
2450 1 11.263054064176218 15.736535938145504 -0.39756781534070773 0 1 0
1954 1 48.151120874585516 4.850164784599092 9.683509473264722 0 0 1
3024 1 1.6817204453805994 1.5438124788996261 10.832718246447763 1 1 0
2718 1 1.124675899060648 3.7490599811619205 12.701168678619853 0 1 0
2525 1 3.233286531605646 5.431577059638645 12.087632908502634 1 1 0
1455 1 5.839980373106361 4.1400181840768635 12.553312255101238 0 0 1
2899 1 8.599085557919295 3.9984192337504707 10.714953783055359 1 1 0
765 1 12.810634808809539 3.346250343243802 12.594712159064542 0 0 0
687 1 14.449546385750473 4.974513560182343 11.134379096996366 0 0 0
3326 1 17.10883183253694 4.635231998476183 12.142472739471236 0 1 0