
# Create simulation box of size 50 x 50 x 50 Angstrom
#
lattice	            sc 1
Lattice spacing in x,y,z = 1.0000000 1.0000000 1.0000000
region 	            all block 0 50 0 50 0 50 units box
create_box          1 all
Created orthogonal box = (0.0000000 0.0000000 0.0000000) to (50.000000 50.000000 50.000000)
  1 by 2 by 3 MPI processor grid

# fill box with 4175 randomly distributed atoms
#
create_atoms        1 random 4175 63782 all
Created 4175 atoms
  create_atoms CPU = 0.001 seconds
mass                1 18.015

# Define potential
#
pair_style          sw
pair_coeff          * * ML_mW.sw mW
Reading sw potential file ML_mW.sw with DATE: 2019-02-27

# Run minimization
#
minimize            1.0e-8 1.0e-8 10000 1000
WARNING: Using 'neigh_modify every 1 delay 0 check yes' setting during minimization (../min.cpp:187)
Neighbor list info ...
  update every 1 steps, delay 0 steps, check yes
  max neighbors/atom: 2000, page size: 100000
  master list distance cutoff = 6.0032907
  ghost atom cutoff = 6.0032907
  binsize = 3.0016454, bins = 17 17 17
  1 neighbor lists, perpetual/occasional/extra = 1 0 0
  (1) pair sw, perpetual
      attributes: full, newton on
      pair build: full/bin/atomonly
      stencil: full/bin/3d
      bin: standard
Per MPI rank memory allocation (min/avg/max) = 4.255 | 4.258 | 4.261 Mbytes
Step Temp E_pair E_mol TotEng Press 
       0            0    7792709.3            0    7792709.3    5898794.3 
     630            0   -45180.336            0   -45180.336   -154.07449 
Loop time of 1.13557 on 6 procs for 630 steps with 4175 atoms

99.2% CPU use with 6 MPI tasks x no OpenMP threads

Minimization stats:
  Stopping criterion = max force evaluations
  Energy initial, next-to-last, final = 
      7792709.32924461  -45180.0188663597   -45180.336116598
  Force two-norm initial, final = 2.0191930e+08 4.9721331
  Force max component initial, final = 1.0948746e+08 0.73126211
  Final line search alpha, max atom move = 0.053306038 0.038980685
  Iterations, force evaluations = 630 1000

MPI task timing breakdown:
Section |  min time  |  avg time  |  max time  |%varavg| %total
---------------------------------------------------------------
Pair    | 0.87288    | 0.98745    | 1.0331     |   5.8 | 86.96
Neigh   | 0.023794   | 0.024644   | 0.025325   |   0.3 |  2.17
Comm    | 0.05652    | 0.10321    | 0.21877    |  18.2 |  9.09
Output  | 0          | 0          | 0          |   0.0 |  0.00
Modify  | 0          | 0          | 0          |   0.0 |  0.00
Other   |            | 0.02027    |            |       |  1.78

Nlocal:        695.833 ave         704 max         685 min
Histogram: 1 1 0 0 1 0 0 1 0 2
Nghost:        1494.17 ave        1515 max        1468 min
Histogram: 1 1 0 0 0 0 1 1 1 1
Neighs:        0.00000 ave           0 max           0 min
Histogram: 6 0 0 0 0 0 0 0 0 0
FullNghs:      19997.0 ave       20462 max       19320 min
Histogram: 1 1 0 0 0 0 0 2 0 2

Total # of neighbors = 119982
Ave neighs/atom = 28.738204
Neighbor list builds = 26
Dangerous builds = 0

# Add velocity/set timestep
#
velocity            all create ${TEMP} 120598 rot yes dist gaussian
velocity            all create 215 120598 rot yes dist gaussian
timestep            5.0

# Define output
#
compute	            1 all msd
thermo	            100
thermo_style        custom step temp press vol etotal ke pe c_1[4] density

# Neighbor lists
#
neigh_modify        delay 0 every 1 check yes

# Set fixes
#
fix                 1 all momentum 10 linear 1 1 1 rescale
fix                 2 all nve
fix                 3 all temp/csvr ${TEMP} ${TEMP} 500.0 928347
fix                 3 all temp/csvr 215 ${TEMP} 500.0 928347
fix                 3 all temp/csvr 215 215 500.0 928347
fix                 4 all press/berendsen iso ${PRES} ${PRES} 1000.0 modulus 20000
fix                 4 all press/berendsen iso -100 ${PRES} 1000.0 modulus 20000
fix                 4 all press/berendsen iso -100 -100 1000.0 modulus 20000

# Run 0.5 ns equilibration
#
dump                1 all custom 1000 eq.${NAME}.dump id type x y z vx vy vz
dump                1 all custom 1000 eq.liquid_density_MLmW.dump id type x y z vx vy vz
run                 100000
Per MPI rank memory allocation (min/avg/max) = 3.506 | 3.508 | 3.511 Mbytes
Step Temp Press Volume TotEng KinEng PotEng c_1[4] Density 
     630          215    824.17143       125000   -42505.327    2675.0087   -45180.336 2.7295415e-33   0.99914793 
     700     137.2206    -100.1385    125559.24   -41683.254    1707.2851   -43390.539   0.25066591   0.99469772 
     800    168.11891   -226.39737    125663.89   -40938.624    2091.7188   -43030.343   0.58033752   0.99386934 
     900    187.15008    167.11488    125655.35   -40530.627    2328.5027   -42859.129   0.99226875   0.99393695 
    1000    196.52333    51.291223    125840.35   -40263.745    2445.1238   -42708.869     1.370066   0.99247572 
    1100    203.86709   -146.69431    125674.58    -40086.26    2536.4942   -42622.754    1.7024719    0.9937848 
    1200    207.87004   -197.73609    126005.91   -40112.997    2586.2985   -42699.296    2.0201631   0.99117173 
    1300    207.95862   -118.63954    125917.36   -40086.309    2587.4006    -42673.71     2.318053   0.99186873 
    1400    210.49887    117.00442    126199.15    -40115.48    2619.0062   -42734.486    2.5897004   0.98965401 
    1500    214.89832   -57.284817    126396.62   -40082.845    2673.7436   -42756.589    2.9806428   0.98810787 
    1600     215.8131   0.74132618    126679.12   -40021.121    2685.1253   -42706.247    3.3022064   0.98590429 
    1700    216.14985   -116.19571    126730.01   -40063.378    2689.3151   -42752.693    3.5306951   0.98550841 
    1800    210.58436   -146.07443    126741.02   -40160.904    2620.0698   -42780.974    3.8595488    0.9854228 
    1900    214.60505   -98.174778    126483.95   -40162.164    2670.0948   -42832.259     4.202713   0.98742558 
    2000     218.4942   -23.702868    126605.21   -40123.879    2718.4832   -42842.363    4.4650418   0.98647987 
    2100    218.22677    -157.3631     126625.7   -40091.098    2715.1559   -42806.253    4.7789188   0.98632025 
    2200    216.20254   -85.490798    126661.83   -40119.609    2689.9706    -42809.58     5.118916    0.9860389 
    2300    215.25103    -170.4716    126897.12   -40087.844     2678.132   -42765.976    5.3585063   0.98421061 
    2400    215.50118   -84.754816    126993.22   -40108.956    2681.2444   -42790.201    5.6024012   0.98346581 
    2500    217.99829   -98.575763    127148.68    -40069.62    2712.3132   -42781.933    5.8845919   0.98226334 
    2600     221.6941    37.806467    127374.75   -40037.611     2758.296   -42795.907    6.1524211   0.98051998 
    2700      220.942   -174.12405    127567.69   -40065.949    2748.9385   -42814.887    6.4022891   0.97903706 
    2800    223.44946   -82.100715    127773.64   -40067.847    2780.1361   -42847.983    6.7195357   0.97745894 
    2900    214.94232   -149.89745    127736.23   -40152.134     2674.291   -42826.425    6.9812916    0.9777452 
    3000    217.52548   -108.17081    127547.77   -40197.143    2706.4305   -42903.573    7.2592363   0.97918989 
    3100    214.96633   -276.98089    127458.68   -40182.737    2674.5898   -42857.327    7.5400462   0.97987433 
    3200    215.89659   -91.668424    127564.19   -40239.369     2686.164   -42925.533    7.7103992    0.9790639 
    3300    220.47562   -163.27007    127555.14   -40239.542    2743.1359   -42982.678    7.8337232   0.97913338 
    3400    217.51332    28.861552    127623.25   -40289.799    2706.2793   -42996.078    8.0764797   0.97861079 
    3500    213.41508    -117.0537       127810   -40339.337    2655.2894   -42994.626    8.3954065   0.97718089 
    3600    212.84778   -226.90119    127799.67   -40405.353    2648.2311   -43053.584    8.7152109   0.97725989 
    3700    213.49497   -196.04058    127770.09    -40469.64    2656.2833   -43125.923    9.0631493    0.9774861 
    3800     216.8412   -150.84041    127805.76   -40416.372    2697.9167   -43114.289    9.2630051   0.97721332 
    3900    215.53372   -118.74628    127746.23   -40460.541    2681.6492    -43142.19    9.3187536   0.97766868 
    4000    212.62581   -151.71252    127817.04   -40454.881    2645.4693    -43100.35    9.4966981   0.97712705 
    4100    214.25704   -55.669252    127829.74   -40450.989    2665.7649   -43116.754    9.7383253      0.97703 
    4200    218.01583     -28.1569    127982.54   -40457.517    2712.5313   -43170.048    9.8923947   0.97586349 
    4300    215.59967   -90.610432    128126.06   -40475.133    2682.4698   -43157.603     10.02089   0.97477043 
    4400    216.18632   -75.033471    128152.25   -40480.727    2689.7688   -43170.496    10.330792   0.97457118 
    4500    211.69943    98.107113    128214.82   -40487.079    2633.9433   -43121.023    10.650519   0.97409556 
    4600     216.0527   -194.92344    128307.75   -40546.546    2688.1063   -43234.653    10.776882    0.9733901 
    4700    219.87747    14.132133    128262.46   -40486.235    2735.6938   -43221.928    10.895591   0.97373381 
    4800    215.29118   -198.26317    128427.74   -40565.328    2678.6316   -43243.959     11.19489   0.97248062 
    4900    218.18305   -150.11069    128412.71    -40457.21     2714.612   -43171.822    11.340799   0.97259444 
    5000    217.07509    39.382411    128317.71   -40409.521    2700.8268   -43110.348    11.701015   0.97331456 
    5100     220.1835   -27.631702     128312.4   -40489.414    2739.5014   -43228.915    11.791749   0.97335484 
    5200    216.25809   -163.30947    128363.12     -40542.1    2690.6618   -43232.762     11.84541   0.97297024 
    5300    217.30227    -136.0934    128623.83   -40515.324    2703.6533   -43218.977    12.090533   0.97099807 
    5400    214.58721   -200.44713    128680.91    -40545.35    2669.8729   -43215.223    12.261695   0.97056735 
    5500    217.54288   -74.181152     128737.6    -40549.87     2706.647   -43256.517    12.289365   0.97013993 
    5600    213.40304    58.445405    128891.79   -40565.765    2655.1395   -43220.905    12.568409   0.96897938 
    5700    215.59382   -168.94427    129020.28   -40577.658     2682.397   -43260.055    12.746139   0.96801441 
    5800    214.35508   -54.126839    128990.95   -40613.961    2666.9848   -43280.946    12.848071   0.96823449 
    5900    214.38827     72.25032    129060.69    -40650.71    2667.3977   -43318.108    12.849499   0.96771131 
    6000    213.56366   -214.66217    129094.42   -40656.594     2657.138   -43313.732    13.034164   0.96745848 
    6100    218.35559   -79.149181    129158.68   -40589.981    2716.7587   -43306.739    13.343601   0.96697716 
    6200    216.78068   -106.70192    129103.46   -40659.546    2697.1638    -43356.71    13.497799   0.96739077 
    6300     215.1817    -25.43821    129092.56   -40633.866    2677.2694   -43311.136     13.63527   0.96747244 
    6400    215.23617   -8.9970949    129232.06   -40622.882    2677.9471   -43300.829     13.70954   0.96642808 
    6500    213.69865   -29.646364     129037.3   -40582.132    2658.8175    -43240.95    13.776364    0.9678867 
    6600    217.00071    45.739296    129157.02    -40665.04    2699.9014   -43364.942    13.853888   0.96698957 
    6700    211.79774   -80.984521    129475.03   -40735.897    2635.1666   -43371.064    14.150686   0.96461448 
    6800    212.78544   -218.80473    129609.74   -40667.959    2647.4554   -43315.415    14.272397   0.96361194 
    6900    218.65679    80.408795    129546.95   -40608.228    2720.5062   -43328.734    14.300226   0.96407896 
    7000    219.43844   -7.0624869    129616.34   -40599.204    2730.2313   -43329.436     14.52103   0.96356289 
    7100    215.99022    33.108916    129712.24   -40635.286    2687.3289   -43322.615     14.73141   0.96285044 
    7200    212.63658   -133.13302    129820.59   -40694.931    2645.6033   -43340.534    15.001362   0.96204688 
    7300    210.78764   -64.839306    129787.67   -40755.601     2622.599     -43378.2    15.070519   0.96229086 
    7400    210.30817   -88.204337     129845.8   -40771.835    2616.6334   -43388.468    15.221718   0.96186008 
    7500    216.54822    -146.5669    129932.25   -40736.098    2694.2716    -43430.37    15.337224   0.96122014 
    7600    212.84709   -126.06781    129899.49   -40816.999    2648.2225   -43465.222    15.354148   0.96146256 
    7700    216.43237   -163.43245    129802.94   -40724.339    2692.8302   -43417.169      15.4146   0.96217764 
    7800     216.0546   -17.821652    129799.99   -40691.459    2688.1299   -43379.589    15.470818   0.96219957 
    7900    215.81896   -29.946186    129671.68   -40749.389    2685.1981   -43434.587    15.593477   0.96315162 
    8000    214.99759   -46.844015    129681.18    -40713.73    2674.9788   -43388.709    15.828194   0.96308108 
    8100    211.69056   -224.99253    129570.82   -40791.747     2633.833    -43425.58    15.988344   0.96390139 
    8200    208.60724   -143.80616    129564.34   -40803.674    2595.4707   -43399.145    16.048301   0.96394957 
    8300    217.80223    13.098336    129663.66   -40781.624    2709.8738   -43491.498    16.246863   0.96321122 
    8400    214.40513   -125.07059     129745.9   -40740.704    2667.6074   -43408.312     16.46246   0.96260068 
    8500    215.19786   -125.31093    129685.35   -40677.434    2677.4705   -43354.905     16.65943   0.96305014 
    8600    215.02736   -111.22182    129786.27   -40698.493    2675.3491   -43373.842    16.744752   0.96230124 
    8700    213.48463    -152.9785    129904.44   -40681.517    2656.1546   -43337.672    16.802014   0.96142586 
    8800    210.84802   -194.53613     129965.8   -40723.677    2623.3502   -43347.027    16.831835   0.96097196 
    8900    212.28086    60.511382    129953.73   -40814.542    2641.1774    -43455.72     17.01384   0.96106123 
    9000    213.53989   -371.56251    129851.19   -40781.431    2656.8422   -43438.273     16.94551   0.96182016 
    9100    209.24238    16.984263    129839.42   -40849.101    2603.3731   -43452.474    17.137951   0.96190737 
    9200    214.63166    7.8252576    129756.08   -40759.905    2670.4259   -43430.331    17.301704   0.96252513 
    9300    216.12265   -224.74754    129963.55   -40813.658    2688.9767   -43502.635    17.596128   0.96098859 
    9400    214.50427   -256.09061    129889.19   -40783.751    2668.8409   -43452.592     17.70822   0.96153878 
    9500    215.43631   -218.78906    129895.83   -40804.885    2680.4373   -43485.322    17.889132   0.96148958 
    9600    214.91687   -120.19358    130077.81   -40778.585    2673.9744   -43452.559    17.901744   0.96014449 
    9700    216.39344   -286.43126    130213.43    -40722.45    2692.3458   -43414.796    18.036436   0.95914445 
    9800    213.23763   -111.05351    130374.18   -40793.434    2653.0815   -43446.516    18.000112   0.95796183 
    9900    212.62821     40.77579     130250.2   -40873.359    2645.4992   -43518.858    18.065921   0.95887367 
   10000    214.38586   -161.91331    130298.57   -40880.687    2667.3677   -43548.054    18.108597   0.95851772 
   10100    216.95471    -144.4528    130189.78    -40852.25     2699.329   -43551.579    18.288764   0.95931872 
   10200    210.76269   -141.80497    130202.65   -40897.927    2622.2886   -43520.216     18.38264   0.95922389 
   10300    211.39423   -9.1882779    130324.75   -40886.509    2630.1461   -43516.655    18.621185   0.95832522 
   10400    216.43959   -62.751451    130296.76     -40836.6      2692.92    -43529.52    18.731264   0.95853108 
   10500    216.74751   -341.26011    130246.31    -40820.16    2696.7511   -43516.911    18.852952   0.95890232 
   10600    219.97746    110.34317    130252.26   -40756.323    2736.9378    -43493.26    18.806482   0.95885856 
   10700    220.21729    69.026114    130463.62   -40757.642    2739.9217   -43497.564    19.016207   0.95730512 
   10800    219.68862   -81.616856    130319.48   -40741.887    2733.3441   -43475.231    19.166301   0.95836394 
   10900    216.73403   -205.36029    130247.55   -40776.395    2696.5834   -43472.979    19.373864   0.95889325 
   11000    213.31486    52.033713    130102.33   -40771.524    2654.0424   -43425.566     19.53075   0.95996349 
   11100    215.06536    -186.4186    130219.96   -40806.686    2675.8219   -43482.508    19.663468    0.9590964 
   11200      215.181   -56.257747    130332.16   -40798.169    2677.2608    -43475.43    19.892922   0.95827073 
   11300    219.05029   -190.42781    130346.45   -40801.297     2725.402   -43526.699    20.021095   0.95816564 
   11400    216.79933   -57.352181    130383.23   -40810.818    2697.3959   -43508.214    20.057408   0.95789539 
   11500     212.9824   -199.47038    130250.91   -40848.119    2649.9059   -43498.025    20.144888   0.95886846 
   11600    213.90547    -138.6544    130110.48   -40851.067    2661.3907   -43512.457    20.273734   0.95990337 
   11700    221.87042    122.75053    130156.79    -40754.92    2760.4899    -43515.41     20.37445   0.95956186 
   11800    215.55632   -90.775347    130127.93    -40835.72    2681.9304    -43517.65    20.602518   0.95977471 
   11900    215.65774   -79.874018    130190.42   -40854.633    2683.1923   -43537.825    20.529039   0.95931401 
   12000    214.81366   -221.62407    130130.68   -40860.817    2672.6904   -43533.507    20.515539   0.95975437 
   12100    216.06694   -212.14769    130167.81   -40831.988    2688.2835   -43520.271    20.647099    0.9594806 
   12200    219.97369    27.235118    130224.64    -40852.71    2736.8909   -43589.601    20.540534   0.95906188 
   12300    212.55569   -222.11274    130383.92   -40871.333    2644.5969    -43515.93    20.755185   0.95789031 
   12400    216.14724   -294.29486     130467.3   -40855.859    2689.2827   -43545.142    20.911967    0.9572781 
   12500    209.98037   -176.37737    130443.05   -40958.478     2612.555   -43571.034    20.941884   0.95745608 
   12600    215.22744   -111.91356    130621.28   -40888.988    2677.8386   -43566.826    21.063353   0.95614966 
   12700    215.77065    48.373087     130437.5   -40874.379    2684.5971   -43558.976    21.192329   0.95749685 
   12800    218.82539   -151.78127    130542.71   -40849.347    2722.6039   -43571.951    21.414992    0.9567251 
   12900    218.42427   -130.44043    130488.91    -40908.65    2717.6132   -43626.264    21.392295   0.95711962 
   13000    212.69695   -46.906267    130475.67   -40861.478    2646.3544   -43507.832    21.431036   0.95721669 
   13100    219.18518   -130.34039    130673.09   -40865.768    2727.0804   -43592.848    21.662237   0.95577053 
   13200    221.05904    39.406567    130845.22   -40795.126    2750.3948   -43545.521    21.723925   0.95451323 
   13300    221.16251    36.995954    130882.46   -40845.073    2751.6821   -43596.755     21.84299   0.95424163 
   13400    217.79736    -265.4759    130832.62   -40938.626    2709.8132   -43648.439    21.841671   0.95460516 
   13500    216.67249   -50.261432     130666.6   -40977.581    2695.8177   -43673.399    21.889359   0.95581802 
   13600      218.161   -61.875094    130849.85   -41003.799    2714.3376   -43718.137    22.165192   0.95447941 
   13700    215.01118     11.99461    130949.83   -41014.473    2675.1479    -43689.62    21.994365   0.95375072 
   13800    217.99457   -150.77062    130959.16    -40930.52    2712.2669   -43642.787    22.091559   0.95368272 
   13900    217.50129    2.0754241    130988.18    -40977.86    2706.1296   -43683.989    22.406633   0.95347146 
   14000    216.76421    -54.08319    130883.45   -40969.911    2696.9589   -43666.869    22.380135    0.9542344 
   14100    214.71652   -47.374708    130994.48   -40969.519    2671.4817       -43641    22.403559   0.95342562 
   14200    210.88197   -61.471341    131122.83   -40995.684    2623.7726   -43619.456    22.423602   0.95249236 
   14300    211.57408   -116.49563    131142.41   -41047.226    2632.3838    -43679.61    22.590483   0.95235011 
   14400     213.1702   -133.65764    131041.12   -41014.354    2652.2426   -43666.596    22.641856   0.95308623 
   14500     214.6493   -63.537121    131033.66    -40949.27    2670.6454   -43619.915    22.722977    0.9531405 
   14600    214.57395   -14.200681    130956.94   -40960.067    2669.7079   -43629.775    22.816129   0.95369891 
   14700    212.80776    9.7792268    130873.15    -40984.66    2647.7331   -43632.393    22.698956   0.95430951 
   14800     212.0217   -110.08052    131093.85   -41028.097    2637.9531    -43666.05    22.715593    0.9527029 
   14900    210.00758   -166.07197    130986.11   -41098.051    2612.8935   -43710.945    22.807283   0.95348655 
   15000     207.9953   -141.91679    130793.85   -41091.896     2587.857   -43679.753      22.9041    0.9548881 
   15100    207.68492   -113.69897     130861.9    -41090.97    2583.9953   -43674.966    23.056709   0.95439154 
   15200    212.22565   -215.81562    130965.15   -41016.406    2640.4906   -43656.896    23.218649   0.95363915 
   15300     214.0423   -157.43088    131013.14   -41026.989    2663.0932   -43690.082    23.385043   0.95328982 
   15400    212.78887   -165.01723    131061.43    -41028.39     2647.498   -43675.888    23.435189   0.95293855 
   15500    214.15619   -189.66561    131091.94   -41011.741    2664.5101   -43676.251    23.409031    0.9527168 
   15600    220.41171    -75.11316     131105.5   -40946.469    2742.3407    -43688.81    23.324622   0.95261822 
   15700    211.95492   -252.62422    131019.77    -41025.49    2637.1221   -43662.612    23.546308   0.95324161 
   15800    211.45632   -204.85608    131006.25   -41010.145    2630.9186   -43641.064    23.696294   0.95333998 
   15900    211.81312   -75.912915    130876.21   -41045.163    2635.3579   -43680.521    23.734555   0.95428719 
   16000    214.42911   -173.75076    131031.36   -40983.441    2667.9058   -43651.347    23.822149   0.95315726 
   16100     217.4419   -178.78983    130993.52   -40934.324    2705.3907   -43639.715    23.903797   0.95343258 
   16200    216.73289   -7.4254693    130989.17   -40996.159    2696.5692   -43692.728    24.134476   0.95346424 
   16300    212.84222   -102.13239    130855.35   -41027.304    2648.1619   -43675.466    24.068413   0.95443934 
   16400    216.64821   -228.91745    131015.98   -40923.403    2695.5156   -43618.919     24.06791   0.95326916 
   16500    214.27578   -316.29678    130892.28   -40921.734    2665.9981   -43587.732    24.085398   0.95417007 
   16600    216.37517   -258.14559    130789.57   -40897.034    2692.1185   -43589.153    24.232308   0.95491932 
   16700    215.59375   -54.727182    130689.52   -40922.028    2682.3961   -43604.424    24.364452   0.95565039 
   16800     216.4355   -136.66492    130700.15   -40912.333    2692.8691   -43605.202    24.350099   0.95557269 
   16900     218.1391   -39.675426    130868.34   -40879.309    2714.0652   -43593.374    24.618164   0.95434455 
   17000    218.68907   -140.96923    130809.41   -40910.103    2720.9079   -43631.011     24.81898    0.9547745 
   17100    220.38581   -70.361989    130973.14   -40845.891    2742.0184    -43587.91    25.025744   0.95358094 
   17200    213.66745    -47.13355    130791.61   -40866.774    2658.4293   -43525.203    24.812048   0.95490445 
   17300    217.47335   -218.36021    131097.32   -40925.891     2705.782   -43631.673    25.076291   0.95267765 
   17400     217.0286   -249.93929    130977.73   -40957.484    2700.2484   -43657.732    24.982754   0.95354753 
   17500    210.09717    -104.0098    131148.48    -40943.23    2614.0082   -43557.238      25.2973   0.95230604 
   17600    215.87454    -96.74576    131022.74   -40911.936    2685.8897   -43597.826    25.459208      0.95322 
   17700    219.12754   -44.635855    131163.02   -40939.292    2726.3632   -43665.656    25.506163   0.95220046 
   17800    214.22876   -169.36459    131151.41   -40930.536     2665.413   -43595.949    25.587832   0.95228475 
   17900    220.93814   -132.42079    131137.38   -40904.626    2748.8905   -43653.516    25.769993   0.95238666 
   18000    219.70305     171.3641     131288.2   -40862.357    2733.5236    -43595.88    25.914613   0.95129261 
   18100    211.77499    -118.7855    131408.87   -40964.787    2634.8835   -43599.671    26.103048     0.950419 
   18200    214.48497   -41.419517    131331.57   -40957.549    2668.6008    -43626.15    26.177967   0.95097845 
   18300    219.29191    41.276303    131536.59   -40863.161    2728.4083   -43591.569    26.210216   0.94949618 
   18400     216.7458   -118.67727    131274.12   -40942.231    2696.7298   -43638.961    26.217925   0.95139464 
   18500     217.7565   -219.81063    131459.68    -40902.96    2709.3049   -43612.265    26.467776   0.95005168 
   18600    211.73774   -18.390759    131428.31   -40956.488      2634.42   -43590.908    26.482476   0.95027844 
   18700    214.57941   -121.18306    131447.16    -40925.52    2669.7758   -43595.296    26.720453   0.95014215 
   18800    214.59249   -118.77117    131543.66   -40888.823    2669.9385   -43558.761    26.802415   0.94944514 
   18900    215.56576   -8.9889645    131377.37   -40930.382    2682.0478    -43612.43    26.644297   0.95064694 
   19000    216.00814   -60.810642    131392.28   -40913.855    2687.5519   -43601.407      26.6471   0.95053907 
   19100    213.77186   -116.00116    131253.11   -40973.173    2659.7284   -43632.902    26.780183   0.95154692 
   19200    216.22888   -55.644462    131354.49    -40951.12    2690.2984   -43641.419    26.866906   0.95081249 
   19300    217.42145   -99.627066    131394.37   -40903.805    2705.1362   -43608.942    27.081417   0.95052391 
   19400    216.19186   -180.83323    131449.02   -40914.684    2689.8377   -43604.522    27.097509   0.95012876 
   19500    215.20794   -162.57118    131377.73   -40908.493    2677.5959   -43586.089    27.079536   0.95064432 
   19600     216.7131   -143.83939    131420.86   -40954.953    2696.3229   -43651.276    27.073278   0.95033229 
   19700    218.69895   -27.683034    131492.92   -40943.667    2721.0307   -43664.698    26.978184    0.9498115 
   19800    217.77904    10.465183    131529.24    -40980.04    2709.5853   -43689.625    27.289418   0.94954928 
   19900    219.08904   -53.016977    131436.92   -40983.458    2725.8842   -43709.342     27.31505   0.95021618 
   20000    214.51966   -171.70513    131582.05   -41039.828    2669.0324   -43708.861    27.640867   0.94916812 
   20100    216.31541   -40.538628     131461.2   -41007.722    2691.3749   -43699.097    27.790358   0.95004071 
   20200    212.36265   -62.894858    131518.19   -41054.141    2642.1951   -43696.336     27.88346   0.94962904 
   20300     215.7217   -135.65289    131345.01   -41099.455    2683.9881   -43783.443    27.955077    0.9508811 
   20400    211.79454   -29.977533    131169.61   -41099.915    2635.1267   -43735.041    27.816909   0.95215266 
   20500    213.39726    -31.11497    131088.65   -41063.447    2655.0676   -43718.515    27.891228   0.95274072 
   20600    215.17139   -199.91716    131297.18   -41093.235    2677.1412   -43770.376    28.094376    0.9512275 
   20700    214.45075   -67.046875     131472.2   -41033.494     2668.175   -43701.669     28.20836    0.9499612 
   20800    215.77016   -70.891074    131494.91   -41036.116     2684.591   -43720.707    28.188597   0.94979717 
   20900    212.43108   -10.384134    131557.61   -41063.096    2643.0465   -43706.142    28.394897   0.94934446 
   21000    212.27758   -47.065113    131564.79    -41144.71    2641.1367   -43785.846    28.306909   0.94929267 
   21100    211.96072   -39.412573    131535.04   -41157.656    2637.1944    -43794.85    28.264596   0.94950738 
   21200    213.46461   -96.243946    131632.98   -41141.954    2655.9056   -43797.859    28.279583   0.94880088 
   21300    212.49338   -75.634891    131827.56   -41155.071    2643.8216   -43798.893    28.563207   0.94740046 
   21400    210.17259    -284.4874    131826.78   -41121.711    2614.9466   -43736.657    28.658092   0.94740604 
   21500    213.42222   -200.90817    131699.61   -41113.577    2655.3782   -43768.955    28.725124   0.94832087 
   21600    215.99753   -121.39481    131593.86   -41065.732    2687.4199   -43753.152    28.840774   0.94908294 
   21700    220.85787   -90.123421    131507.63   -41036.089    2747.8917   -43783.981    28.829269   0.94970529 
   21800    217.31004   -47.696422    131662.99   -41022.337      2703.75   -43726.087    28.694503   0.94858462 
   21900    215.83327   -218.56804    131486.08   -41041.028    2685.3762   -43726.405    28.843234   0.94986091 
   22000    212.11345    55.775388    131574.47    -41086.12    2639.0945   -43725.215    29.141862   0.94922285 
   22100     217.8055   -116.46571    131675.51   -41031.612    2709.9145   -43741.527    29.179098   0.94849447 
   22200    218.05662   -89.924299    131801.88   -41069.727    2713.0389   -43782.766    29.103807   0.94758506 
   22300    217.08489    -210.7887    131745.75   -41059.095    2700.9488   -43760.044    29.155728   0.94798878 
   22400    215.34913   -313.19717    131654.53    -41037.31    2679.3526   -43716.663    29.440129   0.94864557 
   22500      216.242    32.174138    131565.73   -41035.096    2690.4616   -43725.558    29.523252    0.9492859 
   22600    218.83528   -142.85933    131504.45   -41000.831    2722.7269   -43723.557    29.622421   0.94972828 
   22700    216.55617   -189.64107     131410.5   -40998.479    2694.3705   -43692.849    29.786958   0.95040723 
   22800    216.21477   -173.85258    131376.18   -40961.189    2690.1228   -43651.312    29.771795   0.95065552 
   22900    216.92747   -116.38878    131408.85    -41008.77    2698.9902    -43707.76    29.811311   0.95041918 
   23000    218.28518    -15.00325    131571.11   -40976.904    2715.8827   -43692.787    29.881668   0.94924705 
   23100    214.16281   -238.15053    131409.27   -41076.546    2664.5925   -43741.139    30.090116   0.95041612 
   23200    217.69002    -151.6469    131312.76   -41029.291    2708.4777   -43737.768      30.1234   0.95111469 
   23300    210.92101   -241.91233    131029.54    -41060.82    2624.2584   -43685.078    30.238601   0.95317052 
   23400    215.50803   -43.350738    131197.03   -40994.815    2681.3296   -43676.144    30.538341   0.95195364 
   23500    215.09223   -175.69076    131166.94     -41034.2    2676.1563   -43710.356    30.378774     0.952172 
   23600    212.51879   -82.892028    131067.69   -41021.496    2644.1377   -43665.634     30.43623   0.95289306 
   23700    214.56818   -106.71803    131182.67   -41052.797    2669.6361   -43722.433    30.470167   0.95205784 
   23800    209.68874    10.705784    131118.07   -41094.437    2608.9266   -43703.364     30.48088   0.95252693 
   23900    213.75287    28.153207    131245.36   -41102.757    2659.4921   -43762.249    30.670295    0.9516031 
   24000    214.99476     58.78239    131467.14   -41026.713    2674.9436   -43701.656    30.749982   0.94999782 
   24100    214.50908   -123.26476    131298.51   -41024.873    2668.9007   -43693.774    30.519887   0.95121788 
   24200    211.52784    -198.5438    131174.04    -41099.14    2631.8085   -43730.948    30.636449   0.95212051 
   24300    215.69611   -100.64502    131211.38   -41068.208    2683.6697   -43751.878     30.87982   0.95184951 
   24400     210.8513   -120.14942    131254.79   -41110.185     2623.391   -43733.576    30.887442   0.95153475 
   24500    218.58549    95.167279    131238.61   -41073.098    2719.6191   -43792.717    30.880231   0.95165203 
   24600    211.77051   -96.445682    131319.89    -41064.65    2634.8277   -43699.478    31.009623     0.951063 
   24700    208.62899   -319.43276    131462.58   -41080.359    2595.7413   -43676.101    31.115045   0.95003073 
   24800     211.4377   -141.15713    131266.18   -41068.751     2630.687   -43699.438     31.01518   0.95145214 
   24900    214.10588   -203.21652    131059.06   -41012.091    2663.8842   -43675.975    31.222936   0.95295578 
   25000    219.10548   -37.183314    131073.59   -41003.289    2726.0887   -43729.378    31.313838   0.95285015 
   25100    216.49929   -16.456387    131230.52   -41015.016    2693.6627   -43708.678    31.616076   0.95171069 
   25200    212.18552   -222.47932    131347.24   -41051.448    2639.9913   -43691.439     31.75442   0.95086501 
   25300    213.88089   -51.283887     131247.8   -41049.969    2661.0849   -43711.054    31.851727   0.95158543 
   25400    214.97267    51.885316    131192.61   -41024.374    2674.6687   -43699.043    31.740849   0.95198569 
   25500     215.2187   -174.39048    131124.16   -40992.682    2677.7298   -43670.412    31.584352   0.95248266 
   25600    215.76039   -48.062998    130939.29   -41064.821    2684.4695    -43749.29    31.683465   0.95382749 
   25700    211.93927   -38.125408    130957.66   -41079.399    2636.9275   -43716.327    31.743885   0.95369365 
   25800    211.79338   -137.54822     131206.9   -41055.185    2635.1123   -43690.298     31.83057     0.951882 
   25900    217.68715   -35.112386    131337.33   -41014.011     2708.442   -43722.453    31.977443   0.95093672 
   26000    218.01049    -59.58215    131505.79   -40966.961    2712.4649   -43679.426     32.12532   0.94971859 
   26100    213.53042   -17.568063    131362.45   -41057.506    2656.7244    -43714.23    32.087313    0.9507549 
   26200    212.61316    14.217664    131221.56   -41049.114     2645.312   -43694.426    32.210501   0.95177568 
   26300    215.13044   -41.931383    131441.12   -41022.182    2676.6317   -43698.814    32.316916   0.95018587 
   26400    215.65841   -53.641771    131553.95     -41007.8    2683.2006   -43691.001    32.282804   0.94937089 
   26500    214.05292   -163.69842    131552.87   -41055.018    2663.2252   -43718.243    32.218185   0.94937868 
   26600    211.63353   -211.37142    131462.86   -41115.699    2633.1235   -43748.822    32.406424   0.95002868 
   26700    210.76986   -80.837364    131417.03   -41139.761    2622.3777   -43762.139    32.331736      0.95036 
   26800    217.10951   -87.276229     131411.9   -41072.516    2701.2551   -43773.771    32.457742   0.95039714 
   26900     216.6989    -119.4856    131491.17   -41077.601    2696.1463   -43773.747     32.60716   0.94982418 
   27000    209.47425   -67.112258    131421.78   -41123.106     2606.258   -43729.364    32.718012   0.95032569 
   27100    212.92196   -185.81467    131572.77   -41119.824     2649.154   -43768.977    32.793978    0.9492351 
   27200    210.67968    -142.7965    131652.41   -41117.272    2621.2558   -43738.527    32.891382   0.94866088 
   27300    213.37848    56.783677    131727.65   -41132.129     2654.834   -43786.963    33.027476   0.94811899 
   27400     217.4587   -65.945885    131683.64   -41065.186    2705.5996   -43770.785     32.93063   0.94843593 
   27500    215.96815    21.388582    131742.38   -41009.687    2687.0543   -43696.741    33.155673   0.94801299 
   27600    214.76504   -110.25359    131674.15   -41039.696    2672.0853   -43711.782    33.078196   0.94850424 
   27700    214.60083   -157.44195     131534.7   -41049.073    2670.0423   -43719.115    33.250087   0.94950981 
   27800     217.1264     -353.932    131585.42    -40992.66    2701.4652   -43694.125    33.371467   0.94914387 
   27900    217.28277   -150.11214    131501.95   -41021.372    2703.4108   -43724.782     33.44551   0.94974627 
   28000    218.03341    52.957994    131493.06   -41049.451    2712.7502   -43762.201    33.404131    0.9498105 
   28100    221.62305    -221.7139    131593.92   -41042.987    2757.4121   -43800.399    33.718555   0.94908251 
   28200    212.96373   -53.134818    131552.47   -41087.115    2649.6736   -43736.789    33.726786   0.94938159 
   28300    216.31999   -65.310412     131709.8    -41087.29    2691.4319   -43778.722    33.842345   0.94824753 
   28400    214.90197   -121.45784    131634.41   -41136.827    2673.7891   -43810.616     33.89042    0.9487906 
   28500    214.54083   -63.372658    131769.14   -41164.549    2669.2958   -43833.845    33.863823   0.94782049 
   28600    215.46547   -185.53436    131674.07   -41124.197    2680.8001   -43804.997      33.9622   0.94850486 
   28700    209.36898   -117.16035    131644.95   -41127.293    2604.9481   -43732.241    33.911237   0.94871463 
   28800    211.88251   -42.895245    131589.94   -41098.329    2636.2212    -43734.55    33.861978   0.94911125 
   28900    219.25116   -45.058311    131660.63   -41059.131    2727.9013   -43787.032    33.988069   0.94860164 
   29000     214.3507   -242.31594    131638.97   -41143.459    2666.9302   -43810.389    34.020787   0.94875772 
   29100    218.10738    -158.5785    131556.04   -41093.526    2713.6704   -43807.197     34.19063   0.94935579 
   29200    214.29078   -53.521602    131639.88   -41059.157    2666.1847   -43725.341    34.165066   0.94875116 
   29300    212.26525    25.399955    131631.19   -41123.463    2640.9832   -43764.446    34.185224    0.9488138 
   29400    217.87108   -115.35538    131754.91   -41174.904    2710.7305   -43885.635    34.262483   0.94792286 
   29500    214.77649   -162.90334    131628.22   -41202.384    2672.2279   -43874.612    34.389934   0.94883522 
   29600    213.98869   -28.479952     131735.5   -41108.614    2662.4262    -43771.04    34.488903   0.94806253 
   29700    213.10073   -88.538577     131657.6   -41159.944    2651.3782   -43811.322    34.510508   0.94862352 
   29800     217.0951   -167.81755    131680.73   -41153.953    2701.0758   -43855.028    34.446085   0.94845689 
   29900    212.68328   -89.214111    131672.06   -41184.783    2646.1844   -43830.968    34.224633   0.94851929 
   30000    212.19805   -169.89733    131503.74   -41169.165    2640.1472   -43809.312    34.422293   0.94973339 
   30100    214.32135   -21.141838    131502.58   -41159.218    2666.5651   -43825.783     34.44649   0.94974177 
   30200    211.47528   -172.87266    131550.88   -41157.627    2631.1546   -43788.781    34.626564   0.94939306 
   30300    214.43132   -52.231415    131468.08   -41126.085    2667.9333   -43794.019     34.73229   0.94999096 
   30400    209.69153   -43.942955    131481.71   -41103.173    2608.9613   -43712.134    34.622314    0.9498925 
   30500    219.18232   -217.99688    131770.91   -41106.419    2727.0448   -43833.464    34.841746   0.94780774 
   30600    217.77478   -41.629855    131721.17   -41103.852    2709.5323   -43813.384    34.899456   0.94816564 
   30700     215.3532    42.425771    131939.31   -41122.619    2679.4032   -43802.023    34.920261   0.94659807 
   30800    220.11975   -53.653704    131825.98   -41051.597    2738.7082   -43790.305    34.927916   0.94741185 
   30900      214.175   -89.294569    131898.96   -41187.235    2664.7441   -43851.979     34.95571   0.94688763 
   31000    212.08244   -136.25055    131880.28   -41228.235    2638.7088   -43866.943    35.102369   0.94702174 
   31100    213.49297    -127.8481    131742.44   -41227.504    2656.2584   -43883.762    35.298815   0.94801257 
   31200    212.01661   -121.94495    131805.21   -41240.376    2637.8897   -43878.266     35.45693    0.9475611 
   31300    212.53624   -29.861843    131911.84   -41189.508    2644.3549   -43833.863    35.659464   0.94679515 
   31400    216.68374   -73.855814    131899.46   -41152.394    2695.9576   -43848.351    35.687941   0.94688404 
   31500    213.37449   -39.942363    131858.24   -41193.916    2654.7843   -43848.701    35.616485      0.94718 
   31600    213.72008   -197.55022    131832.04   -41127.056    2659.0841    -43786.14    35.699429   0.94736829 
   31700    214.80678   -161.10219     131833.9   -41166.764    2672.6047   -43839.368     35.78032   0.94735491 
   31800    219.21726   -74.016794    131909.07   -41105.112    2727.4794   -43832.592    35.908446   0.94681504 
   31900    216.97076   -9.9414639    132060.89   -41097.274    2699.5288   -43796.802    36.027236   0.94572659 
   32000    216.74388    -197.3623    131928.91   -41094.957     2696.706   -43791.663    36.166064   0.94667267 
   32100    217.60289   -114.24562    131928.02   -41116.355    2707.3937   -43823.749    36.407966   0.94667905 
   32200    218.66332    -131.8369    131943.67   -41118.898    2720.5874   -43839.485    36.297141   0.94656675 
   32300    213.84956   -228.71527    131933.19   -41107.146    2660.6951   -43767.842    36.593609   0.94664196 
   32400    210.71572   -140.96153    132007.63   -41177.213    2621.7042   -43798.917    36.688096   0.94610816 
   32500    217.13021   -62.163492    132157.24   -41192.365    2701.5126   -43893.878    36.537584   0.94503706 
   32600    215.53462   -34.128416    132117.71   -41138.623    2681.6604   -43820.283    36.448519   0.94531984 
   32700    214.62341   -7.4263879    132023.36   -41195.967    2670.3232    -43866.29     36.58785   0.94599542 
   32800    214.95888   -173.68086    132016.72   -41232.139    2674.4971   -43906.636    36.637317   0.94604297 
   32900    211.58413   -107.31193    131946.26   -41223.731    2632.5088   -43856.239    36.783549   0.94654817 
   33000    209.64726   -205.70406    132041.04   -41278.351    2608.4105   -43886.761    36.775761   0.94586871 
   33100    213.98338   -133.86807     131907.3    -41210.25      2662.36    -43872.61    36.754851   0.94682776 
   33200    213.89599   -40.687906    132022.84   -41242.429    2661.2728   -43903.702     36.96059   0.94599909 
   33300    210.92153    -63.06056    131957.89   -41180.452    2624.2648   -43804.717    36.897181   0.94646474 
   33400    210.68858    -137.9711    131960.93   -41260.303    2621.3665   -43881.669    37.053728   0.94644294 
   33500    216.66983   -150.59203    131852.88   -41226.379    2695.7846   -43922.164     37.19986   0.94721854 
   33600    213.99867   -113.60155     131739.8   -41200.519    2662.5503    -43863.07    37.273609   0.94803158 
   33700    214.16828    59.855219    131867.16   -41193.888    2664.6605   -43858.549     37.42618   0.94711597 
   33800    212.94328     46.85811     131892.4   -41183.196    2649.4192   -43832.615    37.416363    0.9469347 
   33900    213.72426   -54.409088    131826.53   -41185.145    2659.1362   -43844.281    37.384712   0.94740784 
   34000     216.8482   -115.67881    131894.07   -41150.068    2698.0038   -43848.072    37.442609   0.94692275 
   34100    215.46373    -185.5826    131752.65   -41190.504    2680.7785   -43871.282     37.63371   0.94793911 
   34200    214.25463   -114.32089    131802.81   -41189.663    2665.7349   -43855.398    37.707605   0.94757838 
   34300    215.71706    8.0635857    132039.06   -41237.958    2683.9304   -43921.888    37.650566   0.94588295 
   34400    212.22348    -167.5229    132066.83   -41166.266    2640.4635   -43806.729    37.737371   0.94568403 
   34500    216.42235   -288.61497    131858.91   -41181.591    2692.7055   -43874.296    37.876882   0.94717523 
   34600    212.17644   -122.95264    131776.58    -41166.17    2639.8783   -43806.048     37.90803     0.947767 
   34700     216.7199   -69.295314    131808.36   -41246.498    2696.4075   -43942.905    38.130599    0.9475385 
   34800    209.96784   -33.972503    131735.54   -41234.821    2612.3992    -43847.22    38.136585   0.94806226 
   34900    216.18129   -1.1974005    131652.03   -41243.026    2689.7063   -43932.733    38.094821   0.94866363 
   35000    213.96147   -110.51824    131824.95   -41309.955    2662.0875   -43972.042    38.239599   0.94741922 
   35100    208.40352   -7.8279092    131913.18   -41248.263     2592.936   -43841.199    38.304592   0.94678553 
   35200    209.42664   -5.0035268    131855.08   -41247.033    2605.6656   -43852.699    38.577401   0.94720271 
   35300    212.92189    -122.2585    131801.13   -41229.107    2649.1531    -43878.26    38.581708   0.94759046 
   35400    210.37128   -34.371258     131990.4   -41232.967    2617.4186   -43850.386    38.740566   0.94623163 
   35500     215.5781   -36.794519    132186.11   -41133.309    2682.2014   -43815.511    38.655693   0.94483067 
   35600    212.98353   -67.294822    132170.53   -41177.987    2649.9201   -43827.908    38.837104   0.94494207 
   35700    209.90203    -229.8531    132180.85   -41142.888    2611.5803   -43754.468    38.869344   0.94486827 
   35800    214.40844   -137.94281    132071.88   -41181.366    2667.6486   -43849.015    38.905974   0.94564783 
   35900    215.12628   -161.80433    132015.68   -41134.843    2676.5799   -43811.423    38.836547   0.94605041 
   36000    214.85295    21.501753    132243.51   -41091.968    2673.1792   -43765.147    38.973967   0.94442056 
   36100    215.46859   -52.192121    132160.04   -41117.407    2680.8389   -43798.246    38.965826   0.94501708 
   36200     218.4217   -101.99744    132126.65   -41150.725    2717.5812   -43868.306    39.009901   0.94525586 
   36300    211.67988   -28.523866    132423.15   -41205.469    2633.7001   -43839.169    39.107861   0.94313943 
   36400    219.72654   -193.97234    132397.54   -41155.389    2733.8158   -43889.205    38.937901   0.94332182 
   36500     212.5078   -97.348093    132334.26   -41147.874    2644.0011   -43791.875     38.95157   0.94377293 
   36600    212.22943   -141.28925    132328.24   -41271.365    2640.5376   -43911.903    39.014759   0.94381582 
   36700    214.04163   -31.851356    132300.38   -41225.054    2663.0848   -43888.139    39.056174    0.9440146 
   36800    212.31421   -177.92062    132162.02   -41222.314    2641.5924   -43863.906    38.867926   0.94500291 
   36900    212.74776    92.929794    132282.47   -41248.887    2646.9866   -43895.874    38.756389   0.94414243 
   37000     212.1895   -151.99892    132345.25   -41196.505    2640.0408   -43836.545    38.948377   0.94369452 
   37100    216.63534   -94.282803    132307.58   -41186.412    2695.3555   -43881.767    39.100024   0.94396325 
   37200    214.91413   -67.268789    132240.69   -41244.814    2673.9404   -43918.754    39.369372   0.94444071 
   37300    212.29051   -74.438156    132362.75   -41253.413    2641.2975   -43894.711    39.550309   0.94356975 
   37400    215.50652   -23.805631    132351.62   -41283.308    2681.3109   -43964.619    39.438065   0.94364915 
   37500    209.97837   -90.488183    132507.46   -41299.869    2612.5301   -43912.399     39.51463   0.94253933 
   37600    216.88218   -147.05411    132545.84   -41252.622    2698.4266   -43951.049    39.615141   0.94226639 
   37700    214.83923   -127.32381    132500.89    -41264.03    2673.0084   -43937.039    39.620908   0.94258606 
   37800    209.29895   -157.85843    132469.27    -41347.34    2604.0769   -43951.417    39.614071   0.94281105 
   37900    212.88954   -62.550684    132423.94   -41302.689    2648.7506    -43951.44    39.703775   0.94313375 
   38000    211.22178     -141.604    132417.48   -41278.463    2628.0005   -43906.464    39.708149   0.94317977 
   38100    215.24334   -90.617592    132390.01    -41229.57    2678.0364   -43907.606    39.725271   0.94337551 
   38200    212.62116   -65.888597    132376.17   -41240.625    2645.4115   -43886.036    39.541371   0.94347415 
   38300    217.90689   -212.12161    132353.48   -41179.901     2711.176   -43891.077    39.498612   0.94363588 
   38400    215.80734    14.171497    132330.74   -41234.601    2685.0536   -43919.655    39.601576   0.94379803 
   38500    214.58497   -268.23357    132223.73   -41251.708     2669.845   -43921.553    39.822542   0.94456185 
   38600    215.81061   -103.03366    132049.29    -41203.39    2685.0943   -43888.484    39.762717   0.94580965 
   38700     212.8093   -108.69954    132036.33   -41209.476    2647.7523   -43857.228    39.749906    0.9459025 
   38800    216.24406   -166.42672    131932.11   -41228.952    2690.4872    -43919.44    39.814443   0.94664968 
   38900    216.03941   -172.27489    131659.34   -41181.193     2687.941   -43869.134      39.8435   0.94861096 
   39000    215.82631   -37.388742    131661.37   -41228.629    2685.2896   -43913.919    39.725773   0.94859632 
   39100    216.36098   -26.137071    131815.09   -41207.988     2691.942    -43899.93    39.947082   0.94749007 
   39200    212.21095   -133.73402     131717.7   -41233.881    2640.3077   -43874.189    40.159909   0.94819062 
   39300    211.90556   -115.19802    131599.05   -41229.297     2636.508   -43865.805    40.115752   0.94904554 
   39400    220.30732    41.401667    131637.86   -41195.711    2741.0419   -43936.753     40.10915   0.94876577 
   39500    215.12699   -4.6665213    131871.79   -41170.299    2676.5887   -43846.888     40.37906   0.94708272 
   39600    213.50118   -219.11025    131744.58   -41221.315    2656.3605   -43877.676    40.404965    0.9479972 
   39700    217.31691    -159.8135    131956.76   -41155.663    2703.8355   -43859.498    40.520427   0.94647288 
   39800    214.15348   -211.37427    131918.21    -41209.76    2664.4764   -43874.236     40.47025   0.94674946 
   39900    213.37902    36.069418    131993.03   -41259.333    2654.8407   -43914.173    40.439949   0.94621274 
   40000    212.55153   -253.61278    132026.25   -41289.332    2644.5451   -43933.877    40.426203   0.94597472 
   40100     216.6437   -140.86658    132048.72     -41200.3    2695.4595    -43895.76     40.39735   0.94581369 
   40200    214.38549   -111.78632    131959.43   -41232.579    2667.3631   -43899.942    40.467337    0.9464537 
   40300    220.02829   -142.12875    132145.22   -41203.368    2737.5703   -43940.938    40.596809   0.94512306 
   40400    219.75127   -91.533055    132205.76   -41113.977    2734.1236   -43848.101    40.686163   0.94469023 
   40500    218.19687    -105.2485    132099.91   -41130.403    2714.7839   -43845.187    40.751017   0.94544723 
   40600    215.89674    18.021573    132061.41   -41174.994    2686.1659    -43861.16    40.875044   0.94572283 
   40700    213.46641   -93.522545    132084.08   -41227.184    2655.9279   -43883.112    40.813594   0.94556053 
   40800    212.24042   -117.84091    132003.31   -41278.456    2640.6743    -43919.13    40.768876   0.94613907 
   40900      214.053   -68.459433    132022.82   -41302.467    2663.2263   -43965.693    40.795201   0.94599924 
   41000    217.24287   -76.987381    132007.64   -41222.884    2702.9143   -43925.798     40.80321   0.94610807 
   41100     217.6035   -195.41534    132110.11    -41206.09    2707.4012   -43913.491     40.65628   0.94537419 
   41200    213.74573   -218.17713    132039.08   -41229.795    2659.4032   -43889.198    40.664473   0.94588278 
   41300    214.08692   -168.93831    132020.41   -41365.433    2663.6483   -44029.081    40.638321   0.94601651 
   41400    209.93801   -157.58901    132000.19   -41311.842     2612.028    -43923.87    40.788357   0.94616146 
   41500    210.86377   -249.08029    131913.82   -41311.082    2623.5461   -43934.628    40.889549   0.94678097 
   41600    215.83338   -24.357711    131791.39   -41284.189    2685.3776   -43969.567    40.876538   0.94766049 
   41700    213.06037   -7.4350722    131924.36   -41262.945    2650.8761   -43913.821    41.222648   0.94670528 
   41800    213.10728   -133.01424     131973.8   -41273.134    2651.4597   -43924.594    41.257004   0.94635064 
   41900    216.87912   -142.58142    131944.99   -41243.533    2698.3886   -43941.922    41.129803   0.94655732 
   42000    213.73245    45.318128    131967.86    -41240.51     2659.238   -43899.748    41.184176   0.94639322 
   42100    210.67728   -99.693494    131970.37   -41227.564    2621.2259    -43848.79    41.213493   0.94637521 
   42200    215.93625    17.773196     132011.7    -41190.19    2686.6575   -43876.847    41.224791   0.94607893 
   42300    214.69426   -73.251213    132031.51   -41162.827    2671.2048   -43834.032    41.365092   0.94593702 
   42400    217.47279   -53.180376    132104.11   -41202.484     2705.775   -43908.258     41.63525   0.94541715 
   42500    217.47004   -158.84728    132021.26   -41212.094    2705.7408   -43917.835    41.797701   0.94601047 
   42600    216.07168   -32.370263    132056.04   -41213.858    2688.3425   -43902.201    41.817305   0.94576128 
   42700    214.08756   -168.65978    132045.57   -41212.492    2663.6562   -43876.148    41.626008    0.9458363 
   42800    219.88297   -72.867202    132067.81    -41163.34    2735.7622   -43899.102    41.716464     0.945677 
   42900    216.82807   -130.74479    132036.17   -41237.289    2697.7534   -43935.042    41.663895   0.94590361 
   43000    211.93395   -139.71059    132045.33    -41256.47    2636.8613   -43893.331    41.721901   0.94583801 
   43100    216.74442   -74.184932    132118.43   -41222.529    2696.7127   -43919.241    41.952272   0.94531471 
   43200    217.58593   -44.509615    132067.91   -41175.932    2707.1826   -43883.114    42.110158   0.94567626 
   43300    213.73337   -167.47424     132128.9   -41189.042    2659.2494   -43848.291    42.306603   0.94523979 
   43400    217.35093    15.655827     132174.7   -41141.781    2704.2588    -43846.04    42.407441   0.94491226 
   43500    219.66987   -15.440637    132197.25   -41153.178    2733.1109   -43886.288    42.438023   0.94475102 
   43600    219.12713   -125.49309    132142.18    -41062.64    2726.3581   -43788.998    42.447635    0.9451448 
   43700    219.86256   -39.972639    132019.68   -41091.187    2735.5082   -43826.695    42.305082   0.94602176 
   43800    214.80344   -82.416452    132067.49   -41102.808    2672.5631   -43775.371    42.436265   0.94567931 
   43900    214.77382   -105.16011    132092.77   -41136.805    2672.1946   -43808.999    42.468995    0.9454983 
   44000    214.96445   -28.021446    132092.81   -41171.883    2674.5665    -43846.45    42.645066   0.94549802 
   44100    216.52438   -186.66371    131996.95   -41193.316    2693.9749   -43887.291    42.581245   0.94618466 
   44200    213.72845   -201.31741    132105.89   -41235.145    2659.1882   -43894.333    42.818062   0.94540444 
   44300    213.25158   -184.93941    132015.62   -41251.736    2653.2551   -43904.991    42.941331   0.94605089 
   44400    215.09805   -69.167779    131939.48   -41225.959    2676.2286   -43902.187    42.984336   0.94659681 
   44500     213.4938    19.628407    132029.84   -41255.797    2656.2688   -43912.065     42.93607   0.94594894 
   44600    207.87945   -87.767678     132165.9   -41311.543    2586.4155   -43897.958    43.003297   0.94497517 
   44700    208.82325   -72.569895    132220.28   -41286.337    2598.1582   -43884.495    43.157322   0.94458647 
   44800    216.83885   -50.667349    132354.82   -41250.209    2697.8876   -43948.097    43.153363   0.94362633 
   44900    214.54932   -162.40654    132190.59   -41191.363    2669.4015   -43860.765    43.106167   0.94479864 
   45000    215.34768   -149.86217    132176.79   -41180.614    2679.3345   -43859.948    43.230757    0.9448973 
   45100    213.15307    -93.44754    132127.12   -41115.666    2652.0294   -43767.695    43.206735   0.94525249 
   45200    217.63845   -176.86982    132092.28   -41175.745    2707.8361   -43883.581    43.221255   0.94550181 
   45300    211.33676   -79.260406    132175.37   -41191.502    2629.4311   -43820.933    43.055967   0.94490747 
   45400     214.0029   -60.416058    132057.43   -41163.848     2662.603   -43826.451    43.141092   0.94575132 
   45500    217.06307    -178.8651    131963.27   -41174.777    2700.6773   -43875.454    43.261684   0.94642615 
   45600    217.40344   -28.319634     131974.9   -41186.353    2704.9122   -43891.265    43.052644   0.94634273 
   45700    212.54168   -222.74674    131750.64   -41202.623    2644.4226   -43847.045    43.127667   0.94795358 
   45800    216.43768   -95.482191    131816.51   -41146.774    2692.8962    -43839.67    43.265967   0.94747989 
   45900    216.51711    10.479003    131980.68   -41085.006    2693.8845   -43778.891    43.565773   0.94630131 
   46000     218.1021   -119.60839    132102.44   -41066.455    2713.6048    -43780.06    43.660413   0.94542912 
   46100    219.85246   -135.79408    132042.93   -41015.879    2735.3826   -43751.262    43.511384   0.94585523 
   46200    223.32523    129.33933    132102.39   -41010.784    2778.5905   -43789.374    43.442449   0.94542947 
   46300    216.69788   -47.111275    132259.09   -41037.754    2696.1336   -43733.888    43.752809   0.94430931 
   46400    219.66139    41.180195     132209.5   -41069.592    2733.0053   -43802.598    43.872253   0.94466349 
   46500    215.70728   -24.641242    132260.78   -41088.827    2683.8086   -43772.635    43.824298   0.94429727 
   46600    219.44951   -184.04713    132186.82   -41086.369    2730.3691   -43816.738    44.062038   0.94482556 
   46700     217.3334   -70.291193    132225.16   -41155.379    2704.0407   -43859.419     43.96601   0.94455166 
   46800    211.44564   -118.96956    132120.43   -41207.776    2630.7858   -43838.562    43.858174   0.94530036 
   46900    217.14872   -115.20116    131966.62   -41136.241    2701.7429   -43837.984     43.99496   0.94640212 
   47000    216.12404   -7.3120663    132189.98   -41115.404    2688.9939   -43804.398    44.251124     0.944803 
   47100    217.46534    33.132075    132149.42   -41094.055    2705.6822   -43799.737    44.156721   0.94509302 
   47200    214.21159    -164.5757    132171.87   -41144.639    2665.1994   -43809.839    44.294503    0.9449325 
   47300    215.62891   -144.76616    132066.55   -41167.307    2682.8335   -43850.141    44.135069     0.945686 
   47400    217.54144   -156.23209    132189.41   -41122.157    2706.6291   -43828.786    44.324767   0.94480706 
   47500    219.63266   -68.027692    132174.96    -41054.23    2732.6478   -43786.878    44.418573   0.94491039 
   47600    222.14855    -230.6505    131987.71   -41010.012    2763.9503   -43773.962    44.630044    0.9462509 
   47700      219.228   -164.53671    131850.68    -41049.05    2727.6131   -43776.663    44.669315   0.94723434 
   47800    218.40397   -152.82236    131963.87   -41061.228    2717.3606   -43778.588    44.707049   0.94642184 
   47900    211.81565   -169.53681    131950.03   -41145.279    2635.3894   -43780.669    44.605808   0.94652116 
   48000    213.59224   -123.60214    131891.56   -41162.725    2657.4935   -43820.219    44.763406   0.94694071 
   48100     212.1584   -48.309104    131863.67   -41128.041    2639.6539   -43767.695    44.737556   0.94714101 
   48200    215.18924   -86.166904    131959.95   -41159.313    2677.3632   -43836.676    44.737308   0.94644994 
   48300    216.89992   -137.29227    131909.43   -41146.285    2698.6473   -43844.932    44.806326   0.94681247 
   48400    220.50616   -159.03628    131877.45   -41056.901    2743.5159   -43800.416    44.948175   0.94704202 
   48500    215.45241    -66.65195    131911.89   -41118.708    2680.6376   -43799.346    44.974103   0.94679483 
   48600    215.98756   -64.079577    131688.59   -41120.656    2687.2959   -43807.952     44.94009   0.94840025 
   48700    218.60583   -41.970479    131850.46   -41098.216    2719.8721   -43818.088     45.06688   0.94723588 
   48800    215.01615   -31.134203    131673.33   -41122.615    2675.2097   -43797.825    45.088295   0.94851014 
   48900    214.92183   -127.83642    131601.27   -41114.112    2674.0361   -43788.148     44.98755   0.94902953 
   49000    213.95106    113.77563    131548.58   -41148.179     2661.958   -43810.137    45.264746   0.94940965 
   49100    210.11986    -157.0295    131592.15   -41146.204    2614.2905   -43760.494     45.55155   0.94909533 
   49200    212.39694   -64.134191    131535.93   -41151.351    2642.6217   -43793.972    45.753226   0.94950095 
   49300    214.60871    -79.88938    131432.83   -41099.631    2670.1404   -43769.771    45.520057   0.95024575 
   49400    215.98231   -94.332184    131618.34   -41062.288    2687.2305   -43749.519    45.566206   0.94890645 
   49500    215.30634   -137.24683    131687.98   -41067.902    2678.8202   -43746.722    45.579401   0.94840464 
   49600    215.56669   -180.34169    131724.47   -41068.153    2682.0595   -43750.213    45.382909   0.94814194 
   49700    211.61059   -194.00448     131729.5   -41088.486    2632.8381   -43721.324    45.603517   0.94810568 
   49800    214.72457   -95.298764    131508.04    -41140.68    2671.5819   -43812.262    45.872558   0.94970235 
   49900    219.14271   -113.74479    131344.05   -41027.669    2726.5519   -43754.221    46.023373   0.95088809 
   50000    217.18527   -111.66743    131512.68   -41071.203    2702.1976   -43773.401    46.170685    0.9496688 
   50100    217.51858   -168.22241    131527.95   -41086.099    2706.3447   -43792.444    46.140977   0.94955854 
   50200    216.00414   -144.11041    131483.54   -41125.163    2687.5022   -43812.666    46.284253   0.94987929 
   50300    219.69897   -159.23489    131414.31   -41089.933    2733.4729   -43823.406    46.200749   0.95037969 
   50400    215.68953   -64.220713    131447.78   -41105.248    2683.5879   -43788.836     46.14302   0.95013768 
   50500    215.93939   -171.05762    131588.46   -41147.597    2686.6966   -43834.294    46.220801   0.94912194 
   50600    210.19602   -177.37322    131556.01   -41173.462    2615.2381     -43788.7    46.353075   0.94935604 
   50700    209.54554   -61.146217    131602.09   -41187.041    2607.1449   -43794.186    46.364922   0.94902364 
   50800    210.29586   -69.781439    131555.16   -41188.298    2616.4804   -43804.778    46.545525   0.94936216 
   50900    215.23266   -23.657523     131611.4   -41108.217    2677.9035    -43786.12     46.55528   0.94895651 
   51000    211.06116   -100.18441    131644.74   -41138.926    2626.0021   -43764.928    46.319565   0.94871615 
   51100    218.08192    -91.90828    131791.43   -41172.511    2713.3537   -43885.865    46.389568   0.94766021 
   51200     216.5981   -16.749793    131904.63   -41171.904    2694.8922   -43866.796    46.611733   0.94684693 
   51300    211.50001   -189.10282    131968.51   -41253.975    2631.4622   -43885.437     46.65545   0.94638857 
   51400    212.12086   -148.00136    131876.38   -41268.715    2639.1867   -43907.902    46.854023   0.94704972 
   51500    215.17875   -179.80852    131853.59   -41265.946    2677.2327   -43943.178    46.807456   0.94721345 
   51600    211.56534    32.471666    131927.54   -41216.156     2632.275   -43848.431    46.706845   0.94668246 
   51700    216.88741    103.58203     131841.4   -41204.182    2698.4917   -43902.674    46.649346   0.94730098 
   51800    214.16636   -81.103089    132052.06     -41244.8    2664.6367   -43909.436    46.787565   0.94578977 
   51900    211.13833   -119.15239    132126.36   -41281.546    2626.9623   -43908.508     46.71986   0.94525792 
   52000    210.70724   -18.614554    132086.74   -41303.846    2621.5986   -43925.445    46.821451   0.94554147 
   52100    212.67041   -118.38165    132162.32   -41247.695    2646.0242   -43893.719    46.846239   0.94500075 
   52200    214.39671   -64.613871    132062.82   -41262.271    2667.5026   -43929.774    47.010636   0.94571275 
   52300    210.29796   -60.311498    132263.72   -41248.852    2616.5064   -43865.359    47.173841   0.94427624 
   52400    217.85261   -118.45668     132293.5   -41198.853    2710.5007   -43909.353    47.339071   0.94406369 
   52500    218.66278   -2.8477124    132266.21   -41197.488    2720.5807   -43918.069    47.033435   0.94425851 
   52600    213.92561   -296.78435    132381.27   -41216.269    2661.6413    -43877.91    47.333789    0.9434378 
   52700    214.85134   -132.89374     132139.4   -41237.519    2673.1592   -43910.679    47.383691   0.94516467 
   52800    213.75159   -68.809337    132158.08   -41198.643    2659.4761   -43858.119    47.386283   0.94503104 
   52900    217.31322   -103.10211    132064.58   -41188.437    2703.7896   -43892.226    47.434903   0.94570014 
   53000    217.53639   -128.17574    132141.96   -41175.904    2706.5662    -43882.47    47.460462   0.94514634 
   53100    214.20545    -100.7291    132126.46   -41225.581    2665.1231   -43890.704    47.574568   0.94525721 
   53200    213.47531   -64.467999    132197.09   -41219.612    2656.0387    -43875.65    47.554951   0.94475218 
   53300     214.4401   -34.721435    132012.19   -41207.528    2668.0425   -43875.571    47.516692   0.94607541 
   53400     213.0828    -209.6023    132024.01   -41291.437    2651.1552   -43942.592    47.707091   0.94599074 
   53500    213.21251   -191.08226    131899.57   -41300.288     2652.769   -43953.057    47.891163   0.94688323 
   53600    213.32775   -224.69463    132005.16   -41301.488    2654.2028   -43955.691    47.922411    0.9461258 
   53700    210.77393   -159.67577    131894.98   -41333.781    2622.4284    -43956.21    48.004416   0.94691616 
   53800     213.9001   -110.63926    131693.11    -41210.65    2661.3239   -43871.973    47.955447   0.94836772 
   53900    212.16767   -41.601548    131935.36   -41263.923    2639.7692   -43903.692    48.020991   0.94662635 
   54000    215.59423   -142.09836    131974.44   -41238.408    2682.4021    -43920.81    47.974104   0.94634606 
   54100    215.77866   -156.34321    131950.18   -41246.638    2684.6967   -43931.335    47.964906   0.94652008 
   54200    212.40442    153.72093    131969.18   -41216.327    2642.7148   -43859.042    48.111693   0.94638375 
   54300    213.07541    34.643991    131857.71   -41188.309    2651.0632   -43839.372    48.279048   0.94718386 
   54400    214.12283    -97.61012    132065.05   -41212.324    2664.0951    -43876.42    48.498483    0.9456968 
   54500    213.68969   -74.032952     132113.9   -41203.152     2658.706   -43861.858    48.362034   0.94534708 
   54600    215.82098   -68.362991    132007.81   -41113.406    2685.2234   -43798.629    48.250586   0.94610681 
   54700    215.06115    -71.97453    132124.66   -41129.568    2675.7696   -43805.338    48.308498    0.9452701 
   54800     218.2385   -184.24659     132087.5    -41199.18    2715.3018   -43914.482    48.476036   0.94553606 
   54900    213.81357   -40.795066    132001.62   -41231.652    2660.2473   -43891.899    48.492441   0.94615117 
   55000    213.28274   -85.919006    131954.42   -41279.563    2653.6427   -43933.206    48.431368   0.94648966 
   55100    215.00611   -81.751575    131863.84   -41245.778    2675.0848   -43920.863    48.362152    0.9471398 
   55200     213.2935   -139.22861    131869.14   -41247.137    2653.7767   -43900.914    48.519974   0.94710173 
   55300    214.72272   -49.284408    131874.55   -41195.862    2671.5588   -43867.421    48.585522   0.94706285 
   55400    215.55214   -63.112181    131736.05   -41172.966    2681.8784   -43854.844    48.490074   0.94805854 
   55500    217.71684   -172.02173    131723.44   -41117.002    2708.8114   -43825.813    48.600924   0.94814935 
   55600    214.41232   -129.32665     131780.5   -41163.955    2667.6969   -43831.652    48.855627   0.94773881 
   55700    218.71763   -133.74277    131886.89   -41151.525    2721.2631   -43872.788     48.81621   0.94697424 
   55800    213.26968   -33.825847    131760.12   -41157.404    2653.4803   -43810.885    48.812632   0.94788536 
   55900    220.25505    35.354625    131908.91   -41123.391    2740.3915   -43863.782     48.89139   0.94681621 
   56000    219.46804    7.5672781    132018.37   -41126.716    2730.5997   -43857.316    49.026692   0.94603116 
   56100    215.14551   -26.258685    132004.13   -41113.411    2676.8191    -43790.23    49.090169   0.94613319 
   56200    219.81886   -102.34585    131985.04   -41118.262    2734.9645   -43853.226     49.01778   0.94627004 
   56300    214.56266   -76.188128    131925.08   -41153.795    2669.5674   -43823.362    49.211711   0.94670014 
   56400    217.17579   -94.498405    131869.02   -41131.237    2702.0797   -43833.316    49.134222   0.94710259 
   56500    212.99497   -38.374137    131775.81   -41219.949    2650.0623   -43870.011    49.372891   0.94777253 
   56600    216.05021    -38.89834    131822.79     -41226.5    2688.0753   -43914.576     49.13763   0.94743473 
   56700    212.09124     26.15343     131893.8   -41259.165    2638.8182   -43897.983    49.196296   0.94692463 
   56800    214.45143   -73.410884    131915.04   -41193.558    2668.1835   -43861.742    49.316175   0.94677216 
   56900    214.09243    -89.04034    131989.33   -41175.832    2663.7169   -43839.549    49.376271   0.94623933 
   57000    219.56836   -33.984425    131993.71   -41119.455    2731.8479   -43851.303    49.403611   0.94620793 
   57100    216.83146   -74.829809    131962.79   -41184.104    2697.7956     -43881.9    49.436598   0.94642962 
   57200    215.60324   -146.22833    131933.59   -41228.665    2682.5142   -43911.179    49.430065    0.9466391 
   57300    211.39508   -120.07574    131976.36   -41283.612    2630.1567   -43913.768    49.471569    0.9463323 
   57400    212.70564   -55.367164    131924.09   -41293.833    2646.4625   -43940.295    49.429666   0.94670727 
   57500    212.57172   -20.675068    132064.98   -41332.239    2644.7964   -43977.036    49.476858   0.94569731 
   57600    208.47447   -80.870588    131980.59   -41290.286    2593.8187   -43884.105    49.540415   0.94630199 
   57700     209.9113   -223.87942    131940.26   -41329.608    2611.6956   -43941.304    49.424044   0.94659124 
   57800    209.70296   -178.66806    131822.97   -41343.712    2609.1034   -43952.816    49.541379   0.94743343 
   57900    209.05507   -118.58697    131692.35   -41313.389    2601.0426   -43914.431    49.618844   0.94837313 
   58000    209.57228   -34.414215    131704.88   -41310.628    2607.4776   -43918.106    50.026197   0.94828292 
   58100    215.42575   -49.372518    132021.18   -41240.983    2680.3059   -43921.289    50.172946     0.946011 
   58200    212.81062   -45.245204    132132.24   -41185.233    2647.7687   -43833.001    49.949438   0.94521586 
   58300    212.22898   -10.712683    132004.36    -41120.74    2640.5319   -43761.272    49.731018   0.94613154 
   58400    217.43396    -56.17466    132003.59   -41126.319    2705.2918   -43831.611    49.692222   0.94613706 
   58500    217.49102   -179.18378    131982.54   -41131.778    2706.0018   -43837.779    49.778401   0.94628799 
   58600    219.43092    58.207245    131837.06   -41085.786    2730.1378   -43815.924    49.994484   0.94733219 
   58700    220.21696   -277.97218     131999.3   -41087.586    2739.9177   -43827.504    50.505103   0.94616786 
   58800    215.26798    57.922191     131944.9   -41125.154     2678.343   -43803.497    50.516864   0.94655796 
   58900    215.54562   -109.78909    131987.56   -41174.154    2681.7973   -43855.951    50.471361   0.94625201 
   59000     213.8454    -218.1622    131985.44   -41163.902    2660.6433   -43824.545    50.721571   0.94626718 
   59100    214.67985   -57.359275    131929.64   -41158.857    2671.0255   -43829.882    50.690769   0.94666743 
   59200     213.9084   -72.967312     131942.9   -41183.305    2661.4271   -43844.733    50.688667   0.94657229 
   59300    215.92162   -175.10415    132049.89   -41179.287    2686.4755   -43865.762    50.502814   0.94580535 
   59400       214.93    -82.95454    132164.57    -41237.66    2674.1379   -43911.798    50.512828   0.94498469 
   59500    211.43015   -213.06476    131997.62    -41215.02    2630.5931   -43845.613    50.928166   0.94617989 
   59600     216.7756   -203.39073    131998.79   -41208.425    2697.1005   -43905.526    50.897876   0.94617148 
   59700    214.09414   -182.76039    131944.94   -41237.898    2663.7382   -43901.636    50.994393   0.94655765 
   59800    208.51497    -77.35757    132112.77   -41241.445    2594.3226   -43835.767    50.977433   0.94535516 
   59900    213.65864   -108.52863    132129.01   -41215.483    2658.3196   -43873.802     51.07967   0.94523898 
   60000     211.4162    -96.89397    132083.71   -41236.059    2630.4195   -43866.479    51.130525   0.94556317 
   60100    216.46633    7.8739005     132121.7   -41183.799    2693.2526   -43877.051    51.310993   0.94529128 
   60200    212.60944   -135.99258    132105.78     -41155.1    2645.2656   -43800.366    51.355718   0.94540523 
   60300    216.66078    68.362684    132325.51    -41115.01     2695.672   -43810.682     51.36073   0.94383534 
   60400    216.28706   -256.40307    132299.01    -41080.53    2691.0223   -43771.553     51.49694    0.9440244 
   60500    214.71735   -58.444264    132189.11   -41106.923    2671.4921   -43778.415    51.808035   0.94480924 
   60600    214.85356   -107.60977    132109.97   -41157.591    2673.1867   -43830.777    51.870886   0.94537521 
   60700    210.79707   -228.50496    131996.19    -41181.33    2622.7163   -43804.047    51.808404   0.94619012 
   60800    213.47647   -152.80065    131961.16   -41135.881    2656.0531   -43791.935     51.59779   0.94644132 
   60900     216.8011   -97.728917    132104.54   -41135.841    2697.4179   -43833.259    51.727232   0.94541405 
   61000    218.23643   -96.136584    132033.43   -41163.994    2715.2761   -43879.271    52.039901   0.94592326 
   61100    215.99879   -135.67172    131972.27     -41200.2    2687.4356   -43887.635    52.052313   0.94636165 
   61200    212.93538   -121.04689    132056.03   -41197.696     2649.321   -43847.017    52.211921   0.94576139 
   61300    213.08768    21.004519    131971.89   -41184.661    2651.2159   -43835.877    52.114843   0.94636431 
   61400    210.77734   -93.308246    132004.55   -41216.721    2622.4708   -43839.192     52.15902   0.94613023 
   61500    215.37362    20.134325    132135.73   -41217.782    2679.6573   -43897.439    52.082825   0.94519088 
   61600    212.99823   -192.15639    132178.75   -41178.406    2650.1029   -43828.509    51.953189   0.94488331 
   61700    213.50846   -125.70133    132104.22   -41247.497    2656.4512   -43903.949    51.955751   0.94541639 
   61800    211.76446    -180.9313    132127.24   -41302.267    2634.7525   -43937.019    52.216708   0.94525168 
   61900      212.975   -68.213719    132053.28   -41256.992    2649.8139   -43906.806    52.300536   0.94578109 
   62000    214.35721   -85.336123    131987.92   -41214.008    2667.0112   -43881.019    52.331682   0.94624939 
   62100    210.90572   -212.85255     132037.7   -41228.922    2624.0681    -43852.99    52.393733   0.94589264 
   62200    214.71995   -55.718405    131967.48   -41184.204    2671.5244   -43855.728    52.324594   0.94639598 
   62300    216.80737    -31.55943     132041.5   -41213.099    2697.4958   -43910.594    52.517561   0.94586545 
   62400    216.87217    1.3018935    132217.14   -41170.354    2698.3021   -43868.656    52.522165    0.9446089 
   62500    214.59996    41.630162    132155.64   -41187.927    2670.0315   -43857.959    52.643758   0.94504848 
   62600     213.2877   -77.107793    132040.36   -41188.814    2653.7045   -43842.518    52.838469   0.94587359 
   62700    212.41186   -20.379544    132017.45   -41225.133    2642.8074    -43867.94    52.934046   0.94603776 
   62800    209.63977   -153.60394    132172.54   -41201.638    2608.3173   -43809.955    53.073427   0.94492766 
   62900    218.43747     -80.0032    132153.18    -41146.12    2717.7774   -43863.898    52.996039   0.94506607 
   63000    217.69657   -46.324237    132033.38   -41104.605    2708.5592   -43813.164    53.156526   0.94592361 
   63100    217.73815    -213.8628    132011.36   -41093.007    2709.0766   -43802.083    53.175722   0.94608142 
   63200    215.25956    -220.1089    131841.61   -41125.679    2678.2381   -43803.917     53.13529   0.94729952 
   63300    215.83697   -88.117262    131683.04    -41162.54    2685.4222   -43847.962     53.10889   0.94844018 
   63400    216.77048   -174.43049    131847.59   -41080.774    2697.0368   -43777.811    53.094744   0.94725656 
   63500    216.41663   -259.09179    131753.72   -41171.227    2692.6344   -43863.862     52.93144   0.94793139 
   63600    219.86588   -106.29062    131877.22   -41169.572    2735.5495   -43905.121    53.231232   0.94704371 
   63700    215.32669   -26.722837    132036.86     -41175.3    2679.0733   -43854.374    53.366804   0.94589869 
   63800    210.31397   -144.43607    131986.09   -41283.346    2616.7056   -43900.052    53.505331   0.94626253 
   63900    212.74858   -53.184251    131893.18   -41276.714    2646.9967   -43923.711    53.553374   0.94692908 
   64000    213.76914   -167.69093    132048.04   -41263.696    2659.6945    -43923.39    53.621489   0.94581856 
   64100    214.95843   -3.7476459    132026.86   -41186.589    2674.4916   -43861.081    53.951231    0.9459703 
   64200    214.16028   -122.49604    132161.41   -41175.866     2664.561   -43840.427    54.118467   0.94500727 
   64300    220.02327   -241.26002    132103.41   -41090.653    2737.5078   -43828.161    53.985729   0.94542219 
   64400    217.35838    -53.92847    132079.91   -41123.932    2704.3515   -43828.283    53.864875    0.9455904 
   64500    219.65238   -76.599294    132054.73    -41115.82    2732.8932   -43848.713    53.930111    0.9457707 
   64600    214.05694   -163.41446     131848.1   -41171.546    2663.2752   -43834.822    54.162956   0.94725285 
   64700     215.7608   -113.94891    132014.06   -41179.816    2684.4745    -43864.29    54.287961   0.94606201 
   64800    217.54733    -59.45461    131891.74    -41195.13    2706.7024   -43901.833    54.285035   0.94693947 
   64900    214.59895   -220.36681    131844.84    -41168.44    2670.0189   -43838.459    54.232938   0.94727626 
   65000    217.77834   -3.8328092    131825.13   -41133.947    2709.5766   -43843.524    54.376361    0.9474179 
   65100    213.40712   -152.51049    131694.13   -41147.794    2655.1903   -43802.984    54.389842   0.94836033 
   65200    214.15834   -6.5330179    131806.24   -41139.663    2664.5368     -43804.2    54.612784   0.94755372 
   65300    219.09169    156.69387    132015.09   -41138.076    2725.9172   -43863.993    54.796651   0.94605467 
   65400    215.33831   -195.45344    132019.14   -41075.285     2679.218   -43754.503    54.658822   0.94602566 
   65500    213.62397   -34.670967    132030.18   -41133.163    2657.8884   -43791.052    54.527026   0.94594653 
   65600    210.93901   -275.84692    132057.39   -41166.396    2624.4823   -43790.878     54.84786   0.94575165 
   65700    217.65813   -111.14251    131896.64   -41211.275     2708.081   -43919.356    54.943641   0.94690427 
   65800    216.28935   -159.66827    131955.09   -41227.612    2691.0507   -43918.662    54.920545   0.94648481 
   65900    215.23803   -70.787634    132173.17   -41196.144    2677.9702   -43874.114    54.954228   0.94492316 
   66000    218.02544   -4.4828502    131953.85    -41106.68    2712.6509   -43819.331    55.216178   0.94649371 
   66100    220.48895   -231.04778    131864.58   -41054.553    2743.3017   -43797.855    55.217235   0.94713446 
   66200      219.358    48.420337    131946.79   -41022.128    2729.2305   -43751.358    55.223414   0.94654439 
   66300    218.29785    34.926218    132108.17   -41052.029    2716.0403   -43768.069    55.359025   0.94538811 
   66400    215.76578   -111.38865    132031.69   -41094.303    2684.5366    -43778.84    55.233234   0.94593568 
   66500    215.35291    -134.2915    132074.23   -41105.531    2679.3996    -43784.93    55.443185   0.94563102 
   66600    216.85464    33.694799    132180.33   -41132.283     2698.084   -43830.367    55.755788   0.94487199 
   66700      210.685     -287.902    131897.74   -41171.606    2621.3219   -43792.928    55.509498   0.94689637 
   66800    212.88247   -178.51645    131856.55   -41106.676    2648.6626   -43755.339     55.53835    0.9471922 
[...]
   84600    210.10643   -51.298306    133012.26   -41392.633    2614.1235   -44006.757    63.522695   0.93896227 
   84700    211.57585   -184.58184    132789.16   -41407.381    2632.4058   -44039.787    63.495954   0.94053979 
   84800     213.9337   -60.433361    132880.22   -41383.858    2661.7419     -44045.6     63.46138   0.93989527 
   84900    214.37656   -282.49634    132860.23    -41369.16    2667.2519   -44036.412    63.414871    0.9400367 
   85000    215.85935   -75.124425    132740.62   -41325.831    2685.7007   -44011.532    63.405856   0.94088375 
   85100    212.17937   -209.85541    132644.62   -41325.277    2639.9148   -43965.191    63.631874    0.9415647 
   85200    207.13692   -184.00248    132672.29   -41321.529    2577.1771   -43898.706    63.561992   0.94136833 
   85300    211.47731   -148.36554    132539.35   -41359.672    2631.1798   -43990.852    63.548756   0.94231251 
   85400    212.26026   -101.04309    132650.16   -41343.314    2640.9212   -43984.235     63.53544   0.94152534 
   85500    213.34306   -35.322425    132698.46   -41312.474    2654.3932   -43966.867    63.670084   0.94118271 
   85600    220.11238   -117.48289    132863.24   -41287.892    2738.6164   -44026.509    63.772394   0.94001541 
   85700    215.96464    114.95989    132811.94   -41330.767    2687.0107   -44017.778    63.857708   0.94037848 
   85800    215.00223   -219.23447       132891   -41347.761    2675.0364   -44022.798    64.044658   0.93981901 
   85900    218.33436   -29.042006    132832.39   -41260.673    2716.4946   -43977.168    64.126735   0.94023373 
   86000    216.94056   -5.1453807    132721.29    -41318.28     2699.153   -44017.433    64.035315   0.94102077 
   86100    213.80082   -196.04901    132755.34   -41318.479    2660.0886   -43978.568    63.841073   0.94077939 
   86200    215.33482   -139.84273    132707.04   -41283.247    2679.1746   -43962.421    63.643668   0.94112184 
   86300    217.82315   -117.14823    132598.17   -41330.597    2710.1341   -44040.731    63.745226    0.9418945 
   86400    213.00561    33.082597    132693.87    -41358.72    2650.1947   -44008.915     63.88486   0.94121524 
   86500    214.17545   -27.383658     132672.7   -41338.415    2664.7498   -44003.165    64.161052    0.9413654 
   86600    214.57241   -30.844775    132759.09   -41270.325    2669.6887   -43940.013     64.12343   0.94075283 
   86700    216.34343   -155.20039    132709.84   -41273.303    2691.7236   -43965.027     63.82404   0.94110199 
   86800    212.94522     116.7173    132796.56   -41338.733    2649.4434   -43988.176    64.040173    0.9404874 
   86900    213.74127   -108.92014    132787.77   -41309.535    2659.3478   -43968.883    64.183444   0.94054967 
   87000    216.84028   -80.262965    132840.64   -41314.139    2697.9053   -44012.044    64.253391   0.94017535 
   87100    212.79014   -313.79638    132716.89   -41349.712    2647.5138   -43997.226    64.438658   0.94105197 
   87200    218.52589   -62.598559    132637.03   -41341.228    2718.8775   -44060.106    64.317875   0.94161856 
   87300    213.80379    18.925312    132572.19   -41342.473    2660.1256   -44002.599     64.16872   0.94207912 
   87400    212.70045   -77.293659    132693.39    -41341.03    2646.3979   -43987.428    64.149867   0.94121864 
   87500    215.00272   -282.28786    132717.44   -41360.588    2675.0425    -44035.63    64.396404   0.94104809 
   87600     213.4151   -184.05677     132750.1   -41369.682    2655.2895   -44024.972    64.287056   0.94081653 
   87700    211.86509   -17.884233    132777.88   -41380.359    2636.0045   -44016.363    64.652838   0.94061973 
   87800    216.94514   -186.28865    132867.66   -41353.252    2699.2099   -44052.462    64.792989   0.93998411 
   87900    211.79711     47.12033       132849   -41373.912    2635.1587    -44009.07    64.926843   0.94011617 
   88000    212.16163   -74.179573    133031.86   -41396.787     2639.694   -44036.481    64.955935   0.93882388 
   88100    211.63236   -138.30228    133023.17   -41314.826    2633.1089   -43947.935    65.074749   0.93888522 
   88200    220.08504   -262.67874    132985.49   -41289.237    2738.2764   -44027.514    65.097574   0.93915124 
   88300    218.49622   -2.5667728    132840.28   -41315.602    2718.5084    -44034.11    64.898196   0.94017785 
   88400    208.62796   -15.016464    132776.21   -41412.787    2595.7284   -44008.515    65.215552   0.94063153 
   88500    218.88752   -75.145139       132658   -41329.408    2723.3769   -44052.785    65.170794   0.94146971 
   88600     214.1774     -150.215    132757.23    -41289.97    2664.7741   -43954.744     65.21283   0.94076602 
   88700      215.908   -107.47506    132569.09   -41275.744     2686.306    -43962.05    65.082679   0.94210115 
   88800     218.9728   -98.247353    132714.18   -41212.351    2724.4379   -43936.789    64.823421   0.94107119 
   88900    215.98787   -124.12446    132679.47   -41248.693    2687.2997   -43935.992    64.918393   0.94131741 
   89000    214.67157   -102.11735    132685.74   -41226.687    2670.9225   -43897.609    65.221631   0.94127292 
   89100    216.17079   -104.93854    132539.35   -41324.385    2689.5756    -44013.96     65.37574   0.94231256 
   89200     210.6848   -83.026529    132566.34    -41354.62    2621.3195    -43975.94     65.47323   0.94212068 
   89300    208.91616   -175.55711    132566.93   -41370.172    2599.3142   -43969.486    65.698638   0.94211648 
   89400    211.56342   -194.84319    132488.16   -41394.773    2632.2511   -44027.024    65.474875   0.94267659 
   89500    214.65423   -157.07794    132599.31   -41425.549    2670.7068   -44096.256     65.51658   0.94188644 
   89600    209.21553   -115.96744    132622.48   -41468.464    2603.0389   -44071.503    65.435694   0.94172188 
   89700    214.19893   -165.70554    132574.12   -41449.548    2665.0419    -44114.59    65.412369   0.94206539 
   89800    213.17711   -94.358326    132355.01    -41415.16    2652.3286   -44067.488    65.413671   0.94362493 
   89900    211.09212    142.29652    132350.31   -41470.585    2626.3873   -44096.972      65.3398   0.94365845 
   90000    210.55603    57.873445    132408.56   -41374.962    2619.7173   -43994.679    65.429955   0.94324335 
   90100    210.03792    -126.2908    132341.32   -41379.125     2613.271   -43992.396    65.153107   0.94372259 
   90200    211.49835   -119.47659    132230.33   -41403.384    2631.4415   -44034.826    65.325846   0.94451467 
   90300    207.78732   -31.886052    132336.97   -41405.587    2585.2693   -43990.856    65.363234   0.94375363 
   90400    211.02163   -198.05986    132389.42   -41397.456    2625.5102   -44022.966    65.762566    0.9433797 
   90500    212.58774   -163.62727    132477.86    -41371.18    2644.9956   -44016.176    65.759761   0.94274988 
   90600    215.16105   -84.975764    132604.64   -41284.747    2677.0125   -43961.759    65.801992   0.94184861 
   90700    212.00009   -63.867485     132617.3   -41291.556    2637.6842    -43929.24     66.01406   0.94175868 
   90800    214.00757   -33.982444    132630.21   -41331.057     2662.661   -43993.719    65.835358     0.941667 
   90900     213.8416   -170.61414     132574.3   -41426.161    2660.5961   -44086.757    65.603068   0.94206414 
   91000    211.37653   -124.50115    132456.55   -41431.687    2629.9258   -44061.613    65.682793   0.94290155 
   91100    211.92459    9.1529733    132514.41   -41411.023    2636.7448   -44047.767    65.679162   0.94248985 
   91200    209.79226   -222.61843     132353.4   -41373.589    2610.2146   -43983.803    65.764355   0.94363641 
   91300     215.4118   -139.23203    132345.86   -41282.817    2680.1323   -43962.949    65.800002   0.94369023 
   91400    220.11596   -74.899271    132251.02    -41265.77     2738.661   -44004.431    65.997022   0.94436695 
   91500    217.29923   -206.39714     132282.2   -41270.491    2703.6156   -43974.106    65.801662   0.94414435 
   91600     211.4118   -96.509706    132063.62   -41313.335    2630.3647     -43943.7    65.725063   0.94570699 
   91700    214.07139   -230.19899    131874.72    -41389.06     2663.455   -44052.515    65.555113   0.94706166 
   91800    211.40894   -169.31209     132102.4   -41361.943    2630.3292   -43992.273      66.0845   0.94542942 
   91900    214.95549   -150.57658    132071.21   -41363.943     2674.455   -44038.398    66.283197   0.94565268 
   92000    213.05855   -121.63603    132233.44    -41364.96    2650.8534   -44015.813    66.444533   0.94449248 
   92100     213.2199   -68.864552    132314.36   -41398.706    2652.8609   -44051.567    66.350953   0.94391483 
   92200    215.28571    68.520968    132369.24   -41352.587    2678.5635    -44031.15    66.269128   0.94352354 
   92300    221.69895   -71.289028     132424.4   -41279.658    2758.3565   -44038.014    66.434285   0.94313049 
   92400     217.2939   -1.7176475     132385.8   -41289.845    2703.5492   -43993.394    66.377769    0.9434055 
   92500    214.99399   -263.54817    132459.83   -41340.247     2674.934   -44015.181    66.440787   0.94287826 
   92600    217.21841    -140.3464     132230.9   -41315.564      2702.61   -44018.174    66.612663   0.94451063 
   92700    222.18497   -132.11602    132235.02     -41305.8    2764.4034   -44070.203    66.489475   0.94448123 
   92800    213.16985   -156.64997    132090.12   -41352.765    2652.2382   -44005.003     66.31832   0.94551729 
   92900    216.29306   -76.799704    132286.65   -41322.432    2691.0969   -44013.529     66.35735   0.94411262 
   93000    210.69254   -64.294292     132274.1    -41350.03    2621.4158   -43971.446    66.380515   0.94420218 
   93100    217.94217   -116.16017    132329.29   -41286.743    2711.6149   -43998.358    66.489165   0.94380833 
   93200    214.65438   -165.21849    132319.17   -41294.311    2670.7086    -43965.02    66.658047   0.94388056 
   93300    216.73515   -97.708249    132341.07   -41317.709    2696.5973   -44014.306    66.672178   0.94372435 
   93400    213.37056   -67.468089    132440.81   -41344.725    2654.7355   -43999.461    66.705007   0.94301366 
   93500    210.35645   -206.96378       132554    -41380.91    2617.2342   -43998.144    66.874537   0.94220839 
   93600    210.09359   -207.66078    132497.18   -41444.381    2613.9637   -44058.345    66.875606   0.94261245 
   93700    214.33008   -207.09497     132465.1    -41407.84    2666.6737   -44074.514    66.629786   0.94284073 
   93800    212.34236   -2.8096968    132458.27   -41370.988    2641.9426   -44012.931    66.749017   0.94288931 
   93900    212.55112   -81.615729    132428.49   -41343.471      2644.54   -43988.011    66.699199   0.94310139 
   94000    217.23194   -57.629748    132407.34   -41357.156    2702.7784   -44059.934     66.78152   0.94325199 
   94100    217.85662    60.651197    132412.67   -41351.978    2710.5506   -44062.528    66.734515   0.94321406 
   94200    217.92074   -113.05608    132460.49   -41352.138    2711.3484   -44063.486    66.937115   0.94287355 
   94300    216.32449    43.827883    132629.32    -41294.49    2691.4879   -43985.978    66.891047   0.94167332 
   94400    214.78697   -37.123897    132703.19   -41282.316    2672.3582   -43954.674    66.751149   0.94114912 
   94500    218.61628    28.976319    132664.13   -41228.589    2720.0022   -43948.591    67.183693    0.9414262 
   94600    214.70591   -121.11366    132401.74    -41262.58    2671.3498    -43933.93    67.318401   0.94329192 
   94700    216.24405   -5.3048254    132594.89   -41298.323    2690.4871    -43988.81    67.243984   0.94191783 
   94800    215.89535   -116.75195    132746.36   -41297.143    2686.1486   -43983.292    67.572324   0.94084305 
   94900    219.71509   -126.05094    132674.15   -41269.254    2733.6734   -44002.927      67.3988   0.94135516 
   95000    219.00109   -58.515086     132651.8   -41265.651    2724.7899   -43990.441    67.240898   0.94151372 
   95100    218.30937    -72.98986    132751.43   -41274.658    2716.1836   -43990.842    67.183722   0.94080712 
   95200    217.71037   -57.733406    132771.15    -41299.97    2708.7309   -44008.701    67.193313   0.94066741 
   95300    222.29565   -158.67366    132675.61   -41209.298    2765.7804   -43975.079    67.290573   0.94134476 
   95400    219.15197   -66.990764    132674.63   -41255.915    2726.6672   -43982.582    67.463635   0.94135171 
   95500    218.13514    -64.62105    132709.41   -41257.525    2714.0158   -43971.541    67.305641   0.94110503 
   95600    215.90588   -82.340167    132741.04   -41244.236    2686.2796   -43930.516    67.480353   0.94088075 
   95700    214.81682   -217.91504     132560.6   -41312.911    2672.7297    -43985.64    67.634909   0.94216148 
   95800    211.37596    -98.92833    132458.59   -41359.187    2629.9187   -43989.106    67.675192   0.94288707 
   95900    214.66186   -141.71038    132407.19   -41305.914    2670.8016   -43976.715    67.863967   0.94325306 
   96000    213.23886   -107.60083    132354.59   -41375.706    2653.0968   -44028.803    67.550096   0.94362796 
   96100    215.83138   -171.98161    132472.51   -41321.306    2685.3527   -44006.659    67.597941     0.942788 
   96200    214.05967   -96.778806    132514.53   -41356.519    2663.3093   -44019.828    67.648842   0.94248901 
   96300    215.68429   -178.88301    132471.14   -41316.154    2683.5226   -43999.677    67.708787   0.94279771 
   96400    213.72766    34.996328    132399.62   -41288.481    2659.1785   -43947.659    67.847875     0.943307 
   96500    215.72492   -69.019178     132437.9   -41330.439    2684.0282   -44014.467    67.979704   0.94303433 
   96600    215.18786   -98.614705     132484.5   -41334.498    2677.3461   -44011.844    67.914323   0.94270269 
   96700    207.61854    -118.7168    132681.71   -41401.186    2583.1694   -43984.356    67.762897   0.94130146 
   96800     209.1229   -130.45306    132720.11   -41438.881    2601.8864   -44040.768    67.856683   0.94102914 
   96900    210.96742   -81.875944    132648.92   -41377.875    2624.8358    -44002.71    68.086644   0.94153418 
   97000    211.18591   -5.0642751    132745.98   -41371.422    2627.5542   -43998.976    68.101766   0.94084575 
   97100    209.87189   -145.97868    132620.07   -41358.622    2611.2053   -43969.827    68.168277   0.94173898 
   97200    212.81778    1.8591004    132589.64   -41371.988    2647.8577   -44019.846    68.117226   0.94195513 
   97300    210.67854   -116.02597    132617.89   -41377.595    2621.2415   -43998.837    68.100393   0.94175444 
   97400    212.69541   -125.68637    132723.57   -41376.969    2646.3352   -44023.304    68.337394    0.9410046 
   97500    214.55177   -155.81457    132675.17   -41283.746    2669.4319   -43953.177    68.327789   0.94134789 
   97600     213.3008   -220.33454    132634.34   -41360.128    2653.8675   -44013.995    68.535425   0.94163768 
   97700    215.35537   -212.32741     132525.1   -41300.956    2679.4303   -43980.387    68.285114   0.94241387 
   97800    215.41777   -16.593682    132455.21   -41282.422    2680.2066   -43962.629    68.264263   0.94291112 
   97900    221.21017   -103.42211    132518.18   -41255.079    2752.2751   -44007.354    68.416982    0.9424631 
   98000    215.50122   -87.760587    132440.71   -41283.807    2681.2448   -43965.052    68.285443   0.94301433 
   98100    213.66035    47.731816    132575.15   -41347.688     2658.341   -44006.029    68.602075   0.94205807 
   98200    214.66615   -158.84531    132591.27   -41325.758     2670.855   -43996.613    68.578212   0.94194356 
   98300    210.29213   -30.691724    132502.18   -41336.394    2616.4339   -43952.828     68.49278   0.94257685 
   98400     213.0561   -146.86904    132501.49   -41351.811     2650.823   -44002.634    68.507617   0.94258177 
   98500    214.38866   -15.532274    132429.15   -41346.864    2667.4025   -44014.266    68.433094   0.94309666 
   98600    212.25822   -15.990747    132527.39   -41376.379    2640.8958   -44017.275    68.550989    0.9423976 
   98700    209.08295   -134.16641    132538.15   -41427.418    2601.3894   -44028.808    68.853863   0.94232107 
   98800    211.60833   -40.078855       132526   -41395.521    2632.8099   -44028.331     68.59012    0.9424075 
   98900    209.66304   -150.75157    132632.06   -41385.321    2608.6069   -43993.927    68.797553   0.94165383 
   99000     203.9239    -160.8913    132797.09   -41417.922    2537.2009   -43955.122    68.705159   0.94048367 
   99100    212.56789   -109.16743    132869.14    -41333.93    2644.7487   -43978.679    68.861445   0.93997368 
   99200    212.60334   -103.80956    132765.83   -41333.687    2645.1898   -43978.876    69.098171    0.9407051 
   99300    214.39299     -201.519    132687.16   -41274.791    2667.4564   -43942.247    68.909968   0.94126282 
   99400    217.06666    -21.77286    132714.77   -41246.936    2700.7219   -43947.658    68.994759   0.94106698 
   99500    217.54596   -107.61481    132805.29   -41134.991    2706.6853   -43841.676    69.222069   0.94042557 
   99600    220.23725   -189.71517    132735.15   -41160.623    2740.1701   -43900.793    69.158127   0.94092251 
   99700    220.56737   -363.61277    132646.58   -41173.421    2744.2774   -43917.699    68.980305    0.9415508 
   99800    217.51452   -164.50592    132655.35   -41185.829    2706.2942   -43892.123    69.042036   0.94148852 
   99900    213.12127   -138.05409    132491.09   -41252.772    2651.6337   -43904.406     68.94135   0.94265576 
  100000     217.4335   -24.239249    132710.12   -41252.383    2705.2861   -43957.669    68.964013   0.94109996 
  100100    217.74706   -174.94435     132784.9   -41198.957    2709.1874   -43908.145    69.305628   0.94056996 
  100200    218.08959   -117.76877    132741.49   -41211.748    2713.4491   -43925.197    69.405603   0.94087759 
  100300    219.07871   -111.78161    132844.01   -41200.179    2725.7557   -43925.935    69.434824   0.94015147 
  100400    216.28714   -67.569567    132825.63   -41254.573    2691.0232   -43945.596    69.455902   0.94028155 
  100500    218.31534   -283.50265    132624.22   -41179.308    2716.2578   -43895.566     69.38774    0.9417095 
  100600    215.36451   -30.789677    132551.71   -41263.706     2679.544    -43943.25    69.305517   0.94222469 
  100630    216.59987   -93.298126    132594.42   -41251.887    2694.9142   -43946.801    69.207833   0.94192113 
Loop time of 78.3724 on 6 procs for 100000 steps with 4175 atoms

Performance: 551.215 ns/day, 0.044 hours/ns, 1275.960 timesteps/s
98.4% CPU use with 6 MPI tasks x no OpenMP threads

MPI task timing breakdown:
Section |  min time  |  avg time  |  max time  |%varavg| %total
---------------------------------------------------------------
Pair    | 62.927     | 63.874     | 65.236     |   9.5 | 81.50
Neigh   | 4.9496     | 5.0027     | 5.1276     |   2.6 |  6.38
Comm    | 5.4538     | 6.9483     | 7.9658     |  30.9 |  8.87
Output  | 0.15943    | 0.16024    | 0.16378    |   0.4 |  0.20
Modify  | 1.743      | 1.772      | 1.8014     |   1.6 |  2.26
Other   |            | 0.6148     |            |       |  0.78

Nlocal:        695.833 ave         706 max         686 min
Histogram: 1 0 1 0 1 0 1 1 0 1
Nghost:        1459.17 ave        1476 max        1444 min
Histogram: 1 1 1 0 1 0 0 0 0 2
Neighs:        0.00000 ave           0 max           0 min
Histogram: 6 0 0 0 0 0 0 0 0 0
FullNghs:      19116.0 ave       19511 max       18799 min
Histogram: 1 0 1 1 0 2 0 0 0 1

Total # of neighbors = 114696
Ave neighs/atom = 27.472096
Neighbor list builds = 5350
Dangerous builds = 0

undump              1
unfix               2
unfix               3
unfix               4


################################################
#######         Run Simulation         #########
################################################

reset_timestep      0
log                 log.run_${NAME}
log                 log.run_liquid_density_MLmW
