
# Create simulation box of size 50 x 50 x 50 Angstrom
#
lattice	            sc 1
Lattice spacing in x,y,z = 1.0000000 1.0000000 1.0000000
region 	            all block 0 50 0 50 0 50 units box
create_box          1 all
Created orthogonal box = (0.0000000 0.0000000 0.0000000) to (50.000000 50.000000 50.000000)
  1 by 2 by 3 MPI processor grid

# fill box with 4175 randomly distributed atoms
#
create_atoms        1 random 4175 63782 all
Created 4175 atoms
  create_atoms CPU = 0.001 seconds
mass                1 18.015

# Define potential
#
pair_style          sw
pair_coeff          * * ML_mW.sw mW
Reading sw potential file ML_mW.sw with DATE: 2019-02-27

# Run minimization
#
minimize            1.0e-8 1.0e-8 10000 1000
WARNING: Using 'neigh_modify every 1 delay 0 check yes' setting during minimization (../min.cpp:187)
Neighbor list info ...
  update every 1 steps, delay 0 steps, check yes
  max neighbors/atom: 2000, page size: 100000
  master list distance cutoff = 6.0032907
  ghost atom cutoff = 6.0032907
  binsize = 3.0016454, bins = 17 17 17
  1 neighbor lists, perpetual/occasional/extra = 1 0 0
  (1) pair sw, perpetual
      attributes: full, newton on
      pair build: full/bin/atomonly
      stencil: full/bin/3d
      bin: standard
Per MPI rank memory allocation (min/avg/max) = 4.255 | 4.258 | 4.261 Mbytes
Step Temp E_pair E_mol TotEng Press 
       0            0    7792709.3            0    7792709.3    5898794.3 
     630            0   -45180.336            0   -45180.336   -154.07449 
Loop time of 1.15392 on 6 procs for 630 steps with 4175 atoms

98.7% CPU use with 6 MPI tasks x no OpenMP threads

Minimization stats:
  Stopping criterion = max force evaluations
  Energy initial, next-to-last, final = 
      7792709.32924461  -45180.0188663597   -45180.336116598
  Force two-norm initial, final = 2.0191930e+08 4.9721331
  Force max component initial, final = 1.0948746e+08 0.73126211
  Final line search alpha, max atom move = 0.053306038 0.038980685
  Iterations, force evaluations = 630 1000

MPI task timing breakdown:
Section |  min time  |  avg time  |  max time  |%varavg| %total
---------------------------------------------------------------
Pair    | 0.90317    | 0.98355    | 1.0726     |   5.4 | 85.24
Neigh   | 0.024041   | 0.024696   | 0.025852   |   0.4 |  2.14
Comm    | 0.035367   | 0.12525    | 0.20598    |  15.2 | 10.85
Output  | 0          | 0          | 0          |   0.0 |  0.00
Modify  | 0          | 0          | 0          |   0.0 |  0.00
Other   |            | 0.02042    |            |       |  1.77

Nlocal:        695.833 ave         704 max         685 min
Histogram: 1 1 0 0 1 0 0 1 0 2
Nghost:        1494.17 ave        1515 max        1468 min
Histogram: 1 1 0 0 0 0 1 1 1 1
Neighs:        0.00000 ave           0 max           0 min
Histogram: 6 0 0 0 0 0 0 0 0 0
FullNghs:      19997.0 ave       20462 max       19320 min
Histogram: 1 1 0 0 0 0 0 2 0 2

Total # of neighbors = 119982
Ave neighs/atom = 28.738204
Neighbor list builds = 26
Dangerous builds = 0

# Add velocity/set timestep
#
velocity            all create ${TEMP} 120598 rot yes dist gaussian
velocity            all create 215 120598 rot yes dist gaussian
timestep            5.0

# Define output
#
compute	            1 all msd
thermo	            100
thermo_style        custom step temp press vol etotal ke pe c_1[4] density

# Neighbor lists
#
neigh_modify        delay 0 every 1 check yes

# Set fixes
#
fix                 1 all momentum 10 linear 1 1 1 rescale
fix                 2 all nve
fix                 3 all temp/csvr ${TEMP} ${TEMP} 500.0 928347
fix                 3 all temp/csvr 215 ${TEMP} 500.0 928347
fix                 3 all temp/csvr 215 215 500.0 928347
fix                 4 all press/berendsen iso ${PRES} ${PRES} 1000.0 modulus 20000
fix                 4 all press/berendsen iso -850 ${PRES} 1000.0 modulus 20000
fix                 4 all press/berendsen iso -850 -850 1000.0 modulus 20000

# Run 0.5 ns equilibration
#
dump                1 all custom 1000 eq.${NAME}.dump id type x y z vx vy vz
dump                1 all custom 1000 eq.liquid_density_MLmW.dump id type x y z vx vy vz
run                 100000
Per MPI rank memory allocation (min/avg/max) = 3.506 | 3.508 | 3.511 Mbytes
Step Temp Press Volume TotEng KinEng PotEng c_1[4] Density 
     630          215    824.17143       125000   -42505.327    2675.0087   -45180.336 2.7295415e-33   0.99914793 
     700    137.18174   -663.19405    126233.43   -41674.318    1706.8017    -43381.12   0.25436234   0.98938525 
     800    167.71393   -978.57315    126645.09   -40919.388    2086.6801   -43006.068   0.57575341   0.98616921 
     900    185.38859    -711.5239    126855.35   -40490.215    2306.5866   -42796.802   0.96715705    0.9845347 
    1000    200.97409   -583.07931    127195.23   -40208.524    2500.4997   -42709.024     1.400503    0.9819039 
    1100    210.53087   -871.46128    127440.72   -40041.418    2619.4043   -42660.822    1.7856799   0.98001247 
    1200    208.82508    -794.4666    127739.49   -40084.451     2598.181   -42682.632    2.1547765   0.97772033 
    1300    209.30862    -846.9706    127859.68   -40082.294    2604.1971   -42686.491    2.5136541   0.97680125 
    1400    209.20699   -835.14102    128083.66   -40111.134    2602.9327   -42714.067    2.8953514    0.9750931 
    1500    208.73836   -495.18903    128217.19   -40071.815     2597.102   -42668.917    3.1255553   0.97407757 
    1600    220.32586   -876.83355    128714.84   -39989.449    2741.2726   -42730.721    3.4253066   0.97031153 
    1700    218.19641   -874.04282    129190.15   -40039.142    2714.7781    -42753.92    3.7001879   0.96674161 
    1800    214.23563   -776.32568    129142.53    -40149.64    2665.4986   -42815.138    3.9265353   0.96709808 
    1900    213.53177   -818.21169    129363.71   -40159.427    2656.7412   -42816.168    4.2493968   0.96544455 
    2000    216.95016   -760.82836    129681.47   -40130.504    2699.2725   -42829.776    4.4150167   0.96307889 
    2100    220.31812   -867.66603    129772.89   -40107.298    2741.1763   -42848.474    4.7351222   0.96240047 
    2200    214.69373   -830.07319    129517.45   -40156.366    2671.1982   -42827.564    5.0131321   0.96429856 
    2300     221.2117   -978.37107    129570.96   -40153.659    2752.2941   -42905.953    5.2040377   0.96390036 
    2400    218.21787   -713.33759    130045.37   -40195.303    2715.0452   -42910.348     5.424767   0.96038397 
    2500    216.09023    -779.2972    130239.18   -40166.703    2688.5733   -42855.276    5.6702943   0.95895483 
    2600    218.36001   -928.07035    130337.16   -40125.731    2716.8137   -42842.545    5.8737719   0.95823393 
    2700    217.83775   -813.47555    130305.79   -40159.961    2710.3158   -42870.277    5.9850908   0.95846466 
    2800    216.89708    -996.6046    130196.83   -40167.422     2698.612   -42866.034    6.2527726   0.95926673 
    2900    216.56554   -760.38014    130313.42   -40242.377    2694.4871   -42936.864     6.503714   0.95840853 
    3000    217.95507   -771.83615    130380.61   -40291.433    2711.7755   -43003.209    6.7488999   0.95791459 
    3100    215.20341   -840.49079    130331.33   -40280.286    2677.5396   -42957.826    6.9962016   0.95827684 
    3200    217.16754   -813.10334    130600.46    -40343.42    2701.9771   -43045.398    7.1114191   0.95630206 
    3300    215.88649   -819.06326    130760.37   -40348.259    2686.0383   -43034.298    7.3760417   0.95513262 
    3400    216.97537   -686.63767    130700.58   -40396.341    2699.5861   -43095.927    7.6028596   0.95556953 
    3500    219.76623   -832.37139    130728.37   -40455.562    2734.3097   -43189.872    7.7752165   0.95536642 
    3600    212.21994   -906.30629    130765.78   -40509.298    2640.4195   -43149.717    7.8844779   0.95509311 
    3700     212.3578   -767.24593    130766.23   -40583.352    2642.1348   -43225.487    7.9706099   0.95508981 
    3800    215.02368   -840.47585    130759.03   -40542.452    2675.3034   -43217.755    8.2298672   0.95514238 
    3900    215.30663   -739.37048    131037.12   -40589.314    2678.8237   -43268.138    8.3154209   0.95311534 
    4000     214.4211   -858.84587    131090.77   -40588.581    2667.8061   -43256.387    8.4580737   0.95272526 
    4100    216.34697   -790.51158    131233.38   -40577.119    2691.7676   -43268.886    8.7036875   0.95168993 
    4200    213.88597   -761.31545    131351.34   -40600.257    2661.1481   -43261.406    8.9437195   0.95083529 
    4300    216.16281   -796.76813    131255.82   -40610.181    2689.4763   -43299.657    9.0024038   0.95152729 
    4400    214.21794    -889.0736    131295.85   -40607.492    2665.2784    -43272.77    9.1902226   0.95123719 
    4500    214.07384   -763.05234    131329.56   -40626.425    2663.4855   -43289.911    9.2756716     0.950993 
    4600    214.95901   -763.52492    131494.55   -40663.111    2674.4987    -43337.61     9.238973   0.94979976 
    4700    220.13306    -817.5553    131620.62   -40601.506    2738.8738    -43340.38    9.4447407   0.94889004 
    4800    215.06347   -886.77984    131767.45    -40682.68    2675.7985   -43358.478    9.5165406   0.94783268 
    4900    216.67524   -868.36115    131859.65   -40590.416    2695.8519   -43286.268    9.7047972   0.94716988 
    5000    218.21829   -957.96992    131937.81   -40563.622    2715.0503   -43278.673    9.9385403   0.94660878 
    5100    217.86186    -803.5896    131843.79   -40642.335    2710.6157   -43352.951     9.963107   0.94728387 
    5200     214.4306   -1160.7686    131987.85    -40703.33    2667.9243   -43371.254    9.9824288    0.9462499 
    5300    219.74423   -835.41832     131962.9   -40690.227    2734.0359   -43424.263    10.164062   0.94642883 
    5400    215.46609   -766.12863    132168.96   -40733.164    2680.8077   -43413.972    10.229713   0.94495324 
    5500    212.21313   -776.87771    132101.23   -40742.224    2640.3348   -43382.559    10.163925   0.94543779 
    5600    216.83951   -723.57041    132314.75   -40735.366    2697.8957   -43433.261    10.291583   0.94391211 
    5700    213.70529    -806.8374     132319.9    -40753.45    2658.9002    -43412.35    10.400904   0.94387531 
    5800    214.40795   -916.34376    132326.95   -40795.752    2667.6425   -43463.395    10.461408   0.94382507 
    5900    210.89759   -882.12308    132462.19   -40828.796     2623.967   -43452.763     10.52487   0.94286141 
    6000    214.90955   -866.20841    132567.85   -40833.305    2673.8834   -43507.189    10.551267   0.94210996 
    6100    216.47515   -865.37245    132648.96   -40779.617    2693.3625   -43472.979    10.847662   0.94153386 
    6200    209.38222   -906.27613     132613.1    -40846.34    2605.1129   -43451.453     10.90391    0.9417885 
    6300    214.45194   -913.90511    132496.71   -40816.819    2668.1898   -43485.009    10.929049   0.94261579 
    6400    218.56016   -809.88613    132770.59   -40801.145    2719.3039   -43520.449    11.101182   0.94067137 
    6500    217.96648   -932.28288    132964.05   -40754.693    2711.9174    -43466.61     11.26294   0.93930272 
    6600    214.90684   -868.54388    132832.35   -40835.269    2673.8496   -43509.119    11.342181   0.94023403 
    6700    212.21086   -787.17695    132969.92   -40893.581    2640.3066   -43533.888    11.550941   0.93926126 
    6800    215.64385   -868.26088    133009.41    -40834.89    2683.0194   -43517.909    11.668876   0.93898238 
    6900    217.49984   -960.44797    133064.72   -40766.741    2706.1116   -43472.852    11.506528   0.93859205 
    7000    217.36382   -916.41675    133152.66    -40771.36    2704.4192   -43475.779    11.677005   0.93797216 
    7100    217.35613   -953.32016    132963.46   -40803.656    2704.3235   -43507.979    11.748107   0.93930688 
    7200    213.21336   -915.54819    132855.42    -40855.05    2652.7796   -43507.829    11.844052   0.94007076 
    7300     211.4861   -902.86564    132907.48   -40902.227    2631.2892   -43533.517    11.850331    0.9397025 
    7400     212.1899    -826.8515    133013.68   -40935.843    2640.0458   -43575.889    12.016973   0.93895223 
    7500    209.58362   -695.70009     133016.3   -40910.717    2607.6187   -43518.336    12.142123   0.93893371 
    7600     212.7229   -751.74526    133023.75    -41005.33    2646.6773   -43652.007    12.322847   0.93888118 
    7700    213.75198   -978.96597    133060.73    -40912.47     2659.481   -43571.951    12.282744   0.93862018 
    7800    217.64156   -808.85377    133031.23   -40899.129    2707.8748   -43607.004    12.205125   0.93882834 
    7900    213.44224   -821.09956    133230.39   -40967.291    2655.6273   -43622.919    12.391564   0.93742493 
    8000    217.05092   -882.90949    133320.29   -40942.446    2700.5261   -43642.972    12.462339   0.93679285 
    8100    213.67046   -983.91852    133246.77   -41019.681    2658.4667   -43678.147    12.570317   0.93730972 
    8200    212.03186   -845.12183     133304.7   -41038.813    2638.0794   -43676.893     12.76821    0.9369024 
    8300    214.48891   -966.20946    133204.07   -41030.893    2668.6498   -43699.543    12.769221   0.93761017 
    8400    213.47808   -867.22458    133235.64   -40988.488    2656.0732   -43644.562    12.700011   0.93738803 
    8500    215.69542   -846.40812    133264.57   -40915.308    2683.6611   -43598.969    12.789082    0.9371845 
    8600    215.45843   -709.25876    133343.55   -40926.077    2680.7124    -43606.79     12.88939    0.9366294 
    8700    217.49637   -887.63471    133429.57   -40906.241    2706.0683   -43612.309    12.988377   0.93602555 
    8800    210.96757   -890.78673       133227   -40959.983    2624.8377   -43584.821    12.955868   0.93744878 
    8900    213.55859   -711.18618    133351.46   -41036.096    2657.0749   -43693.171    13.005988   0.93657386 
    9000    212.28671   -828.63077    133369.63   -40991.327    2641.2503   -43632.578    13.098909   0.93644626 
    9100    213.62864   -851.81678    133382.63   -41056.597    2657.9464   -43714.544    13.211958   0.93635497 
    9200    216.85914   -782.76646    133538.57   -40957.252      2698.14   -43655.392    13.248518   0.93526156 
    9300    210.98029   -920.97138    133344.21     -41014.3    2624.9959   -43639.296     13.24592   0.93662481 
    9400    214.88323   -804.92203    133264.15   -40986.201    2673.5559   -43659.757    13.278647   0.93718747 
    9500    213.80273    -862.9559    133357.44   -41003.683    2660.1124   -43663.796    13.412861   0.93653188 
    9600    213.58977   -819.18526    133396.64   -40973.018    2657.4628   -43630.481    13.562357   0.93625664 
    9700    214.95096   -806.86268    133351.26   -40896.473    2674.3986   -43570.871    13.641647   0.93657527 
    9800    213.41674    -814.0061    133526.79   -40983.613    2655.3099   -43638.923     13.82386    0.9353441 
    9900    211.98641   -978.44257    133447.16   -41080.785     2637.514   -43718.299     13.76425   0.93590222 
   10000    213.73954   -893.49846    133466.82   -41083.171    2659.3262   -43742.497    13.813976   0.93576433 
   10100    213.05184   -862.35457    133483.22   -41055.507      2650.77   -43706.277    13.964714   0.93564936 
   10200    212.15957   -901.78682    133674.19   -41099.167    2639.6684   -43738.836     14.05545   0.93431267 
   10300    211.78582   -691.26382    133846.33   -41093.856    2635.0182   -43728.874    14.243477   0.93311109 
   10400    210.94274   -909.07463    133791.84   -41023.975    2624.5287   -43648.503    14.247638   0.93349107 
   10500     215.5474   -787.66206    133793.49    -41024.33    2681.8194   -43706.149    14.210087   0.93347959 
   10600    217.17579   -777.04335    133782.29   -40965.375    2702.0797   -43667.454    14.106847   0.93355776 
   10700    215.36623   -847.16006    133936.66   -40953.155    2679.5654    -43632.72    14.258466   0.93248177 
   10800    219.36609   -881.85724    133739.65   -40939.165    2729.3312   -43668.496    14.342053   0.93385541 
   10900    215.64877    -695.7275    133842.51   -40963.695    2683.0806   -43646.775    14.384771   0.93313773 
   11000     219.3973   -740.63561    133877.73   -40954.465    2729.7195   -43684.184     14.56517   0.93289217 
   11100    213.05787   -843.67696    133850.07   -41001.388     2650.845   -43652.233    14.501053   0.93308498 
   11200    217.27225   -1026.0756    133879.18   -40998.459    2703.2799   -43701.739    14.750328   0.93288208 
   11300    216.12015   -827.71118    133930.85   -40993.784    2688.9455    -43682.73    14.911351   0.93252219 
   11400    217.48513   -845.54094    133731.58   -41014.062    2705.9285   -43719.991    14.833298   0.93391172 
   11500    214.67445   -876.30457    133723.84   -41051.901    2670.9583   -43722.859    14.858426   0.93396577 
   11600    212.34026   -848.81046    133904.33   -41044.984    2641.9165   -43686.901    14.923204   0.93270692 
   11700    218.09092   -830.03446    133736.41   -40952.517    2713.4656   -43665.983    15.128368   0.93387798 
   11800    220.02063   -904.75785    133677.11   -41018.456    2737.4749   -43755.931    15.144502    0.9342923 
   11900     214.2471   -735.87109    133858.75   -41034.419    2665.6412    -43700.06    15.189055   0.93302445 
   12000    212.19481   -825.42077     134002.8   -41030.966    2640.1068   -43671.073    15.188611   0.93202154 
   12100    214.40067   -873.59346    133917.34   -40991.887     2667.552   -43659.439    15.353264    0.9326163 
   12200    215.71595   -843.19727    133942.37   -41005.696    2683.9166   -43689.613    15.485593   0.93244203 
   12300    218.14011   -780.77033    134121.95   -41039.625    2714.0776   -43753.702    15.467479   0.93119349 
   12400    214.09126   -900.78258    134070.22   -41036.316    2663.7023   -43700.018     15.57604    0.9315528 
   12500    211.24539   -721.30337    134151.22   -41139.267    2628.2943   -43767.561    15.588701   0.93099035 
   12600    213.55453   -971.63286    134122.51   -41072.486    2657.0243    -43729.51    15.665751   0.93118964 
   12700    216.90133   -898.53511    133987.51   -41074.767    2698.6649   -43773.432     15.77238   0.93212787 
   12800      218.577    -853.5788    134053.05   -41058.852    2719.5135   -43778.365    15.761618   0.93167214 
   12900    215.28671   -803.30275    134143.52   -41121.825     2678.576   -43800.401    15.869069   0.93104382 
   13000    218.94833   -760.62261    134119.89    -41071.78    2724.1334   -43795.913    15.989888   0.93120785 
   13100    218.46911    -798.5716    134197.69   -41084.472     2718.171   -43802.643    16.068592   0.93066795 
   13200    225.10254   -749.64129     134070.1   -41020.688    2800.7036   -43821.391    15.962044   0.93155367 
   13300    217.13654   -880.46905    134114.27   -41065.278    2701.5914   -43766.869    16.023555   0.93124685 
   13400    214.08461   -757.72259    134197.19   -41151.407    2663.6195   -43815.027     16.15844   0.93067143 
   13500    214.29583   -675.39314    134230.98   -41172.174    2666.2476   -43838.421    16.158818   0.93043713 
   13600    212.17225   -775.96211    134127.55   -41200.406    2639.8261   -43840.232    16.199979   0.93115463 
   13700     212.4358   -930.60251    134129.22   -41192.576    2643.1052   -43835.682    16.183269   0.93114307 
   13800    215.65476   -744.35806    134177.34   -41084.371    2683.1552   -43767.526    16.263442   0.93080909 
   13900    216.04497   -895.59732    134175.94   -41119.239    2688.0102    -43807.25    16.160266    0.9308188 
   14000    212.40902   -935.35997    134004.15   -41089.436     2642.772   -43732.208    16.251535    0.9320121 
   14100    212.10262   -757.07528    134064.06   -41087.586    2638.9598   -43726.545    16.340556    0.9315956 
   14200    213.37103   -916.42119    134202.76   -41121.334    2654.7413   -43776.075    16.426476   0.93063283 
   14300     211.4868   -806.29749    134335.09   -41172.229    2631.2978   -43803.527    16.489137   0.92971607 
   14400    214.12151   -895.57221    134362.71   -41148.464    2664.0786   -43812.542    16.350035   0.92952494 
   14500    216.91485   -944.99391     134270.7   -41103.456    2698.8331   -43802.289    16.359673   0.93016194 
   14600    212.10277   -977.83728    134184.44   -41112.833    2638.9617   -43751.794    16.336646   0.93075989 
   14700    213.93074   -854.21331    134244.89   -41154.864    2661.7052   -43816.569    16.461839   0.93034072 
   14800    211.31384    -962.3272    134190.07   -41188.072    2629.1459   -43817.218    16.392317   0.93072082 
   14900    213.71176   -891.69121    134077.01   -41262.567    2658.9806   -43921.548    16.436492   0.93150565 
   15000    213.37608   -781.75195    134288.61   -41271.565    2654.8041   -43926.369    16.496264   0.93003784 
   15100    209.15555   -860.10342    134440.74   -41307.438    2602.2926   -43909.731    16.567984   0.92898544 
   15200    211.79777   -973.71765    134211.11   -41251.523     2635.167    -43886.69    16.615864   0.93057491 
   15300     213.9389     -603.134    134206.04    -41270.49    2661.8066   -43932.297      16.5469   0.93061007 
   15400    213.31122     -795.785    134293.93   -41259.858    2653.9971   -43913.855    16.595819   0.93000099 
   15500    212.75316   -915.32864    134270.02   -41247.217    2647.0538   -43894.271    16.493582   0.93016662 
   15600    215.87363    -782.6368    134037.72   -41187.253    2685.8783   -43873.131    16.488097   0.93177869 
   15700    214.53113   -933.16672    134067.76   -41270.623    2669.1751   -43939.798     16.61902   0.93156993 
   15800    213.98517   -804.20937    134108.66   -41262.488    2662.3824   -43924.871    16.769874   0.93128579 
   15900     210.1506   -957.25787    134135.78   -41302.771     2614.673   -43917.444    16.676453   0.93109748 
   16000    214.72018   -872.70877    134230.51   -41230.409    2671.5273   -43901.936    16.776357   0.93044045 
   16100    216.94251   -831.14428    134241.13   -41175.924    2699.1772   -43875.102    16.784031   0.93036683 
   16200    215.03251   -806.68056    134394.47   -41230.569    2675.4132   -43905.982    16.786834   0.92930526 
   16300    214.44729   -735.39241       134444   -41247.756     2668.132   -43915.888     17.14718   0.92896293 
   16400    215.30166   -855.17126    134646.71   -41150.747     2678.762   -43829.509    17.142984   0.92756436 
   16500    213.61524    -929.9716    134618.98   -41135.797    2657.7796   -43793.576    17.259735   0.92775546 
   16600    217.66418   -931.71334    134611.35   -41119.383    2708.1563   -43827.539    17.234676   0.92780802 
   16700    214.62438   -984.77937    134493.56   -41148.568    2670.3353   -43818.904    17.269732   0.92862059 
   16800    214.87663   -874.88651    134421.24    -41142.33    2673.4738   -43815.804    17.270164   0.92912022 
   16900     217.7874   -837.23937    134274.63   -41102.343    2709.6893   -43812.032    17.355509   0.93013466 
   17000     218.9047   -957.36553    134238.14   -41123.402    2723.5906   -43846.992    17.421841    0.9303875 
   17100    219.89206    -772.4951    134207.74   -41054.989    2735.8753   -43790.865    17.461897   0.93059828 
   17200    217.62414   -780.72308    134353.34    -41073.11     2707.658   -43780.768    17.595051   0.92958979 
   17300    212.32161   -951.13665     134286.1   -41139.675    2641.6845   -43781.359    17.518759   0.93005526 
   17400    219.32689   -850.76172    134429.94   -41164.085    2728.8435   -43892.928    17.571554   0.92906006 
   17500    212.82282   -1044.6189    134541.16   -41163.448    2647.9205   -43811.369    17.606738   0.92829208 
   17600    217.45346   -883.52458    134421.62    -41142.09    2705.5344   -43847.624    17.588223   0.92911758 
   17700    215.15205   -714.81489    134515.76   -41170.681    2676.9005   -43847.581      17.6396   0.92846738 
   17800    211.99464   -927.26629    134455.02   -41185.319    2637.6164   -43822.935    17.860752   0.92888679 
   17900    216.03479   -708.94618    134446.99   -41151.897    2687.8835   -43839.781    17.901092   0.92894227 
   18000    216.98093   -829.03293    134474.46   -41095.644    2699.6553   -43795.299    17.929943   0.92875248 
   18100     218.2563     -815.712    134563.83   -41200.178    2715.5233   -43915.701    17.881701   0.92813567 
   18200    216.59881   -832.26767    134515.25   -41204.986     2694.901   -43899.887    17.787279    0.9284709 
   18300    217.67996   -788.67183    134585.27    -41124.35    2708.3526   -43832.703    17.849829   0.92798784 
   18400    216.04105   -769.70509    134794.15   -41189.282    2687.9613   -43877.243    18.066778   0.92654981 
   18500    217.25608   -851.58663    134848.88   -41162.634    2703.0787   -43865.713    18.204141    0.9261737 
   18600    213.88686   -833.23476    134737.71    -41211.99    2661.1592   -43873.149    18.275616   0.92693793 
   18700    214.09229   -854.78319     134915.5   -41166.257    2663.7151   -43829.972    18.471219   0.92571641 
   18800    218.86761   -842.20526    134905.74   -41143.172    2723.1292   -43866.301    18.436083   0.92578334 
   18900     214.8855   -826.91577    134864.13   -41175.256    2673.5842    -43848.84    18.503041   0.92606901 
   19000    212.14897   -864.95026    134886.98   -41138.369    2639.5365   -43777.906     18.45984   0.92591216 
   19100    216.34106   -890.59061    134930.38   -41183.559     2691.694   -43875.253    18.536474   0.92561428 
   19200    213.95677   -887.75574    134984.93   -41160.475    2662.0289   -43822.503    18.601006   0.92524028 
   19300    218.28074   -909.02546     134953.3   -41108.336    2715.8274   -43824.164    18.656874   0.92545711 
   19400    217.55119   -829.76733    134854.95   -41126.316    2706.7504   -43833.067    18.648182   0.92613203 
   19500    212.84717    -804.1674    134898.75   -41115.323    2648.2235   -43763.547    18.703268   0.92583137 
   19600    214.83207   -859.90707     134885.7   -41142.953    2672.9194   -43815.873    18.757649   0.92592095 
   19700     220.5721   -828.07306    134991.54    -41124.96    2744.3362   -43869.296    18.726539   0.92519493 
   19800    214.99662   -798.17781    134733.38   -41166.883    2674.9666    -43841.85    18.700495   0.92696771 
   19900    213.04788   -762.93829    134918.05   -41170.416    2650.7206   -43821.136     18.86595   0.92569891 
   20000     216.5983   -1033.7309    134988.95   -41202.405    2694.8946     -43897.3    18.919233   0.92521272 
   20100    214.97778   -989.91561    134828.35   -41167.594    2674.7323   -43842.326    18.984067   0.92631479 
   20200    214.78582   -929.63728    134836.32   -41212.566     2672.344    -43884.91    18.830537   0.92626002 
   20300    212.42324   -758.46003     134759.4   -41243.859     2642.949   -43886.808    18.875393   0.92678871 
   20400    210.73824    -869.8373    134761.71   -41236.925    2621.9844   -43858.909    18.881525   0.92677282 
   20500    210.73908   -1076.6003    134836.52   -41206.278    2621.9949   -43828.273    18.973352   0.92625863 
   20600    214.13617   -819.49749    134784.04   -41232.296     2664.261   -43896.557     18.98517   0.92661931 
   20700     215.6238    -889.1457    134718.12   -41175.379      2682.77   -43858.149    19.080143   0.92707268 
   20800    214.11336   -941.84751    134822.12   -41183.509    2663.9772   -43847.487    19.291982    0.9263576 
   20900    215.67809   -897.63774    134661.22   -41211.553    2683.4455   -43894.998    19.379029   0.92746444 
   21000    212.70802   -861.36881    134824.98   -41301.461    2646.4922   -43947.954    19.326152    0.9263379 
   21100    209.36995   -977.68296    134746.35   -41318.693    2604.9602   -43923.653    19.296681   0.92687847 
   21200    210.68437    -777.8629    134675.03   -41295.564    2621.3141   -43916.878    19.384054   0.92736934 
   21300    212.04126   -932.41375    134663.58   -41318.818    2638.1964   -43957.014    19.430234   0.92744819 
   21400    213.98561    -714.8678    134654.45   -41288.534    2662.3878   -43950.922    19.522802   0.92751104 
   21500    217.06307   -670.49192       134850   -41271.877    2700.6773   -43972.554    19.577862   0.92616606 
   21600     213.9803   -880.09068    134858.43   -41230.648    2662.3218    -43892.97    19.544447   0.92610818 
   21700    218.85587   -910.25438       134882   -41205.996    2722.9831   -43928.979    19.543398   0.92594634 
   21800    220.72769   -811.27548    134984.93   -41200.396    2746.2721   -43946.668    19.563611   0.92524025 
   21900    217.56397   -789.26795    134996.57   -41235.178    2706.9094   -43942.088    19.654705    0.9251605 
   22000    212.18185   -879.93967    134852.44   -41278.663    2639.9456   -43918.609    19.573632   0.92614926 
   22100    211.11765   -907.93397    134745.23   -41223.553    2626.7049   -43850.258    19.719885   0.92688619 
   22200     216.1845   -749.18207    134687.89   -41251.211    2689.7462   -43940.957    19.748107    0.9272808 
   22300     215.6673   -688.03753    134578.36   -41248.443    2683.3112   -43931.755     19.49442   0.92803543 
   22400    218.27957   -970.28771    134682.35   -41220.325    2715.8128   -43936.138    19.600788   0.92731889 
   22500    221.20409   -791.39128     134694.4   -41235.767    2752.1994   -43987.966    19.653162   0.92723594 
   22600    218.34391   -949.18536    134703.08   -41208.948    2716.6133   -43925.561    19.788755   0.92717624 
   22700    215.11652   -908.41391    134843.68   -41218.939    2676.4585   -43895.397    19.953977   0.92620945 
   22800    220.30689   -939.72113    134898.23   -41208.815    2741.0365   -43949.852    19.785581   0.92583492 
   22900    218.15249   -826.09242     134896.5   -41272.512    2714.2317   -43986.744    19.817281   0.92584678 
   23000    214.04275    -810.4251    134943.46   -41249.639    2663.0988   -43912.737     19.96939    0.9255246 
   23100    212.15405   -933.64058    135086.06   -41355.503    2639.5997   -43995.102    19.946479   0.92454756 
   23200    214.75401   -860.35193    135025.61   -41300.073    2671.9481   -43972.021    19.871414    0.9249615 
   23300    208.82785   -814.39907    134852.23   -41344.757    2598.2155   -43942.972    19.977582   0.92615073 
   23400    216.15065   -876.96722     134714.4   -41277.259    2689.3251   -43966.584    20.041584   0.92709833 
   23500    215.61803   -798.16035    134710.19   -41318.199    2682.6983   -44000.897    20.002157   0.92712726 
   23600    217.83241   -757.01273    134716.16   -41305.275    2710.2493   -44015.525    20.028549    0.9270862 
   23700    212.87983   -943.04725    134683.92   -41342.269    2648.6297   -43990.899    20.017325    0.9273081 
   23800    210.89282   -830.16968     134698.5   -41390.952    2623.9076    -44014.86    20.003545   0.92720776 
   23900    212.90326   -896.50364    134734.41   -41404.231    2648.9213   -44053.152    20.030241   0.92696058 
   24000    217.07775   -962.62673    134675.36    -41338.78    2700.8599    -44039.64    20.218551   0.92736705 
   24100    215.08852   -872.31073    134674.17   -41345.903    2676.1101   -44022.013    20.236265   0.92737528 
   24200    210.63723   -835.09535    134705.99   -41403.224    2620.7276   -44023.952    20.306594   0.92715619 
   24300    211.44945   -879.12452    134782.43   -41370.383    2630.8331   -44001.216    20.346464   0.92663033 
   24400    209.91554   -759.50586    134857.97   -41398.346    2611.7484   -44010.095    20.481121   0.92611129 
   24500    215.41265   -827.64799    134865.83   -41348.613    2680.1429   -44028.756    20.250825   0.92605736 
   24600     211.4297   -913.69314    134625.56    -41345.37    2630.5875   -43975.958    20.301157    0.9277101 
   24700    212.90751   -875.13495    134723.36   -41356.463    2648.9742   -44005.437    20.500466   0.92703661 
   24800    211.47876   -738.44009    134779.13   -41348.738    2631.1978   -43979.936    20.541457   0.92665306 
   24900    216.22082    -804.1112    134858.79   -41291.502    2690.1981     -43981.7    20.641643   0.92610569 
   25000    217.46799   -925.37984    134943.95   -41265.828    2705.7153   -43971.543    20.562507   0.92552126 
   25100    214.61123    -707.8771    134796.57   -41273.653    2670.1718   -43943.825    20.487154   0.92653317 
   25200    213.07848   -865.90446    134887.47   -41319.056    2651.1014   -43970.158    20.597285   0.92590878 
   25300    212.96742   -827.43087    134912.05   -41321.385    2649.7196   -43971.105    20.555182   0.92574004 
   25400    209.38855    -860.9834    134720.31   -41306.029    2605.1917    -43911.22    20.551219   0.92705764 
   25500    210.70044   -1007.4243    134793.28   -41257.215     2621.514   -43878.729    20.802011   0.92655577 
   25600     211.6702   -924.39765    134651.11   -41332.328    2633.5797   -43965.908    20.719855   0.92753406 
   25700    212.30708   -902.57145     134738.2   -41334.167    2641.5037   -43975.671    20.708428   0.92693452 
   25800    216.41092   -850.44613     134962.1   -41316.523    2692.5632   -44009.086    20.627489   0.92539678 
   25900    215.79146   -780.95239    135065.93   -41273.956     2684.856   -43958.812    20.716085   0.92468538 
   26000    220.68802   -815.01407    134926.28   -41218.776    2745.7785   -43964.555    20.795905   0.92564245 
   26100     215.5925    -765.3072    134814.23   -41295.507    2682.3806   -43977.888    20.718709   0.92641175 
   26200    217.30429   -827.83511    134989.76   -41284.046    2703.6785   -43987.725    20.855686   0.92520712 
   26300    212.14518   -872.27825    134873.02   -41267.056    2639.4893   -43906.545    20.992733   0.92600795 
   26400      217.676   -831.44116    134809.81   -41257.174    2708.3033   -43965.477    20.984374   0.92644216 
   26500    213.37367   -863.54282     134695.8   -41308.832    2654.7742   -43963.606    20.887175   0.92722632 
   26600     210.1874   -986.59894    134645.37   -41344.027    2615.1309   -43959.158    21.049097   0.92757361 
   26700    211.69894   -842.36231    134705.93   -41363.424    2633.9373   -43997.362    21.092977   0.92715659 
   26800    210.75141   -703.75948    134700.97   -41278.144    2622.1482   -43900.292    21.166659   0.92719076 
   26900    214.86484   -741.99448    134781.81   -41285.194    2673.3271   -43958.521    21.110987    0.9266346 
   27000    215.27152   -815.30045    134986.86    -41319.24     2678.387   -43997.627    21.216772   0.92522704 
   27100    210.97327   -1012.4218    135123.28   -41321.678    2624.9086   -43946.587    21.381986   0.92429295 
   27200    215.31875   -781.13136    135032.75   -41348.735    2678.9746    -44027.71    21.304697   0.92491258 
   27300    214.76702   -752.02943    135024.91   -41372.286      2672.11   -44044.396    21.434524    0.9249663 
   27400    215.98263    -746.8099    135029.77   -41321.989    2687.2345   -44009.223    21.502771   0.92493301 
   27500     214.8399    -784.6429    135249.62   -41253.174    2673.0168    -43926.19    21.616086   0.92342952 
   27600    213.60183    -910.7197    135309.21   -41283.725    2657.6129   -43941.337    21.662225   0.92302284 
   27700    214.31175   -774.54115    135302.55   -41287.892    2666.4456   -43954.337    21.675404   0.92306824 
   27800    217.46938   -928.30901    135251.66   -41226.921    2705.7325   -43932.653    21.607545   0.92341559 
   27900    218.89275   -925.82667    135297.28   -41254.805    2723.4419   -43978.247    21.696388   0.92310421 
   28000    215.95754   -659.48172    135235.77   -41299.688    2686.9224    -43986.61    21.639852   0.92352411 
   28100    216.68398   -756.68205    135494.68    -41292.89    2695.9607   -43988.851    21.884913    0.9217594 
   28200    215.67459   -937.31585    135328.14   -41350.303     2683.402   -44033.705    21.874967   0.92289374 
   28300    213.46641   -782.80902    135523.08   -41332.261     2655.928   -43988.189    21.980588   0.92156618 
   28400     215.7373   -849.39236    135412.89   -41392.059    2684.1822   -44076.242    22.058411   0.92231612 
   28500    210.97336   -775.46247    135446.71   -41393.615    2624.9097   -44018.525    22.098224   0.92208583 
   28600    214.59692    -835.4681    135350.33   -41348.672    2669.9937   -44018.665    22.196725    0.9227424 
   28700    212.98035    -906.1551    135331.59   -41355.334    2649.8805   -44005.215    22.166357   0.92287018 
   28800    218.25935   -927.30219    135302.91   -41318.063    2715.5613   -44033.624    22.092688   0.92306582 
   28900    214.86882   -802.43781    135373.35   -41287.978    2673.3766   -43961.355    22.318956    0.9225855 
   29000    210.68423   -739.79985    135454.53   -41356.416    2621.3124   -43977.728     22.20135   0.92203257 
   29100    217.48991   -835.21551       135574   -41297.152     2705.988    -44003.14    22.330791   0.92122008 
   29200    216.43698   -991.18897    135603.76   -41265.671    2692.8875   -43958.559    22.419914   0.92101789 
   29300    212.75042   -1024.1229    135560.75    -41336.11    2647.0197    -43983.13    22.362347   0.92131014 
   29400    213.65113   -804.02696    135441.42   -41403.396    2658.2263   -44061.622    22.396891   0.92212182 
   29500    211.38112   -801.85287       135486   -41434.577     2629.983    -44064.56    22.436386    0.9218184 
   29600    217.00747   -940.68511    135626.09   -41360.964    2699.9855    -44060.95    22.501066   0.92086629 
   29700    209.09525   -896.55186    135451.47   -41411.988    2601.5425    -44013.53    22.521345   0.92205341 
   29800    215.21532   -787.74835    135466.61   -41388.163    2677.6877   -44065.851    22.793399   0.92195039 
   29900     210.7295   -763.96624    135549.78   -41424.893    2621.8757   -44046.769    22.841651   0.92138467 
   30000    214.52887   -874.72447    135298.32   -41392.179     2669.147   -44061.326    22.612994   0.92309713 
   30100    213.22757   -866.11745    135349.66   -41385.547    2652.9563   -44038.503     22.55721     0.922747 
   30200    212.89816   -791.09085    135338.77   -41393.284    2648.8579   -44042.142    22.702233   0.92282122 
   30300    212.72618   -825.15759    135431.51   -41358.602    2646.7181    -44005.32    22.719659   0.92218935 
   30400    217.56588   -852.17202    135403.47   -41347.084    2706.9331   -44054.017    22.687866   0.92238031 
   30500    216.09413   -785.42404    135486.93   -41355.194    2688.6218   -44043.816    22.774415    0.9218121 
   30600    218.26595   -921.48311    135510.39    -41339.33    2715.6434   -44054.974    22.664283   0.92165251 
   30700    213.66455   -869.38787    135375.53   -41358.907    2658.3932     -44017.3    22.728163   0.92257068 
   30800    215.00653   -857.82192    135395.58   -41296.817    2675.0901   -43971.907    22.848163     0.922434 
   30900    213.79709    -840.7284    135367.21   -41412.085    2660.0422   -44072.127    22.728831   0.92262732 
   31000    214.14065   -785.18828    135342.95   -41452.268    2664.3168   -44116.585    22.839186   0.92279271 
   31100    213.76969    -854.2077    135329.84   -41439.813    2659.7013   -44099.514     22.88193   0.92288216 
   31200     213.4016   -909.01493     135310.1   -41438.698    2655.1216    -44093.82    22.886675   0.92301678 
   31300    215.25155   -926.74457    135195.29   -41406.973    2678.1385   -44085.112    22.894195   0.92380061 
   31400    211.97617   -931.98734     135125.3   -41366.972    2637.3865   -44004.358    23.003929    0.9242791 
   31500    215.42602   -869.93084    135273.21   -41418.431    2680.3092    -44098.74    23.046315   0.92326851 
   31600    218.69713   -870.98823    135273.33   -41364.103     2721.008   -44085.111    23.105729   0.92326763 
   31700    216.73865    -836.5393    135338.95   -41405.519    2696.6409    -44102.16    23.014979   0.92282004 
   31800    217.11042   -846.13036    135467.24   -41347.103    2701.2664   -44048.369    23.082433   0.92194607 
   31900    218.73084   -832.36639    135539.36   -41348.008    2721.4275   -44069.435    23.247455   0.92145553 
   32000    219.99484   -895.90531       135369   -41345.029    2737.1541   -44082.183     23.32177   0.92261513 
   32100    214.86472   -823.75286    135409.21   -41355.586    2673.3256   -44028.911    23.271733   0.92234119 
   32200    214.87962   -825.66299    135394.61   -41355.693    2673.5109   -44029.204     23.19449   0.92244066 
   32300    214.92675   -778.67026    135420.98   -41339.295    2674.0973   -44013.392    23.251827   0.92226103 
   32400    217.26682   -757.17848    135252.01   -41398.933    2703.2123   -44102.145    23.370901   0.92341317 
   32500    214.97878   -841.29104    135365.24   -41403.933    2674.7448   -44078.678    23.525575   0.92264077 
   32600    217.01568   -845.56037    135399.03   -41345.792    2700.0876   -44045.879    23.410495    0.9224105 
   32700    214.50641   -904.06821    135390.47   -41410.582    2668.8675    -44079.45    23.345359   0.92246885 
   32800    213.07727   -852.68749    135408.18    -41441.28    2651.0863   -44092.366    23.437657   0.92234822 
   32900    212.13512   -968.42464    135252.19   -41438.483    2639.3642   -44077.848    23.529981   0.92341198 
   33000    212.32336   -971.07314     135218.5   -41492.907    2641.7063   -44134.613     23.46354   0.92364201 
   33100    216.32829   -965.77813    135343.52   -41414.131    2691.5352   -44105.666    23.569015   0.92278883 
   33200    214.46688   -870.19976    135287.59   -41452.136    2668.3758   -44120.512    23.578938   0.92317035 
   33300    217.73679   -800.99839    135350.19   -41384.616    2709.0597   -44093.675    23.544167   0.92274338 
   33400    212.08797   -733.95409    135483.18   -41463.283    2638.7776    -44102.06    23.549118   0.92183759 
   33500    210.98495    -1066.541    135360.45   -41431.234    2625.0539   -44056.288    23.523065   0.92267342 
   33600    215.29651   -739.09953    135411.53   -41394.069    2678.6979   -44072.767    23.590366   0.92232541 
   33700    216.31742   -790.72554    135447.37   -41380.516       2691.4   -44071.916    23.755131   0.92208135 
   33800    215.17008    -850.0279    135534.79   -41379.576    2677.1248   -44056.701    23.716927   0.92148658 
   33900    212.85432     -855.155    135498.59   -41389.888    2648.3124     -44038.2    23.890225   0.92173277 
   34000    216.62065   -834.14704    135474.82   -41353.448    2695.1727   -44048.621    23.958314   0.92189449 
   34100    214.61823   -860.55183    135337.59   -41377.359    2670.2588   -44047.618    23.951592   0.92282928 
   34200    214.02069   -773.59158    135316.44   -41377.582    2662.8242   -44040.406    23.845791   0.92297353 
   34300    213.17516   -857.08673    135409.98   -41420.453    2652.3043   -44072.757    23.847923   0.92233592 
   34400    213.89534     -809.087     135443.3   -41351.288    2661.2647   -44012.553    23.941836   0.92210903 
   34500    214.96772   -730.37782    135433.72   -41366.234    2674.6072   -44040.841    24.057312   0.92217424 
   34600    216.69194   -835.89324    135375.14   -41343.261    2696.0597   -44039.321    24.060082   0.92257328 
   34700    214.05249   -960.73651     135375.7   -41420.855    2663.2199   -44084.075    24.040205   0.92256947 
   34800    213.66445    -827.4007    135478.62    -41413.29     2658.392   -44071.682     24.07745   0.92186861 
   34900    213.57053   -755.74217    135416.09   -41430.852    2657.2234   -44088.076    24.180952   0.92229433 
   35000    209.76444   -851.03749    135446.98   -41511.969    2609.8684   -44121.838    24.136854   0.92208396 
   35100    216.27785   -873.21201    135614.93   -41455.369    2690.9077   -44146.277     24.16912   0.92094204 
   35200    214.17748   -816.04791    135513.24   -41465.952     2664.775   -44130.727    24.010461   0.92163313 
   35300     215.0796   -782.93999    135606.54   -41464.088    2675.9991   -44140.087     23.97072   0.92099905 
   35400    209.23624   -1071.1643    135643.48   -41483.428    2603.2967   -44086.724    24.069398   0.92074824 
   35500     215.1725   -875.60972    135800.31    -41393.37     2677.155   -44070.525    24.287518   0.91968486 
   35600     212.1042   -811.11342    135669.91   -41446.883    2638.9795   -44085.863    24.270618   0.92056881 
   35700    216.92085   -815.12553    135726.81   -41409.298    2698.9077   -44108.206    24.426836   0.92018291 
   35800    213.83804   -902.44879    135682.29    -41457.68    2660.5518   -44118.232    24.353015   0.92048481 
   35900    221.25138   -846.02939    135865.12   -41411.736    2752.7878   -44164.524    24.338246   0.91924615 
   36000    219.95012   -912.53253    135872.27   -41389.836    2736.5976   -44126.434    24.290947   0.91919782 
   36100    216.60781   -937.46791    135890.79   -41410.883     2695.013   -44105.896    24.278948   0.91907251 
   36200    214.87837   -980.12759    135912.03   -41448.839    2673.4955   -44122.334     24.39846   0.91892889 
   36300    212.56809   -803.96504    135919.84   -41510.561    2644.7512   -44155.312    24.377052   0.91887608 
   36400    216.01447   -917.06215    135996.81   -41447.599    2687.6307    -44135.23    24.326524   0.91835605 
   36500    212.06976   -792.42139    135923.36   -41427.294     2638.551   -44065.845     24.35611   0.91885229 
   36600    208.18758   -963.50622    135888.29   -41552.498    2590.2493   -44142.748    24.310724   0.91908943 
   36700    213.11653    -816.7216    135775.27   -41483.688    2651.5748   -44135.262    24.225509   0.91985448 
   36800    214.40907    -753.8536    135605.53   -41471.338    2667.6565   -44138.994    24.159319   0.92100587 
   36900    214.21333   -790.94287     135678.2   -41500.442    2665.2211   -44165.663    24.153446    0.9205126 
   37000    214.01279   -859.06907    135699.02   -41448.799    2662.7259   -44111.525    24.211935   0.92037137 
   37100    216.69548   -936.79087    135677.58   -41433.139    2696.1037   -44129.243    24.369995   0.92051679 
   37200     211.2138    -808.4863    135593.77    -41489.98    2627.9012   -44117.881    24.439702   0.92108574 
   37300    212.61005   -782.00957     135674.3   -41498.949    2645.2732   -44144.223     24.49733   0.92053908 
   37400    211.92374   -818.67389    135573.37   -41527.533    2636.7343   -44164.267    24.427342   0.92122435 
   37500    214.50735     -833.706    135778.19   -41540.647    2668.8793   -44209.526    24.432898   0.91983468 
   37600    213.79869   -907.75287    135520.01   -41497.316    2660.0622   -44157.379    24.327308   0.92158711 
   37700    212.24596   -817.48566    135583.24   -41484.122    2640.7432   -44124.865    24.476219   0.92115733 
   37800    211.44593   -817.94694    135678.39   -41572.286    2630.7894   -44203.075     24.59986   0.92051127 
   37900    212.41072   -836.98261    135958.26   -41532.059    2642.7932   -44174.852    24.514935   0.91861641 
   38000    214.44742   -913.58205    135711.14   -41515.215    2668.1336   -44183.349    24.593866   0.92028918 
   38100    213.00478   -899.73261    135648.97   -41477.495    2650.1844    -44127.68    24.542762   0.92071092 
   38200    210.69574   -716.79647    135618.85   -41490.279    2621.4556   -44111.735    24.591661   0.92091542 
   38300    217.03441   -804.99933    135705.97   -41433.243    2700.3207   -44133.563    24.499759   0.92032425 
   38400    210.59808   -801.01037    135743.46    -41498.23    2620.2405    -44118.47    24.672682   0.92007004 
   38500    215.64436   -801.46018    135913.93   -41519.941    2683.0258   -44202.967    24.706273   0.91891607 
   38600    214.89908   -815.80056    136095.24   -41488.629    2673.7531   -44162.382    24.682682   0.91769182 
   38700    215.19166   -931.91769    136059.06   -41507.353    2677.3934   -44184.746    24.644756   0.91793588 
   38800    214.75788   -794.20956    135922.08   -41535.206    2671.9964   -44207.202    24.644679   0.91886092 
   38900    217.33739   -857.63845    135929.34   -41497.395    2704.0904   -44201.485    24.710003   0.91881187 
   39000    218.03682   -758.26153    135941.95   -41549.159    2712.7926   -44261.951    24.849437   0.91872661 
   39100     213.9297   -796.63805    135988.16   -41509.822    2661.6922   -44171.514    24.827607   0.91841445 
   39200    212.58402   -899.42176    135909.64   -41550.378    2644.9494   -44195.327    24.671644   0.91894503 
   39300    218.80277   -722.79621    135930.01   -41543.274    2722.3225   -44265.596    24.774717   0.91880735 
   39400    218.21003   -856.29138    136105.63   -41507.411    2714.9476   -44222.359    24.793237   0.91762181 
   39500    219.02503   -775.95019    136152.66   -41486.124    2725.0878   -44211.211    24.884714   0.91730485 
   39600     212.9568   -834.27829    136181.51   -41528.053    2649.5874    -44177.64    24.853702    0.9171105 
   39700    216.16387   -877.25425     136257.3   -41473.865    2689.4895   -44163.355    24.865114   0.91660037 
   39800    215.90585   -1015.5923    136279.18   -41543.606    2686.2793   -44229.886    24.995852   0.91645324 
   39900    213.34376   -869.45916    136134.25   -41591.866     2654.402   -44246.267    24.861789   0.91742885 
   40000     211.7663   -1070.4628    136263.33   -41615.365    2634.7754    -44250.14      24.9143   0.91655982 
   40100     214.4731    -920.8145       136043   -41527.148    2668.4531   -44195.601    24.893732   0.91804422 
   40200    213.65642   -886.45941     136021.2     -41550.4     2658.292   -44208.692    24.699686   0.91819133 
   40300    214.79755   -938.88452    135941.95   -41528.509    2672.4898   -44200.998    24.814309   0.91872667 
   40400    218.84809   -782.11755    135884.14   -41440.371    2722.8863   -44163.257     24.89367   0.91911752 
   40500    215.36802   -931.39746    135937.14   -41458.313    2679.5876     -44137.9    24.968617   0.91875913 
   40600    214.97786   -846.37523    136075.06    -41490.34    2674.7332   -44165.073    25.225811   0.91782795 
   40700    213.67255   -866.72795     135966.7    -41528.39    2658.4928   -44186.883    25.069876   0.91855937 
   40800    213.76628   -849.71941    136102.49   -41573.224     2659.659   -44232.883    25.134799   0.91764292 
   40900    212.60223   -838.51648    136089.92   -41589.595     2645.176   -44234.771    25.160217    0.9177277 
   41000    213.76066   -829.15506    136006.33   -41501.997     2659.589   -44161.586    24.944861   0.91829176 
   41100    216.06461   -1003.4343    136048.32   -41487.776    2688.2545    -44176.03    25.030868   0.91800831 
   41200    218.38081   -783.99863    136001.08   -41507.787    2717.0725   -44224.859    25.203001   0.91832721 
   41300    207.81016   -777.50189    136095.28   -41647.016    2585.5535    -44232.57    25.173009    0.9176916 
   41400    212.14637   -887.65257    136023.06   -41598.843    2639.5041   -44238.347    25.137275   0.91817878 
   41500    210.99976   -802.04799    136080.81   -41599.843    2625.2382   -44225.081    25.319069   0.91778917 
   41600    216.54964    -857.6189     136116.6   -41573.653    2694.2892   -44267.942     25.25266   0.91754783 
   41700    216.93748   -888.01654    136050.88   -41558.368    2699.1147   -44257.483     25.27383   0.91799105 
   41800    214.20947   -791.31937    136153.42   -41568.997     2665.173    -44234.17    25.423307   0.91729972 
   41900     214.8864   -958.12957    136204.64   -41543.972    2673.5953   -44217.568    25.510478   0.91695472 
   42000    212.11854   -957.18571    136045.56   -41533.678    2639.1579   -44172.836    25.421165   0.91802694 
   42100    216.66183   -767.83677    135819.26   -41536.357     2695.685   -44232.042    25.256222   0.91955655 
   42200    218.33423   -802.79003     135932.9   -41486.452     2716.493   -44202.945    25.478519   0.91878784 
   42300    216.29469   -848.03278    135964.66   -41459.769    2691.1171   -44150.886    25.471119   0.91857319 
   42400    215.53014   -881.81593    135952.74   -41505.118    2681.6048   -44186.722    25.502885   0.91865376 
   42500    214.68203   -805.08371    135886.38   -41513.039    2671.0526   -44184.092    25.495709   0.91910235 
   42600    217.83952   -830.54404    136017.68   -41517.096    2710.3377   -44227.434    25.503866   0.91821511 
   42700    215.91747   -843.83934    135921.64     -41533.4    2686.4239   -44219.823    25.587029    0.9188639 
   42800    218.03869   -836.39974    135983.53   -41484.669    2712.8158   -44197.485    25.518961   0.91844574 
   42900    215.84767    -843.3571    135910.25   -41569.217    2685.5554   -44254.773    25.496937   0.91894095 
   43000    215.44686   -869.55523    135738.38   -41591.519    2680.5685   -44272.087    25.544132   0.92010448 
   43100    217.06495   -840.18031    135787.29   -41570.883    2700.7007   -44271.584    25.635772   0.91977308 
   43200    212.19147    -910.9388    135529.24   -41530.314    2640.0653   -44170.379    25.551619   0.92152431 
   43300    213.16743   -946.61273    135625.05   -41534.386    2652.2081   -44186.594    25.460626    0.9208733 
   43400    217.91307   -847.16452     135607.9   -41486.909    2711.2528   -44198.162    25.402234   0.92098981 
   43500    218.88912   -772.85422    135685.99   -41493.372    2723.3969   -44216.769    25.659482   0.92045973 
   43600     221.5164   -857.27638    135675.81    -41412.07    2756.0852   -44168.155    25.762659   0.92052882 
   43700    217.56999   -777.87912    135659.78   -41443.866    2706.9843    -44150.85    25.696164   0.92063754 
   43800    215.53953   -663.76312    135771.45   -41456.302    2681.7215   -44138.023    25.735207   0.91988035 
   43900    218.89777   -899.36383     135839.6   -41497.829    2723.5045   -44221.333    25.775352   0.91941888 
   44000    215.57976   -889.57748    135810.59   -41530.699    2682.2221   -44212.921    25.870653   0.91961529 
   44100    215.59871   -863.19337    135872.42   -41555.827    2682.4578   -44238.285     25.78315   0.91919678 
   44200    212.32551   -870.34366    135813.44   -41597.231     2641.733   -44238.964    25.615858   0.91959598 
   44300    214.12239   -910.69504    135848.78   -41606.704    2664.0897   -44270.794    25.656766   0.91935672 
   44400    212.59698   -899.90921    135784.86   -41564.778    2645.1105   -44209.888    25.748579   0.91978949 
   44500    214.38095   -870.86333    135822.85   -41587.361    2667.3066   -44254.668    25.834663   0.91953224 
   44600    211.07663   -798.42574    135938.68   -41635.294    2626.1945   -44261.489    25.816621   0.91874871 
   44700    219.40597   -719.96042    135948.54   -41607.551    2729.8274   -44337.378    25.841054   0.91868213 
   44800    214.78951    -821.3694    135924.25   -41576.797    2672.3898   -44249.187    25.729775   0.91884631 
   44900    218.93948   -905.57744    135988.27   -41531.259    2724.0234   -44255.282    25.948688   0.91841368 
   45000    214.35455   -989.92852    135904.57   -41532.378    2666.9781   -44199.356    25.865116   0.91897932 
   45100    214.45886   -933.59013    135888.64   -41483.232    2668.2759   -44151.508    25.887698   0.91908707 
   45200    216.38401   -848.77827    135699.51   -41542.547    2692.2285   -44234.776    25.954249   0.92036802 
   45300    212.40937   -837.63955    135770.65   -41549.005    2642.7764   -44191.781    25.925817   0.91988577 
   45400    214.93549    -847.8095    135875.86   -41522.905    2674.2062   -44197.111    25.970181    0.9191735 
   45500    216.66169   -756.68667    135782.41   -41540.395    2695.6833   -44236.079    25.952935   0.91980613 
   45600    215.93864   -907.17118    135803.29   -41534.738    2686.6872   -44221.425    25.930009   0.91966468 
   45700    213.04316   -838.42333    135854.65   -41548.168    2650.6619    -44198.83    25.929177   0.91931698 
   45800    215.30909   -831.86082    135814.35   -41504.625    2678.8545    -44183.48     26.01038    0.9195898 
   45900    220.88793    -1048.238    135768.14   -41441.369    2748.2658   -44189.635     25.99512   0.91990279 
   46000    216.02011   -999.27335    135675.96   -41417.082    2687.7008   -44104.783    26.061918   0.92052778 
   46100    218.58495   -976.95766    135646.93   -41371.006    2719.6123   -44090.619     25.99927   0.92072479 
   46200     221.4653    -859.8952    135657.92   -41367.569    2755.4493   -44123.018    26.183067   0.92065018 
   46300    219.49022   -797.68468    135670.04   -41394.949    2730.8757   -44125.825    26.200839   0.92056798 
   46400    219.83371   -840.35899    135670.48   -41438.528    2735.1493   -44173.677    25.961032   0.92056495 
   46500    217.93516   -798.97241     135756.2   -41462.105    2711.5278   -44173.633    26.038263   0.91998372 
   46600     216.9353   -920.86133    135633.59   -41460.833    2699.0875    -44159.92    26.142247   0.92081534 
   46700    213.30176   -826.25855     135680.4   -41545.751    2653.8794    -44199.63    26.258928   0.92049768 
   46800    213.44681   -866.22332    135647.25   -41583.173    2655.6841   -44238.857    26.452137    0.9207226 
   46900    215.77516   -871.18426     135716.7   -41515.391    2684.6533   -44200.045     26.45517   0.92025143 
   47000    218.69027   -862.55703    135628.32   -41500.268    2720.9227   -44221.191    26.389475   0.92085115 
   47100    218.88334   -843.37933    135609.07    -41474.34    2723.3249   -44197.665    26.294535   0.92098181 
   47200    218.12156   -849.84865     135454.7   -41530.474    2713.8468   -44244.321    26.293781   0.92203143 
   47300    216.29676   -779.45123    135707.87   -41544.669     2691.143   -44235.812    26.512692   0.92031136 
   47400    217.37638   -923.23604    135608.26   -41507.687    2704.5755   -44212.263    26.604077   0.92098737 
   47500    215.13537    -785.1448    135639.52   -41448.138     2676.693   -44124.831     26.56735   0.92077509 
   47600    218.23068   -858.34132    135573.19   -41413.454    2715.2045   -44128.659    26.689871   0.92122561 
   47700    218.25275   -925.54999    135543.86   -41459.839    2715.4791   -44175.318    26.801239   0.92142494 
   47800    219.05603   -829.39174    135606.92   -41482.908    2725.4735   -44208.381    26.470652   0.92099647 
   47900    216.29051   -838.30329    135681.68   -41565.608    2691.0652   -44256.673     26.42157   0.92048897 
   48000    208.55983   -885.12535    135580.66   -41586.465    2594.8808   -44181.346    26.503271    0.9211748 
   48100    213.86551   -824.96854    135394.45   -41554.721    2660.8936   -44215.615    26.368826   0.92244174 
   48200    213.05766   -735.77949       135453   -41576.625    2650.8424   -44227.467    26.500033   0.92204301 
   48300    214.04679   -822.06876    135463.06   -41546.573    2663.1491   -44209.722    26.601255   0.92197456 
   48400    221.68074    -838.8238    135472.29    -41471.78    2758.1299    -44229.91      26.8205   0.92191169 
   48500    216.04745   -882.21219    135390.12   -41534.432     2688.041   -44222.473    26.847889   0.92247121 
   48600    212.72904   -806.97393    135281.99   -41540.872    2646.7536   -44187.626    26.726438   0.92320854 
   48700    215.55857   -854.11064    135215.85   -41522.683    2681.9584   -44204.642    26.605148   0.92366013 
   48800    216.68907   -776.87169    135292.43   -41552.692     2696.024   -44248.716    26.514058    0.9231373 
   48900    216.12405   -703.30102    135484.06   -41540.616    2688.9941    -44229.61    26.667349   0.92183162 
   49000    215.97962   -770.45573    135481.88   -41574.377    2687.1971   -44261.574    26.876594   0.92184648 
   49100    212.88734   -844.59965    135593.97   -41566.915    2648.7233   -44215.638    27.114927   0.92108438 
   49200    215.61152    -832.3847    135586.83   -41578.979    2682.6172   -44261.596    27.050901   0.92113288 
   49300    212.97291    -961.7797    135567.41   -41527.069    2649.7879   -44176.857    26.900872   0.92126486 
   49400    215.57116   -771.86538    135372.21    -41499.63     2682.115   -44181.745    26.821704   0.92259331 
   49500    218.83819   -707.88697     135369.4   -41508.806    2722.7632   -44231.569    26.817103   0.92261245 
   49600     214.4383   -755.99038    135476.66   -41501.466    2668.0201   -44169.487    26.878017   0.92188199 
   49700    217.37656   -644.98878    135639.41    -41520.15    2704.5776   -44224.728    26.901111   0.92077583 
   49800    212.55838   -817.63489    135647.17   -41577.001    2644.6304   -44221.631    27.006507   0.92072315 
   49900    219.24654   -786.43856    135659.74   -41452.694    2727.8438   -44180.538    26.990237   0.92063786 
   50000    217.21492   -703.47423    135683.33   -41492.344    2702.5666   -44194.911    27.019936   0.92047776 
   50100    215.87694   -846.31898    135621.08   -41505.618    2685.9196   -44191.537    26.967529    0.9209003 
   50200    217.10459   -901.36122    135636.93   -41536.813    2701.1939   -44238.007    26.841813    0.9207927 
   50300    216.43091   -767.76728    135566.81   -41506.814     2692.812   -44199.626    26.761119   0.92126894 
   50400     215.2772   -776.09175    135565.52   -41540.346    2678.4576   -44218.804    26.929691   0.92127773 
   50500    213.72599   -949.16972    135637.81   -41582.936    2659.1577   -44242.094    26.986521    0.9207867 
   50600    212.81546   -903.59647    135548.31   -41609.359    2647.8289   -44257.188      27.1599   0.92139467 
   50700     215.8671   -802.67952    135576.03   -41614.059    2685.7971   -44299.856    27.014259   0.92120628 
   50800    215.34769   -702.44519    135524.24   -41600.932    2679.3347   -44280.266    26.956787    0.9215583 
   50900    216.83535   -791.32135    135619.86   -41510.711     2697.844   -44208.555    27.038542   0.92090859 
   51000    211.94787   -897.40204     135534.7   -41539.823    2637.0344   -44176.857    27.181844   0.92148719 
   51100    216.49571   -868.66575    135491.67   -41574.094    2693.6182   -44267.712    27.192631   0.92177982 
   51200    217.01547   -798.84753    135575.47   -41559.682     2700.085   -44259.767    27.127969   0.92121007 
   51300    211.29982     -865.839    135715.02   -41623.216    2628.9714   -44252.187    27.188152   0.92026285 
   51400    214.70992   -905.48059    135612.24   -41626.531    2671.3996   -44297.931    27.066095   0.92096035 
   51500    212.81865    -963.1667    135435.76   -41641.065    2647.8685   -44288.933    27.014129   0.92216035 
   51600    213.19717   -805.70188     135516.4   -41586.914    2652.5782   -44239.492    26.982741   0.92161166 
   51700    214.11597   -877.63771    135492.24   -41581.086    2664.0097   -44245.096    27.186923   0.92177597 
   51800    211.44607   -823.10932    135451.82   -41611.054    2630.7912   -44241.845    27.183289   0.92205104 
   51900    209.06533   -824.06248    135589.78   -41640.976    2601.1702   -44242.146     27.30235    0.9211129 
   52000    211.73262   -882.11034    135562.43   -41656.214    2634.3563    -44290.57    27.196525   0.92129869 
   52100     211.4304   -820.00603    135624.37    -41605.41    2630.5961   -44236.006    27.118213   0.92087793 
   52200    213.20472   -778.76573    135551.53   -41631.597    2652.6721   -44284.269    27.107181   0.92137276 
   52300     212.8212   -754.48187    135527.02   -41618.928    2647.9003   -44266.828    27.239565   0.92153944 
   52400    213.23917   -886.77737    135647.58    -41560.34    2653.1007    -44213.44    27.216932    0.9207204 
   52500    212.93851   -854.01522    135477.01   -41558.973    2649.3599   -44208.333    27.052259    0.9218796 
   52600    215.13444   -862.80886    135544.91   -41586.292    2676.6815   -44262.973    27.127029   0.92141778 
   52700    212.94726   -859.30392    135644.31   -41609.006    2649.4687   -44258.475    27.291262   0.92074256 
   52800    214.05747   -792.19376    135558.61   -41566.968    2663.2818    -44230.25    27.208816   0.92132467 
   52900    209.69967   -900.29668    135556.69   -41551.116    2609.0626   -44160.178    26.973413   0.92133775 
   53000    215.08927   -739.29171    135723.79   -41513.358    2676.1195   -44189.478    27.109189   0.92020342 
   53100    216.27068   -871.86035    135706.07   -41560.702    2690.8184   -44251.521    27.281407   0.92032354 
   53200    215.14196   -932.82653    135742.69   -41554.748     2676.775   -44231.523    27.253512   0.92007523 
   53300    216.15343   -798.94055    135857.35    -41553.48    2689.3596    -44242.84    27.142985   0.91929876 
   53400    212.08266   -922.60315    135753.64   -41630.209    2638.7114    -44268.92    27.068446   0.92000103 
   53500    213.77019   -847.16981    135759.22   -41631.855    2659.7075   -44291.563    27.083785   0.91996325 
   53600    215.01042   -716.80749     135890.4   -41621.406    2675.1385   -44296.545     27.27952   0.91907516 
   53700    214.23014   -941.68338     135858.7   -41660.235    2665.4302   -44325.665     27.15682   0.91928961 
   53800    214.45358   -858.87251    135957.94   -41543.284    2668.2102   -44211.494    27.382061   0.91861861 
   53900    213.52625   -878.32161    135978.49   -41605.889    2656.6725   -44262.561    27.314273   0.91847974 
   54000    217.03742   -815.41805    135999.49   -41583.976    2700.3582   -44284.334    27.452634   0.91833797 
   54100    214.76195   -729.53543    136121.43   -41600.363    2672.0469    -44272.41     27.40864   0.91751529 
   54200    214.62731   -986.23434    136134.61   -41581.537    2670.3718   -44251.909    27.325449   0.91742643 
   54300    215.44523   -833.79998    136090.76   -41556.231    2680.5483   -44236.779    27.358993   0.91772204 
   54400     213.1993   -802.23682    136163.01   -41582.331    2652.6046   -44234.935    27.551362   0.91723511 
   54500    215.98653    -864.3899    136065.46   -41573.657    2687.2831    -44260.94    27.441785   0.91789268 
   54600    216.05577   -805.80695     136014.4   -41480.747    2688.1445   -44168.891    27.511576   0.91823729 
   54700    219.25027    -890.5587    136044.49   -41492.703    2727.8902   -44220.593    27.464855   0.91803415 
   54800    214.22951   -841.52204    135962.83   -41575.687    2665.4224   -44241.109    27.490847   0.91858557 
   54900    216.07311   -886.82165    135978.04   -41608.413    2688.3603   -44296.773    27.451995    0.9184828 
   55000    207.67893   -660.38526    135891.45   -41662.332    2583.9207   -44246.253    27.584061   0.91906806 
   55100    213.69963   -938.24991    136012.54   -41631.845    2658.8297   -44290.675    27.571322   0.91824983 
   55200    213.98534   -1019.6213    136147.86   -41646.509    2662.3844   -44308.893    27.642471   0.91733718 
   55300    213.58238   -929.19671     136101.8   -41597.967    2657.3709   -44255.338     27.77154   0.91764764 
   55400    217.75004   -812.08107    136008.01    -41572.62    2709.2244   -44281.845    27.706628   0.91828044 
   55500     216.4482    -912.0336    135938.41    -41521.44    2693.0271   -44214.467    27.700771   0.91875057 
   55600    218.12678   -817.36194    135936.57   -41567.871    2713.9119   -44281.783    27.684736   0.91876298 
   55700    214.14321   -935.88756    136043.92   -41567.116    2664.3486   -44231.465    27.737347   0.91803802 
   55800    215.34205   -916.89637    135992.79   -41570.758    2679.2645   -44250.023    27.624745   0.91838316 
   55900    215.84669   -828.89539    136075.51   -41541.807    2685.5432    -44227.35    27.879618   0.91782488 
   56000    218.75856   -802.84689    136241.52   -41531.959    2721.7723   -44253.732    27.776786   0.91670652 
   56100    219.87556   -847.00989    136191.26   -41517.916      2735.67   -44253.586    27.703139   0.91704482 
   56200    218.96091   -886.28054    136224.56   -41519.235    2724.2901   -44243.525    27.576524   0.91682063 
   56300    215.46555   -880.98342    136265.58    -41551.06     2680.801   -44231.861    27.650481   0.91654464 
   56400    215.27468   -823.84192    136521.56   -41536.716    2678.4263   -44215.142    27.850108   0.91482613 
   56500    213.19412   -786.45907    136384.78   -41628.335    2652.5401   -44280.876    27.895516   0.91574362 
   56600    213.42068   -786.96929    136241.23   -41650.535     2655.359   -44305.894    27.813777    0.9167085 
   56700    211.45811   -772.67056    136250.27   -41683.333    2630.9409   -44314.274    27.775624   0.91664765 
   56800    214.72305   -892.11156    136346.79   -41619.383     2671.563   -44290.946    27.852975   0.91599876 
   56900    212.70897    -850.2038    136247.69   -41608.182    2646.5039   -44254.686    27.749173   0.91666503 
   57000    218.91946   -749.14908       136215   -41553.661    2723.7743   -44277.436    27.579621     0.916885 
   57100    215.81316     -798.014    136220.81   -41611.938    2685.1261   -44297.064    27.832034   0.91684587 
   57200    211.41344   -856.46314    136310.36   -41648.205    2630.3851    -44278.59    28.083493    0.9162436 
   57300    212.80303     -632.998    136310.58   -41694.985    2647.6743    -44342.66    28.174344   0.91624209 
   57400    210.88133   -953.79232    136259.34   -41708.036    2623.7646   -44331.801    27.915954   0.91658663 
   57500     209.5462   -753.27504    136186.08   -41739.916    2607.1531   -44347.069    27.802605   0.91707972 
   57600    215.46724   -745.63856    136304.13   -41697.287    2680.8221   -44378.109    27.766612   0.91628544 
   57700     208.8843   -760.50958    136317.34   -41745.817    2598.9178   -44344.734     27.78239   0.91619668 
   57800     208.5903   -963.33745    136296.61   -41771.674    2595.2599   -44366.934    28.032513   0.91633604 
   57900    214.44289   -851.12219     136291.9   -41743.198    2668.0772   -44411.275    28.120627   0.91636766 
   58000    212.40629    -768.1464    136325.63   -41741.546     2642.738   -44384.284    28.178998   0.91614096 
   58100    211.03328   -840.94473    136369.03   -41669.886    2625.6552   -44295.541    27.998704   0.91584936 
   58200    214.53814   -787.22127    136345.83   -41617.641    2669.2623   -44286.904    27.985091   0.91600522 
   58300    216.05655    -964.2923    136409.17   -41554.707    2688.1542   -44242.861    28.123503   0.91557986 
   58400    217.13557   -964.44035    136382.41   -41563.506    2701.5793   -44265.085    28.025726   0.91575951 
   58500    216.70414   -860.11476    136340.78   -41564.456    2696.2115   -44260.668    28.037981   0.91603916 
   58600    216.38252   -817.07087    136325.86   -41537.723    2692.2099   -44229.933    28.092318   0.91613942 
   58700      216.578   -1009.7389    136336.52   -41533.073    2694.6421   -44227.715    28.102442   0.91606777 
   58800    217.63197   -803.95494    136385.46   -41585.565    2707.7554    -44293.32    28.040273   0.91573904 
   58900    213.92632   -752.32581    136378.09   -41631.815    2661.6501   -44293.465    28.130844   0.91578851 
   59000    217.07338   -879.63186    136390.21   -41627.858    2700.8055   -44328.663    28.088605   0.91570714 
   59100    217.59793   -763.04398    136319.08   -41627.331     2707.332   -44334.663    28.135141   0.91618499 
   59200    210.98146   -1019.7628    136264.08   -41645.532    2625.0105   -44270.542    28.101953   0.91655477 
   59300    213.64957   -772.98398    136361.99   -41633.788    2658.2068   -44291.995     28.30302   0.91589666 
   59400    213.15624   -877.98005    136457.59   -41672.796    2652.0689   -44324.865    28.314211   0.91525501 
   59500    213.86401   -879.02042    136493.81   -41635.301    2660.8749   -44296.176    28.185315    0.9150121 
   59600    212.58908   -815.52176    136366.52   -41630.518    2645.0123    -44275.53    28.161553   0.91586626 
   59700    211.11192    -927.1524    136314.02   -41653.737    2626.6336   -44280.371    28.088258   0.91621898 
   59800    213.73608   -939.95202    136182.18   -41651.501    2659.2832   -44310.784    28.160831   0.91710599 
   59900    213.67317   -754.81381    136316.74   -41613.452    2658.5005   -44271.953    28.228191   0.91620069 
   60000    211.89334   -727.44168    136268.77   -41642.118     2636.356   -44278.474    28.298909   0.91652319 
   60100    216.33529   -881.27967    136343.92   -41599.946    2691.6222   -44291.568    28.315762   0.91601804 
   60200    215.64944   -875.47229     136243.3   -41583.233     2683.089   -44266.322    28.247252   0.91669457 
   60300    215.73373   -853.90313    136251.23   -41551.645    2684.1377   -44235.783    28.302343   0.91664118 
   60400    212.47884   -816.94189    136377.04   -41505.205    2643.6408   -44148.846    28.375109   0.91579559 
   60500    216.21551   -866.62866    136415.12   -41537.799     2690.132   -44227.931    28.250378   0.91553996 
   60600    215.93421   -990.83227    136354.61   -41596.411    2686.6322   -44283.044    28.445158   0.91594626 
   60700    214.01017   -846.83014    136265.33   -41621.222    2662.6934   -44283.915    28.340219   0.91654635 
   60800    214.45721   -739.43712     136365.9   -41580.963    2668.2555   -44249.219    28.246014   0.91587036 
   60900    216.11939   -951.72025    136422.27    -41569.27    2688.9361   -44258.206    28.327513   0.91549197 
   61000    218.50549   -803.81188    136179.62    -41603.13    2718.6237   -44321.754    28.414254   0.91712323 
   61100    214.34581   -974.50748    136158.74   -41638.562    2666.8694   -44305.432    28.427315   0.91726384 
   61200    214.29034   -844.29964    136210.48   -41629.155    2666.1793   -44295.334    28.282171   0.91691546 
   61300    215.05029   -921.99701    136161.68   -41620.412    2675.6345   -44296.047    28.403399   0.91724408 
   61400    214.02922   -911.33063    136203.98   -41647.451    2662.9303   -44310.381    28.401439   0.91695916 
   61500     213.3046   -833.22293    136119.62   -41655.029    2653.9147   -44308.943    28.394117   0.91752748 
   61600    211.68125     -982.933    136190.11   -41608.737    2633.7171   -44242.454    28.441978   0.91705258 
   61700    212.34484   -985.93509       136219   -41680.589    2641.9735   -44322.562    28.460779    0.9168581 
   61800    204.76781   -822.72664    136038.46   -41734.959    2547.7008    -44282.66    28.463874   0.91807484 
   61900    210.93181   -779.76828    136061.89   -41654.254    2624.3928   -44278.647    28.506372   0.91791679 
   62000    213.30496   -818.63392    135977.42   -41604.219    2653.9193   -44258.138     28.49725   0.91848697 
   62100    214.73419   -913.53647    136145.88    -41618.08    2671.7016   -44289.781    28.439615   0.91735053 
   62200    217.88088   -723.44702    136111.15   -41572.391    2710.8523   -44283.243    28.439123   0.91758454 
   62300    213.70747   -902.22023     136173.4   -41604.124    2658.9272   -44263.051    28.670402    0.9171651 
   62400    217.70062   -759.20666    136133.11   -41542.777    2708.6096   -44251.387    28.683797   0.91743655 
   62500    215.26513   -829.11191    136177.12   -41569.027    2678.3075   -44247.335    28.684421   0.91714005 
   62600    213.79524   -840.62858    136006.11   -41573.459    2660.0193   -44233.479    28.527804   0.91829326 
   62700    214.51816   -824.10442    136158.26   -41597.384    2669.0138   -44266.397    28.738812   0.91726708 
   62800    212.51727   -897.61117    136055.52   -41591.819    2644.1188   -44235.938    28.851374   0.91795973 
   62900     215.4934   -1031.1923    136030.63   -41544.371    2681.1476   -44225.519    28.750909   0.91812772 
   63000    218.38894   -828.44631    136088.61   -41506.974    2717.1736   -44224.148    28.758558   0.91773657 
   63100    218.49438   -844.86524    136044.03   -41488.281    2718.4855   -44206.766    28.771367   0.91803729 
   63200    218.06924   -796.23664     136138.6   -41513.961    2713.1959   -44227.156    28.767238   0.91739952 
   63300     215.9297   -733.01984    136136.44   -41549.094     2686.576    -44235.67    28.877447   0.91741413 
   63400    217.91685   -809.87553    136316.04   -41475.258    2711.2999   -44186.558    28.696112   0.91620543 
   63500    211.19782    -812.5074    136326.86   -41556.807    2627.7024   -44184.509     28.80651   0.91613271 
   63600    217.30674   -951.47212    136375.53    -41564.42     2703.709   -44268.129    28.826786   0.91580571 
   63700    212.77329   -835.21638    136541.59   -41560.697    2647.3043   -44208.001    29.058775   0.91469192 
   63800    209.30236   -938.26203    136582.49   -41664.983    2604.1192   -44269.102    29.033414   0.91441804 
   63900    217.44187   -889.59623    136491.36   -41675.723    2705.3902   -44381.113    29.005991   0.91502854 
   64000    221.11906    -709.3803    136415.56   -41671.258    2751.1414     -44422.4    28.921019   0.91553701 
   64100    216.88297   -921.25955    136369.83   -41583.255    2698.4365   -44281.692    28.904674   0.91584402 
   64200    214.01605   -871.58973    136386.74    -41583.88    2662.7665   -44246.646    28.771022   0.91573045 
   64300    217.96581   -811.87172    136399.62   -41497.904     2711.909   -44209.813    28.908212   0.91564398 
   64400    216.47867   -956.25182    136230.83   -41532.466    2693.4062   -44225.872       28.915   0.91677849 
   64500    221.44023    -819.9093    136332.81   -41520.287    2755.1374   -44275.424    29.105003   0.91609269 
   64600     215.1738   -743.45207    136273.35   -41574.846    2677.1711   -44252.017     28.90271   0.91649243 
   64700    212.94766   -779.05802    136213.86   -41595.386    2649.4738    -44244.86    28.977701   0.91689268 
   64800    219.21997   -785.83176    136360.86   -41601.846    2727.5131   -44329.359    29.035378   0.91590426 
   64900    216.56648   -886.25291    136391.96   -41576.209    2694.4987   -44270.708     29.03564   0.91569538 
   65000    216.15864   -865.26787    136316.01   -41553.923    2689.4244   -44243.347    29.009829   0.91620558 
   65100    214.75004   -872.17657    136162.53    -41580.02    2671.8988   -44251.919     29.06938   0.91723834 
   65200    218.76032   -859.08004    136167.84   -41572.841    2721.7943   -44294.635    29.177837   0.91720256 
   65300    217.57305   -788.36053    136213.58   -41574.122    2707.0224   -44281.144    29.209969   0.91689454 
   65400     217.6406   -851.24939    136359.73   -41511.677    2707.8628    -44219.54    29.168542   0.91591184 
   65500    210.76427   -956.25283    136273.48   -41573.101    2622.3082    -44195.41    29.192434   0.91649152 
   65600    213.99741   -914.22175    135981.49     -41601.6    2662.5346   -44264.134    29.030587   0.91845951 
   65700    211.85719   -897.77677    135943.51   -41640.452    2635.9062   -44276.358     29.08336   0.91871612 
   65800    212.93324   -793.46435    136008.44   -41639.121    2649.2943   -44288.415     29.22049   0.91827753 
   65900    213.99554   -807.48609    135995.48   -41603.791    2662.5114   -44266.303    29.254361   0.91836499 
   66000    215.18918   -932.37926    135970.46   -41517.007    2677.3624    -44194.37    29.321511   0.91853403 
   66100    214.93221   -884.85912    136012.37   -41471.918    2674.1653   -44146.083    29.213469   0.91825095 
   66200    221.42535   -895.97418    136181.65   -41438.214    2754.9523   -44193.167    29.185071   0.91710956 
   66300    213.40215   -936.17477    136071.71   -41481.509    2655.1284   -44136.638    29.268796   0.91785051 
   66400    218.76985    -847.1125    135984.61   -41536.489    2721.9129   -44258.402    29.429741   0.91843842 
   66500    215.41913   -771.97313    136063.21   -41557.483    2680.2235   -44237.707    29.445613   0.91790787 
   66600    215.83682   -922.37556    136038.45   -41582.667    2685.4204   -44268.088    29.479376   0.91807495 
   66700    215.31459   -799.35332    136065.42    -41612.44    2678.9229   -44291.362     29.44226   0.91789295 
   66800    214.40669   -840.62765     136102.3   -41552.657    2667.6268   -44220.284    29.563833   0.91764422 
[...]
   84600    212.09668   -851.94847    136666.88   -41763.986    2638.8859   -44402.872    31.923364    0.9138534 
   84700     212.3512   -763.51693    136738.34   -41773.284    2642.0527   -44415.337    31.828657   0.91337582 
   84800     214.7762   -736.53311    136859.37   -41740.623    2672.2243   -44412.847    31.791325   0.91256804 
   84900    212.33538   -799.72185    136904.89   -41725.008    2641.8558   -44366.864    31.833205   0.91226465 
   85000    218.03264   -774.68786    136860.97   -41691.018    2712.7405   -44403.759    31.658779    0.9125574 
   85100    214.55631   -876.24077    136817.09   -41697.612    2669.4884   -44367.101    31.790624   0.91285011 
   85200    214.87909   -846.03098    136911.93   -41698.735    2673.5043   -44372.239    32.002258   0.91221774 
   85300    211.34079    -754.5043    136817.84   -41745.447    2629.4813   -44374.928    31.932266   0.91284509 
   85400    217.09956   -928.87902    136825.59   -41741.193    2701.1313   -44442.325    31.948444   0.91279338 
   85500    213.64475    -914.0944    136750.47   -41706.357    2658.1469   -44364.504    31.885748   0.91329475 
   85600    217.38382   -840.49322    136717.49   -41682.309     2704.668   -44386.977    31.758928   0.91351511 
   85700    216.14162   -804.78963    136722.05   -41731.184    2689.2127   -44420.397    31.769537   0.91348465 
   85800    209.94182   -813.17693    136775.65   -41731.515    2612.0754    -44343.59    31.932535   0.91312663 
   85900    218.78178   -839.44512     136855.7    -41645.47    2722.0613   -44367.531    32.052197   0.91259256 
   86000    217.50685   -831.55443    136805.88   -41707.644    2706.1988   -44413.843    31.896492   0.91292486 
   86100    217.28908   -849.50406    136920.99   -41707.162    2703.4892   -44410.652    32.019539    0.9121574 
   86200    218.21422   -803.26169    136879.74    -41679.26    2714.9997    -44394.26    32.035398   0.91243228 
   86300    215.12648    -795.0092    136911.16   -41702.624    2676.5824   -44379.206     32.02257   0.91222289 
   86400    212.30665   -982.92394     136834.5   -41712.807    2641.4983   -44354.305    31.907242   0.91273395 
   86500    214.96931   -798.99365    136832.38   -41694.053    2674.6269    -44368.68    31.957684   0.91274807 
   86600     216.7947   -1031.5244    136861.77   -41638.694    2697.3382   -44336.032    32.072975   0.91255204 
   86700    216.91089   -883.80742    136743.95   -41627.114    2698.7839   -44325.898    32.140888    0.9133383 
   86800    216.67538   -763.14499    136870.71   -41690.545    2695.8536   -44386.398    32.157404   0.91249249 
   86900     216.1716   -970.59642    136890.38   -41647.798    2689.5856   -44337.384    32.077757   0.91236132 
   87000    211.23066   -868.13212     136882.3   -41647.028     2628.111   -44275.139    31.966388   0.91241519 
   87100    213.88292   -806.72104    136821.32   -41691.317    2661.1102   -44352.427    32.081328   0.91282187 
   87200    212.82021   -850.76784    136772.15   -41687.502     2647.888    -44335.39    32.248503      0.91315 
   87300    215.11141   -1001.7678    136732.65   -41689.079    2676.3949   -44365.474    32.218658   0.91341379 
   87400    217.39868   -854.15944    136747.18   -41698.271    2704.8529   -44403.124    32.134681   0.91331679 
   87500    214.36181   -788.12427    136766.37   -41718.019    2667.0684   -44385.087    32.075221    0.9131886 
   87600    212.78966   -900.59808    136759.99   -41717.602    2647.5079    -44365.11    32.048164   0.91323124 
   87700    215.85923   -977.95137    136470.76   -41730.664    2685.6992   -44416.363    31.993154   0.91516668 
   87800    213.42589   -939.82215    136677.34   -41709.169    2655.4238   -44364.592    32.011623   0.91378348 
   87900    217.16282    -882.2407    136732.34    -41717.01    2701.9184   -44418.929    32.162915    0.9134159 
   88000    212.46977   -994.03972    136617.73   -41730.319    2643.5279   -44373.847    32.191982   0.91418217 
   88100    216.08355   -869.61034    136551.19   -41668.197    2688.4902   -44356.687    32.227445    0.9146276 
   88200    215.33909   -869.35548    136602.73   -41650.017    2679.2277   -44329.244    32.074238   0.91428256 
   88300    215.96776   -833.13665    136558.37   -41681.568    2687.0495   -44368.618    31.952447   0.91457951 
   88400    209.62497   -855.66544     136365.6   -41786.545    2608.1332   -44394.679     32.17827   0.91587242 
   88500    216.91029   -887.32813    136339.27   -41694.157    2698.7764   -44392.934      32.1157   0.91604927 
   88600    214.32081   -730.46015    136432.87    -41644.82    2666.5583   -44311.379    32.182297    0.9154208 
   88700    217.67951   -897.49101    136425.46   -41631.197     2708.347   -44339.544    32.331459   0.91547056 
   88800    217.31338   -689.40854    136461.58   -41573.692    2703.7916   -44277.483      32.2949   0.91522824 
   88900    216.67455    -881.1422    136536.09   -41615.567    2695.8433    -44311.41    32.231819   0.91472878 
   89000    215.01187   -904.64856    136616.92   -41596.342    2675.1565   -44271.498    32.333865   0.91418757 
   89100    210.47336   -839.98488    136652.83   -41689.112    2618.6888   -44307.801    32.342555   0.91394734 
   89200    206.83961   -900.04235    136629.75   -41718.678     2573.478   -44292.156    32.150344   0.91410171 
   89300    213.58254   -879.81624    136629.21   -41735.772    2657.3728   -44393.145    32.298355   0.91410538 
   89400    213.88778   -815.95067     136597.8   -41759.564    2661.1706   -44420.734    32.296424   0.91431552 
   89500     212.9102   -836.20773    136496.87   -41805.356    2649.0077   -44454.363    32.236257   0.91499162 
   89600    213.28136   -799.77309    136575.15   -41839.146    2653.6256   -44492.771    32.248091   0.91446719 
   89700    211.60818   -852.11894    136616.36   -41807.691    2632.8081   -44440.499    32.266725   0.91419131 
   89800    209.43511   -869.00203    136577.51    -41758.79    2605.7709   -44364.561    32.220573   0.91445134 
   89900    209.50451   -887.55875    136510.14   -41811.266    2606.6344   -44417.901    32.199462   0.91490264 
   90000    212.83791   -833.87923    136621.18    -41716.69    2648.1083   -44364.798    32.292243   0.91415906 
   90100    213.99988   -760.82094    136635.16   -41717.666    2662.5654   -44380.231    32.282469   0.91406556 
   90200    214.72891   -847.00334    136472.65   -41747.282    2671.6358   -44418.918    32.232142   0.91515402 
   90300     214.3502   -865.64976    136500.56   -41751.956    2666.9239    -44418.88     32.38249   0.91496688 
   90400    210.94971   -768.52965    136611.46   -41740.818    2624.6154   -44365.433    32.309738    0.9142241 
   90500    212.73187   -756.78658    136605.32   -41710.459    2646.7889   -44357.248    32.318174   0.91426521 
   90600    215.46996   -912.75327    136605.93   -41618.833     2680.856   -44299.689    32.315229   0.91426114 
   90700    218.26882   -879.74157    136542.07   -41621.049    2715.6791   -44336.728    32.122967   0.91468872 
   90800    214.30346   -879.97361    136373.42    -41656.35    2666.3425   -44322.692     32.30497   0.91581992 
   90900    210.66367   -875.03664    136604.16    -41741.38    2621.0566   -44362.436    32.380554   0.91427298 
   91000    209.23541   -958.79017    136501.12   -41752.904    2603.2863    -44356.19    32.316353   0.91496315 
   91100    214.91609   -850.75083    136618.04   -41740.414    2673.9648   -44414.379    32.168573    0.9141801 
   91200    213.57908   -931.40704    136587.15   -41699.354    2657.3297   -44356.684    32.170442   0.91438681 
   91300    216.03326   -913.80701    136344.78   -41599.666    2687.8645    -44287.53    32.286269   0.91601228 
   91400    219.62714   -915.58279    136462.32   -41577.268    2732.5791   -44309.847    32.397292   0.91522329 
   91500    216.24159   -831.44651    136511.46   -41587.447    2690.4565   -44277.903    32.442522   0.91489379 
   91600    215.18939    -895.6607    136473.81   -41620.061    2677.3651   -44297.426    32.307176   0.91514619 
   91700    213.66047    -897.6096    136360.05   -41699.416    2658.3424   -44357.758    32.441618   0.91590967 
   91800    215.56409   -908.44516    136511.79   -41667.955    2682.0271   -44349.982    32.409834    0.9148916 
   91900    216.72988   -943.46547     136380.5   -41666.875    2696.5317   -44363.407    32.684299   0.91577236 
   92000    212.63925   -744.14394    136524.65   -41681.273    2645.6366    -44326.91    32.696693   0.91480545 
   92100    215.48008   -921.02483    136590.21   -41732.662    2680.9818   -44413.644    32.432391   0.91436632 
   92200    218.26734   -795.85588    136467.36   -41669.766    2715.6607   -44385.426    32.334173   0.91518947 
   92300    216.74362   -864.06291     136386.4   -41583.628    2696.7027   -44280.331    32.345917   0.91573276 
   92400    221.78872   -929.93915    136466.82   -41592.364    2759.4733   -44351.838     32.36774   0.91519312 
   92500    210.67546   -978.67486    136414.13   -41646.984    2621.2032   -44268.187    32.511486   0.91554657 
   92600     214.9948   -805.36601    136340.08   -41621.673    2674.9441   -44296.617    32.609098   0.91604384 
   92700     216.8473   -830.48641    136442.95    -41613.66    2697.9927   -44311.653    32.672316   0.91535321 
   92800    213.51075   -854.32647    136452.32   -41663.994    2656.4796   -44320.474    32.578843   0.91529038 
   92900     220.1166   -768.55471    136349.23   -41635.702     2738.669   -44374.371    32.523815    0.9159824 
   93000    214.93448   -836.88655    136277.33    -41666.51    2674.1936   -44340.703    32.581031   0.91646562 
   93100    216.81296   -814.33469     136368.4   -41598.904    2697.5654    -44296.47    32.519679   0.91585363 
   93200     215.9512   -781.31972    136380.22   -41621.674    2686.8435   -44308.517    32.418974   0.91577422 
   93300    212.56733   -767.82002       136450   -41640.259    2644.7417   -44285.001    32.685693   0.91530592 
   93400    212.27568   -801.49354    136473.56    -41665.98     2641.113   -44307.093    32.613665    0.9151479 
   93500    209.49456    -886.0095    136382.79   -41694.683    2606.5106   -44301.194    32.487874     0.915757 
   93600    210.63019   -891.46633    136412.04   -41761.793      2620.64   -44382.433     32.63401   0.91556059 
   93700    213.45255   -952.01125    136353.37   -41715.076    2655.7555   -44370.831    32.454784   0.91595459 
   93800    214.56591   -912.20118    136380.66   -41679.098    2669.6078   -44348.705    32.433804   0.91577129 
   93900    211.62786   -768.85077    136431.08   -41661.229    2633.0529   -44294.282    32.500536   0.91543284 
   94000    213.76022   -891.39187    136337.36   -41666.045    2659.5835   -44325.628    32.449239    0.9160621 
   94100    211.75613   -772.70457    136432.55   -41677.985    2634.6488   -44312.634     32.59032   0.91542298 
   94200    217.82985   -897.03025    136537.53   -41671.182    2710.2174     -44381.4    32.697441   0.91471913 
   94300    216.65326   -794.36704    136461.37   -41626.924    2695.5784   -44322.502    32.608245   0.91522963 
   94400    217.64561   -760.73675    136475.83   -41621.593    2707.9251   -44329.518    32.538881   0.91513264 
   94500    218.02839   -866.76464    136372.91   -41561.305    2712.6876   -44273.993    32.609864   0.91582329 
   94600    217.07358   -898.70389    136285.58   -41610.445    2700.8081   -44311.253    32.464267   0.91641014 
   94700    216.01918   -746.65173    136436.92   -41651.777    2687.6893   -44339.466    32.412384   0.91539367 
   94800    213.60799   -848.38083    136347.02   -41650.048    2657.6895   -44307.737    32.481045   0.91599722 
   94900    218.35064   -795.87686     136478.7   -41628.956    2716.6971   -44345.653      32.5205   0.91511342 
   95000    216.76591   -868.78751    136379.69   -41613.969      2696.98   -44310.949    32.547541   0.91577778 
   95100    217.03437   -838.31541    136310.98   -41615.534    2700.3202   -44315.854    32.616567   0.91623942 
   95200    216.88396   -854.06482    136500.27   -41633.449    2698.4487   -44331.897    32.636555   0.91496881 
   95300    220.68342   -811.17795    136554.59   -41540.848    2745.7213   -44286.569    32.540248   0.91460484 
   95400     216.4179   -758.45933    136577.91    -41611.16    2692.6502    -44303.81     32.53533    0.9144487 
   95500    216.33713   -916.35767    136549.37   -41620.263    2691.6451   -44311.908    32.705662   0.91463983 
   95600     218.8507   -853.39545    136467.76   -41611.601    2722.9187    -44334.52    32.634317   0.91518679 
   95700    216.82653   -781.44522    136625.44   -41660.295    2697.7342    -44358.03    32.614997   0.91413054 
   95800    212.41815   -982.90801    136624.21    -41713.99    2642.8856   -44356.876    32.671814   0.91413879 
   95900    215.87231   -858.08821    136674.95   -41663.163    2685.8619   -44349.025    32.641785   0.91379945 
   96000    210.64407   -873.53097    136622.96   -41742.975    2620.8128   -44363.787    32.598975   0.91414716 
   96100    219.46309   -759.02456    136700.53   -41692.224     2730.538   -44422.762    32.744013   0.91362841 
   96200     211.8214   -1046.8611    136645.78   -41739.102    2635.4609   -44374.563     32.68096   0.91399449 
   96300    212.63884   -783.80174    136521.92   -41694.279    2645.6314   -44339.911    32.689291   0.91482372 
   96400    217.61685   -878.19588     136593.4   -41671.372    2707.5673   -44378.939    32.665792   0.91434498 
   96500    213.41202   -749.39996    136665.15   -41717.823    2655.2513   -44373.075    32.691986   0.91386494 
   96600    216.52952   -720.05321    136684.95   -41714.982    2694.0388   -44409.021    32.624611   0.91373259 
   96700    209.56763   -935.87879    136488.57   -41789.842    2607.4197   -44397.262    32.675571   0.91504729 
   96800    208.27569   -888.41208    136373.85   -41838.249    2591.3455   -44429.594    32.730215   0.91581699 
   96900    208.80759   -835.60901     136443.3   -41775.329    2597.9634   -44373.292    32.826784   0.91535083 
   97000    211.99242   -749.23541    136589.29   -41772.202    2637.5887   -44409.791    32.682324   0.91437247 
   97100    210.80003   -908.28851    136511.91   -41757.433    2622.7531   -44380.186     32.70522   0.91489083 
   97200    209.00156   -838.59712    136485.48   -41761.353    2600.3767    -44361.73    32.715131   0.91506794 
   97300    217.21136   -890.91158    136457.17   -41759.113    2702.5223   -44461.635    32.746457   0.91525783 
   97400    214.04387   -869.46213    136467.46    -41748.25    2663.1127   -44411.363    32.893742    0.9151888 
   97500    214.24896   -932.16752    136440.15   -41659.694    2665.6643   -44325.358     32.82392   0.91537196 
   97600    212.43844   -892.04107    136394.34   -41707.861    2643.1381   -44350.999    32.885232   0.91567945 
   97700    214.72791   -772.25409    136418.54   -41637.877    2671.6234     -44309.5    32.879855   0.91551699 
   97800    214.99003   -899.19737    136424.22   -41619.053    2674.8847   -44293.938    32.961018   0.91547886 
   97900    213.60999   -841.80199    136394.03   -41579.195    2657.7144   -44236.909    32.901694   0.91568154 
   98000     215.2875   -863.64423    136338.23    -41610.28    2678.5858   -44288.866    32.913935   0.91605627 
   98100    215.40439   -790.98959    136314.15   -41682.697    2680.0401   -44362.737     32.92542    0.9162181 
   98200    219.31202   -868.55852     136388.1   -41660.785    2728.6584   -44389.443    32.975608   0.91572135 
   98300     215.8196   -838.47517    136417.97   -41677.517    2685.2061   -44362.723    33.037011   0.91552079 
   98400    214.02936   -810.01773    136437.99   -41695.046    2662.9322   -44357.978    33.006592   0.91538649 
   98500    211.49695   -807.41317    136463.52   -41698.595    2631.4242   -44330.019    32.676659   0.91521523 
   98600    214.73857   -906.47139    136625.29   -41728.385     2671.756   -44400.141    32.724373   0.91413158 
   98700    210.40372   -821.66609       136706   -41778.958    2617.8223    -44396.78    32.961543   0.91359185 
   98800     207.1457   -756.55071    136728.57   -41754.714    2577.2864       -44332    32.949909   0.91344106 
   98900    213.03089   -954.52476    136596.22   -41755.782    2650.5093   -44406.291    33.031203   0.91432615 
   99000    211.88083   -872.95566    136650.43    -41787.63    2636.2004    -44423.83    33.047497   0.91396339 
   99100    215.95871   -953.12884    136561.02    -41710.11    2686.9369   -44397.047    33.149288   0.91456178 
   99200    218.42923   -910.88949    136549.39   -41697.881    2717.6749   -44415.555    33.155521    0.9146397 
   99300     215.6585   -904.92827    136481.99   -41655.237    2683.2018   -44338.439    32.969029   0.91509134 
   99400    216.47305   -846.50996    136563.77    -41627.81    2693.3363   -44321.146     33.13032   0.91454338 
   99500    220.52151   -762.74203    136720.86   -41522.576    2743.7068   -44266.283     33.09103   0.91349255 
   99600    219.01006   -763.66293    136705.19   -41552.718    2724.9015    -44277.62    33.049194   0.91359728 
   99700    219.25894   -818.21562    136647.84   -41569.273    2727.9981   -44297.271    33.118874    0.9139807 
   99800    216.92965   -748.31567    136608.33   -41593.453    2699.0173    -44292.47    33.025591   0.91424508 
   99900    217.58637   -925.67743    136615.39   -41650.032    2707.1881   -44357.221    33.112533   0.91419784 
  100000    212.34884   -849.61585    136564.34   -41657.817    2642.0232    -44299.84    33.106199   0.91453953 
  100100    215.54371   -813.19597     136671.5   -41588.472    2681.7735   -44270.245    33.223097   0.91382248 
  100200    215.60052   -949.47707    136642.67   -41588.622    2682.4803   -44271.102    33.212396   0.91401531 
  100300    215.73768   -796.01707    136718.41   -41575.542    2684.1869   -44259.729    32.993902   0.91350893 
  100400    216.06217   -847.40772    136629.87   -41623.228    2688.2241   -44311.452    33.057546    0.9141009 
  100500     219.3739   -784.89332     136611.6   -41557.524    2729.4284   -44286.952    33.128711   0.91422321 
  100600    215.90896   -1073.7123    136536.51   -41642.355     2686.318   -44328.673     33.17328     0.914726 
  100630    214.58605   -890.00361    136427.38   -41624.263    2669.8584   -44294.122    33.119833   0.91545767 
Loop time of 69.8823 on 6 procs for 100000 steps with 4175 atoms

Performance: 618.183 ns/day, 0.039 hours/ns, 1430.978 timesteps/s
98.3% CPU use with 6 MPI tasks x no OpenMP threads

MPI task timing breakdown:
Section |  min time  |  avg time  |  max time  |%varavg| %total
---------------------------------------------------------------
Pair    | 54.74      | 56.025     | 57.954     |  14.8 | 80.17
Neigh   | 4.8004     | 4.8362     | 4.8658     |   1.0 |  6.92
Comm    | 4.5389     | 6.461      | 7.7613     |  44.1 |  9.25
Output  | 0.15948    | 0.16029    | 0.16379    |   0.4 |  0.23
Modify  | 1.7413     | 1.7699     | 1.7939     |   1.4 |  2.53
Other   |            | 0.6299     |            |       |  0.90

Nlocal:        695.833 ave         709 max         683 min
Histogram: 1 0 0 0 2 2 0 0 0 1
Nghost:        1444.50 ave        1453 max        1435 min
Histogram: 1 0 1 0 0 2 0 0 1 1
Neighs:        0.00000 ave           0 max           0 min
Histogram: 6 0 0 0 0 0 0 0 0 0
FullNghs:      18610.3 ave       19096 max       18107 min
Histogram: 1 0 0 0 1 3 0 0 0 1

Total # of neighbors = 111662
Ave neighs/atom = 26.745389
Neighbor list builds = 5300
Dangerous builds = 0

undump              1
unfix               2
unfix               3
unfix               4


################################################
#######         Run Simulation         #########
################################################

reset_timestep      0
log                 log.run_${NAME}
log                 log.run_liquid_density_MLmW
