LAMMPS data file via write_data, version 29 Oct 2020, timestep = 800000

4175 atoms
1 atom types

-0.0151956116976244 50.015195611700804 xlo xhi
-0.0151956116976244 50.015195611700804 ylo yhi
-0.0151956116976244 50.015195611700804 zlo zhi

Masses

1 18.015

Atoms # atomic

3995 1 5.489126712632506 2.4043609844285037 0.7725347180069938 1 1 1
598 1 3.3152496422751954 0.7178089887295418 1.3932455963061565 1 0 0
1260 1 23.31210341028746 2.858714434636765 14.002913898819973 0 0 -1
1966 1 10.554085958357756 0.8349079886246182 0.6431861051846549 0 1 1
3400 1 16.749072896832864 2.1922579945277567 2.4312709216949866 0 0 0
3615 1 20.33556555735236 24.603630703164832 10.609628158720893 0 0 1
1897 1 26.750076975066204 24.52584375317242 3.8506437520422003 1 0 0
333 1 29.758211174918976 11.138099520873356 0.8140206163938264 0 0 0
3503 1 47.67794117989628 8.689364779074545 0.6004291723706221 -2 0 0
2346 1 27.073876726863787 0.4104950042307652 4.082882427047481 -1 0 0
177 1 32.53021647278614 3.7273911885484163 2.9128061794346816 0 0 1
1721 1 14.145249738030294 0.09103310037116333 10.633408489534913 -1 -1 1
1998 1 40.61022549516336 11.512418391233764 0.6491579553305893 -1 -1 0
3836 1 44.89898709998876 0.24450117038083397 10.741195563426222 -1 1 0
4039 1 41.01705349620188 2.3914044140216273 3.0613995082873773 0 1 1
3112 1 26.84024670536228 0.6890155446159852 8.600033214810408 0 1 1
520 1 48.38135291544033 1.0789156976649459 0.41834752682331927 -1 0 1
2312 1 49.609367298419926 4.450956803671081 1.2082121891838935 0 0 0
2641 1 19.28814148305029 0.2663204874357646 6.156021237612034 0 1 1
3033 1 10.975482970602718 3.422129605995255 1.660556362257689 1 1 0
3846 1 14.130033651829834 1.9797592254630882 3.465432714260068 1 1 2
3051 1 12.771373533907054 4.362887280592443 3.2924213556057813 1 0 0
98 1 17.77255329384278 4.840508776929065 3.0521114553248316 0 0 0
1746 1 20.02502396218502 4.967472963116922 1.4237864553167257 0 -1 0
1541 1 22.107266071238787 3.040922715827245 2.1565049367287057 0 1 1
1867 1 26.09232246928572 5.1807945961365975 1.2649422103456158 0 1 1
1850 1 6.2740499795175 2.244610140755517 15.678037502445374 0 0 1
253 1 30.259521824513207 5.39752893950361 2.3844098707467536 0 0 0
490 1 35.314531916962935 4.630260319445781 2.2951464367938237 0 0 0
2800 1 27.143599813053225 23.736973825518156 1.1768053340761226 0 0 0
4148 1 40.78963784784415 24.587916112896053 11.197239053976142 0 -1 1
1440 1 44.46977230644343 2.69682711120699 0.6309410050041079 -1 0 0
3299 1 48.54480058068411 7.180133328390205 3.15729480525039 -1 2 0
939 1 1.6956138072361517 7.8821209543738275 2.221075032333034 1 0 1
2195 1 7.926479321377782 8.554499497525107 2.785457971921366 0 0 1
775 1 5.688462486444444 6.8040055833946065 3.0120751100059056 1 0 0
2721 1 12.25526678342024 8.653554783914721 1.5913832237105143 0 0 0
1416 1 13.930515075627238 6.838218787636251 2.4416532818114516 0 1 1
670 1 16.666673878941737 7.152388441755662 1.694958068828805 0 0 0
506 1 9.27634752397944 22.12387106004348 1.3988164788184994 0 0 1
2846 1 21.61829467818255 7.225585234175981 1.4102994227124164 0 1 0
3414 1 25.577821393682534 9.1631973203016 2.1815383179604555 0 0 0
1604 1 27.540070280827518 8.404200797173734 3.768425730557604 0 0 0
854 1 29.16429663045955 8.548856014397602 1.7302273362981013 1 0 0
502 1 32.59335677792225 6.357192455774114 0.6253531556000965 -1 1 -1
93 1 33.80348825078367 7.762140240491828 2.559482779811215 0 1 0
1199 1 20.409896971402315 0.44420650114868615 16.080979163141173 0 -1 0
2396 1 39.353326390384595 7.64176030933776 1.6766873399378897 0 1 0
1521 1 42.56517275054736 4.77501941127819 1.7486351498315231 0 0 1
4108 1 45.9656494127769 6.527030252815803 2.87204503618654 -1 0 1
2027 1 46.75423835313272 4.082567356244479 0.5595312160684263 -1 1 1
978 1 38.17548976599275 5.106862591721381 0.7338745312600019 0 -1 0
851 1 38.24370213028858 1.0056829770559585 3.184765230692381 -1 0 1
2339 1 0.41981555358857764 10.253617065191861 3.627374773206631 1 1 0
525 1 1.8994953673549617 12.647145251597188 0.09011494059456517 1 0 0
1763 1 42.94937222029064 2.6527223796466046 14.860589286987622 -1 1 0
225 1 6.746036519796824 11.09747588148288 1.6553869587980397 -1 0 0
374 1 9.419202694266602 11.426906388312307 1.0622656065705718 1 -1 0
2608 1 29.450711400261344 21.491538260741134 1.1397247590111104 0 0 0
363 1 13.68617350894953 12.23259196769097 1.4785044604352777 0 0 0
3579 1 24.609878977837297 2.8382668568049607 0.8863807672528747 -1 0 0
784 1 19.030502089542455 8.850943955559192 1.4814420341828305 1 1 0
780 1 18.03767249745485 11.492776564513209 2.0835634578951376 0 1 0
3913 1 21.556045648070082 23.334038569677617 5.16022928753342 0 0 1
3603 1 36.79636468939229 24.955146159852955 1.4654299670970448 -1 0 1
2661 1 29.302984375488975 24.166119963361368 15.229990511013678 1 0 0
3072 1 32.89493749302848 23.633037513734692 2.253248628414179 -1 0 0
2762 1 31.89980225242852 11.959277337386181 3.1200344061299794 0 0 1
2409 1 35.8937066943016 10.230654286206791 2.786090298661515 -1 1 0
422 1 40.3728354716835 11.542648064268873 3.5105478227065574 0 0 0
890 1 3.38248742644271 0.4397702683488418 10.863303200570416 2 1 1
1257 1 33.98196730165047 15.418695765850245 0.8540439091459392 0 1 1
3559 1 44.11503089104845 8.32856988440176 2.2225160532719195 0 1 0
1834 1 45.10652449559102 10.75477658256067 1.84423551562316 0 1 1
2362 1 23.968933079314056 0.23516475667513248 4.825384315000225 0 0 1
1703 1 20.59049731033507 22.895722348583476 0.21497980509410672 1 1 1
2776 1 4.894430907472627 14.839750693102504 1.766219766614177 -1 1 -1
2411 1 7.608370148098246 16.17921636992725 1.796985812321422 0 0 0
1130 1 9.36067395193012 14.136556600579294 0.5458642102362856 1 0 0
1492 1 15.888447865364473 14.676300849198872 2.351854993363638 1 0 2
4112 1 35.84087922561878 1.8888497387953909 1.8220243497363668 0 1 1
2077 1 18.88800111669264 13.98942852864001 2.030712396160137 0 -1 1
673 1 23.431645692113335 14.814710383531205 0.7731993366694836 0 1 0
2624 1 27.267608432335713 14.339223953621078 2.6191779258785166 0 0 -1
4073 1 34.16071067643645 12.150725722356482 1.3589869283297016 0 1 0
1698 1 20.391641344106805 0.28211965515184967 10.316308303783078 0 0 0
2207 1 37.187078533531775 12.873110697353155 2.869534735136107 0 2 0
975 1 46.279982775564676 14.800095895448566 -0.011356163170432716 -1 1 1
845 1 2.276677985140705 15.44704375236215 0.7376548423617167 1 0 0
3238 1 30.60633082487875 0.1365572075947418 9.51017207882463 0 1 1
407 1 8.864547077963671 19.083802196125376 1.6092760687020133 0 1 0
1218 1 18.367854425729554 0.9308117130585439 0.6029744651690323 0 1 1
1606 1 14.951000290590603 17.154968128785516 1.484654139188554 0 0 0
3747 1 22.525315938478176 17.14067139669511 2.3210889863945394 0 0 1
2584 1 24.400323904827097 7.226065173417973 0.9377535236489872 -1 0 0
2498 1 27.569503476323607 19.29751994674117 3.566353675621698 0 1 -1
3148 1 31.43980589931187 14.97420821209169 2.445648468661043 -1 1 0
1402 1 34.01857010515967 21.863304860662975 0.15296820715569845 1 1 0
1044 1 39.01486840981731 19.16243747708746 1.313268213742011 -2 0 0
2850 1 41.694529839578706 16.415938559780614 1.617341689949916 -2 0 -1
2780 1 44.60075336060734 17.08327006012678 1.7501304304071295 -1 0 -1
478 1 47.92978245881426 17.17171923855371 0.5910353378025579 0 1 -1
2866 1 43.69431567583064 24.401408326841224 6.88159015214239 0 0 0
4129 1 16.789018188689933 22.157094896020595 13.905364567797005 0 0 1
2902 1 0.7759998449133366 20.223214480537965 0.9051326077336849 1 0 0
3250 1 3.6696322959799614 21.83998878982095 3.7201690618208585 0 1 1
1853 1 3.713198645642649 18.738061589683646 3.624119780770254 0 0 2
1282 1 5.615735823159805 18.407699972567176 1.6821004254419034 0 -1 1
1547 1 12.595475025437763 22.455649675508496 0.8782833010123647 1 0 0
170 1 14.744412277791362 20.77862454387486 1.735979761112545 0 0 -1
2541 1 34.47276779045322 18.28865311917479 0.3234712531826813 -1 0 -1
1399 1 19.589335800200892 20.082022651574402 2.7126632406342606 -1 0 0
1253 1 21.260770223013743 18.95063700798874 0.5673943523294188 1 0 1
4086 1 37.2559123978738 17.74262998082436 15.769506199090989 0 0 0
288 1 24.77886639586313 21.872767523893412 2.053496586155833 0 1 -1
2716 1 26.88167232968696 20.032949141585725 1.0176143092212337 -1 1 0
3282 1 30.86392436529169 19.549945883752493 2.7879555584319937 -1 1 1
1919 1 33.633645528900004 19.13874097946774 2.9476323522709844 0 1 1
3203 1 33.56240869621783 0.48093678042253646 1.5560922806727258 -1 0 1
173 1 32.942398523349596 1.7058652673938222 16.554386042166524 -1 0 -1
189 1 36.90199928345385 23.72527286995322 14.107055702755849 -1 0 2
596 1 41.683025958490774 19.104516615516832 2.477483407844596 -1 1 0
2130 1 46.20904384536462 19.971715173739025 2.372302249669113 0 1 -1
3555 1 44.15966356065576 22.43159500887292 3.004221999971341 0 0 1
2946 1 48.463565765361636 23.76392923716431 1.9271245683548066 0 1 0
2165 1 1.152482107671846 22.945108264444897 1.9411956668219585 0 0 0
2393 1 8.034484998932633 23.810766500724768 2.941505734711616 0 0 0
1738 1 40.79384887726471 3.955347996748927 16.444773822686468 -1 1 0
4009 1 11.354341032184255 22.112178200852593 3.764783278264492 1 0 1
2515 1 41.24001597209568 0.7785339753948819 0.9195616029129469 0 0 0
533 1 19.434935470053667 23.072757383262697 2.4654512107027067 0 0 0
1110 1 38.10051703743524 12.633718971940688 0.5039496569669919 0 0 0
2045 1 23.608373891926476 23.98896521869144 3.5286660522028495 0 -1 2
153 1 21.969079963778945 11.954608676201037 0.1937083562243211 2 1 -1
2446 1 43.44514162222126 9.07162695701338 15.65402672014554 0 1 0
3223 1 27.92121774555236 20.1780067273746 13.386142313148758 0 -1 1
414 1 27.18495582316399 9.231936240102916 16.595357669047015 0 0 -1
1511 1 40.9032867823053 17.499661660362708 16.227160916448224 0 -1 0
1118 1 34.25036856637145 0.3364158584597956 4.258871894456257 0 0 1
2180 1 48.865796162298196 2.4614968645110387 15.409908456614401 0 0 -2
2058 1 2.0782449647159327 2.685617743666499 3.647896245769477 0 0 1
920 1 5.099156107005219 2.7824532781306437 4.895655533178719 0 -1 1
2284 1 24.583457842678197 23.98993070243733 14.655524602468516 0 0 0
2880 1 8.994086293846472 3.3704359828655157 3.6618859526727565 -1 2 1
2606 1 43.36947776984576 24.514286673402726 9.74287044660303 0 1 0
2036 1 0.773372027560821 4.573173655160813 14.795618667952343 0 0 -1
2183 1 14.466391028224706 1.5063502753606135 6.1362810223334145 0 2 0
2791 1 12.607217139281186 0.8097165687489283 8.496251494480191 0 1 1
2918 1 16.740179186829096 1.0599483317215 7.195951251093774 0 1 0
2586 1 20.999718153302027 2.4114382668832097 6.561559429721576 0 2 0
1752 1 45.600957287756486 11.492723300878051 15.252739600445649 0 1 1
1026 1 34.89709937760658 24.898747275281828 3.9804699794122436 0 -1 0
1102 1 25.868259386141265 2.9905467609051075 5.2667350647121625 0 1 0
3143 1 29.29642872807168 2.0433865973114065 4.5155400873824565 1 0 1
386 1 21.914696931581943 6.767967604348053 16.290111735360895 -1 1 -1
1098 1 32.186433718133415 3.031985305763232 5.991620885703446 0 0 1
2315 1 36.79378432115929 11.237535928729093 16.15777509676746 0 1 0
463 1 42.61484078796521 0.9316912071050987 5.003964329944171 0 0 -1
1773 1 37.01991648752441 3.2505831350777203 6.432881522510456 -1 1 1
1583 1 44.964273977552736 1.0670581597372175 3.1889546568569016 -1 0 2
147 1 18.98630503009324 2.742233650109127 11.082220561749587 0 0 0
3570 1 49.22118766144128 1.8957372740836689 3.0593948333370737 -1 2 0
2415 1 0.9699439120216404 3.6120528045426754 6.444229411100027 0 1 0
1471 1 6.256787982720502 4.007589590045945 2.8108763313738594 2 0 1
1154 1 3.0659001031367854 5.317997256286058 2.433220082831805 -1 -1 0
1358 1 9.356014332772128 4.446906787767464 6.349981738909853 0 -1 0
3008 1 11.889769415010703 5.041642434468577 5.766273616101666 1 1 1
3865 1 18.262707037631987 5.77660659989999 5.738708215915226 0 1 2
1398 1 23.1089923792121 2.9397079311422996 4.558297312364711 0 0 1
1828 1 22.6263147712652 5.178387969261086 6.265654928332344 0 -1 1
1477 1 26.460564036257022 5.669160654102824 3.871225182355917 -1 1 1
2649 1 28.965126305351895 4.873889872057695 4.627106368162948 1 1 0
3765 1 35.00416985946825 6.217011967752018 4.84289049927716 0 0 2
2964 1 31.06342571284841 5.308948251445464 6.634157794283572 1 1 0
1414 1 34.71148860367258 3.23029961099666 5.162105186816813 -1 0 1
2354 1 38.32122903445581 3.9027121660153403 3.4543412799815125 0 2 0
2106 1 39.46997793408876 5.8888717988079415 5.039244182107324 0 0 1
1514 1 45.012900750171596 3.9491494370473084 3.8027379325070236 0 0 0
513 1 49.136088220976916 4.430523064294647 4.3525325529616365 -2 0 0
2657 1 46.98841496384897 4.699569072953392 5.917500420054112 -1 0 0
385 1 49.01530569929474 8.441043872306974 5.821613517724815 1 -1 0
2116 1 4.134401640538307 8.887929282632543 1.8755444225006255 0 0 -1
1995 1 8.124990378012157 6.923774501709112 6.287544832846592 1 -1 0
2055 1 9.684762606691242 7.566015830034157 0.990482617415384 0 1 0
3292 1 12.331829217422229 7.677584698477282 5.663645467081137 1 1 -1
2012 1 14.872439211512857 8.743625038772167 4.509020751814696 0 0 1
3514 1 21.49815526047489 8.081982453992062 4.220106315900653 1 2 1
1932 1 20.634844705447396 7.016077552598441 6.529488672040307 0 -1 2
1003 1 24.719290791089076 6.906583084277095 5.91255982057734 -1 0 1
904 1 29.592232905618594 7.583405193595442 8.03233078925797 1 1 0
3356 1 38.305555177978434 9.390171468737611 3.653235624716536 0 -1 1
1991 1 41.39468901886512 7.038321158388867 3.242151499903855 -1 -1 1
3663 1 41.038024901588216 8.164564882364264 7.7118087386991805 0 0 0
2329 1 46.222021236035644 7.523873632689882 5.84049478989183 -1 1 1
2169 1 49.69192815132567 12.633697670668157 5.592492972006847 -1 0 0
3542 1 2.6703295630332717 11.438572464399579 2.679523895257229 0 2 1
2447 1 11.279959758109861 10.751366586954493 3.2152635620425754 -1 1 0
2743 1 12.362082420487134 12.840454716373996 4.635191357423493 1 0 0
227 1 15.475710137736394 11.206571358757676 3.5558084217010455 0 0 1
2856 1 18.7670161906551 10.18702270873376 6.448101967329881 -1 1 2
3847 1 19.892872565057516 10.505333051896534 4.195606635586384 1 0 0
3145 1 23.540940639931755 11.464380736927898 2.5823280330896417 0 2 1
126 1 23.963470044844517 9.492945293717364 4.806590237371558 0 0 2
1565 1 31.15151500866267 9.388246884679669 5.691336523262527 0 0 1
1742 1 28.01709269916563 10.467631435126421 5.359576840025973 -1 1 0
3478 1 31.41373958612926 9.276837167815293 3.1109550703551614 0 1 0
1833 1 34.631483203092 9.925468732558151 5.147217877221978 1 -1 0
178 1 35.99278137937203 13.937158348209788 5.552283905577909 -1 0 0
1006 1 43.344874877332245 7.562687743314154 5.579484948821693 -1 0 0
2872 1 42.688947976251654 10.345683561049041 3.9854316215982495 0 1 1
1538 1 44.27147126103718 12.901282465572974 3.819491445892559 -1 0 1
183 1 47.22067502547473 10.67194582953293 5.223037659716436 -1 1 0
1408 1 47.803561566985664 10.892216644233395 2.435761919261237 -1 1 1
2017 1 1.3234236318083397 15.035463878880812 4.602397836353237 0 0 1
1382 1 47.859657425015854 14.290161447146934 7.172144878365356 -1 1 1
75 1 3.8705934843984733 13.749945818834533 4.2137589512430695 0 0 1
752 1 5.668289996885875 11.297712612109864 4.474011647764919 0 0 2
2851 1 12.041933171882295 14.440337004760222 1.8721608625562474 1 1 1
644 1 14.583357203599927 12.65056339090974 5.872342833009914 0 0 0
1627 1 21.659066067892937 14.34817549938754 3.2300523549813094 0 0 1
3970 1 22.082605585150628 12.154767565705683 5.303578434213559 0 0 1
1184 1 24.782321792909325 13.754918618108002 3.7086901223276785 0 0 1
2153 1 29.138093720519755 12.517416277310609 3.944265351796631 -1 1 0
1412 1 29.404929315222212 13.58721405067583 6.673391430821743 0 0 1
16 1 31.316797890442757 11.469524819508054 7.643061295337444 1 -1 0
2775 1 33.06944334064609 12.353044756629316 5.647522329628001 -1 1 0
570 1 35.80434539248034 16.642634507338613 7.992749125585037 0 1 0
3667 1 39.49039878257321 14.142932238697798 4.320897726204932 0 1 0
2927 1 42.445060068103714 16.634483193596015 5.828623473000751 0 1 0
256 1 45.989879409725404 14.903459729201668 3.271314490506892 1 0 1
859 1 48.47822940994867 13.79595386281881 2.8899843338371998 0 0 0
2450 1 0.16635293084659197 16.354129467443116 2.3467307748874324 1 0 0
3599 1 3.895936232592495 17.81420874527421 5.911254043479943 -1 0 1
2578 1 8.568093350834532 15.620215593411762 4.413122787235814 0 1 0
1461 1 10.679238119637388 16.986208745108186 5.538176130183827 0 -1 0
553 1 13.006638125905797 16.01010845865113 4.112010271894518 0 0 0
113 1 13.58587550171853 18.95145148270728 3.4472074592370543 1 0 0
3863 1 15.598108304073053 14.992987887649704 5.030626968876424 0 1 1
2571 1 18.019815809652947 16.484180069226714 3.7738812775312565 0 0 0
3671 1 20.815579715713785 17.327052104501742 4.664047854086773 0 0 1
902 1 25.1237951569388 17.751850071697817 3.8360029757702137 1 1 -1
1429 1 29.0198779767723 16.99696673893971 3.0655877018402324 0 0 1
739 1 30.618731826664437 15.914520570520077 5.492555191642287 0 0 1
1683 1 33.47357398628141 15.432279343368082 6.36297028434718 -1 -2 0
2779 1 35.24537075794082 17.448661740603512 4.932392293920943 -2 0 1
565 1 42.24975372724049 14.622374743985263 4.00584376003883 -1 -1 1
3335 1 37.44477437916855 19.11005074252612 4.720383612194838 0 0 1
776 1 44.183567678499 18.311804058789416 4.310566192187983 0 -1 1
3903 1 47.52568414242951 17.78704784525158 3.418319505335596 0 0 1
1743 1 1.1799995342253766 18.872609516164175 3.0084082287400715 0 0 -1
1628 1 7.129887393213622 21.413693441243755 7.067115067736652 0 -2 1
1647 1 6.914134437653742 19.86814547895813 3.786123886548112 0 1 0
474 1 10.711880370900692 19.267813857379622 3.564650385781818 1 0 -2
1293 1 16.57286669998108 22.697253660524225 3.012599474168266 0 -1 1
3180 1 17.035844562063335 18.951027725963858 2.9894746644872168 0 1 1
2777 1 17.275993959382106 19.522645543366814 5.687621419550256 0 0 -1
760 1 21.17143296249514 20.8415439607844 4.745017191778907 0 0 0
2512 1 23.98067216653784 20.17329302116293 4.220814658646044 1 0 1
1929 1 25.008954513192325 20.92005874408928 6.507891601247707 0 1 0
3138 1 35.63164099450563 15.37154002410298 2.9594258108467493 0 0 0
2267 1 37.38957076357549 20.883043734482943 2.521328447654978 0 1 1
3047 1 35.371615333278626 20.977607248835156 6.63265017858718 1 -1 1
11 1 41.65503686939209 23.018506869705696 4.307187066617165 0 0 0
844 1 41.20864802084239 21.15332935910777 6.2916413627245245 0 0 0
2472 1 45.22822972456085 20.09446433595077 6.52631670582998 0 0 0
3940 1 47.99181323409374 21.460038230557917 3.5917260299201077 0 -1 1
2827 1 49.93987800305092 20.36830178668723 5.007522575029641 -1 1 1
1939 1 1.562771391037406 22.461288386359524 5.159211581120606 1 0 1
860 1 6.3068695645773065 22.577247651986283 4.623133161608356 0 0 0
2248 1 45.93067771354251 23.832574390239266 14.898052005386887 0 1 -1
1485 1 10.463603462954007 0.8901849444263513 12.89916987694631 -1 -1 1
3654 1 26.152816908230292 0.7289203053545364 1.414923202295881 2 1 0
1666 1 18.274559716207705 21.87910088981647 5.582827965094996 -1 0 1
1993 1 4.591140639146571 22.881092784534896 1.511856147978229 1 -1 0
2673 1 29.980869909085524 21.48003376508166 4.987775107824055 0 1 0
634 1 36.87860864229634 13.912641595899036 15.61670001521366 -1 0 0
2575 1 34.779086141218954 21.5477207204177 3.630993325539476 0 0 -1
522 1 35.87966618004029 23.684107025650363 6.005305216964526 1 -1 0
341 1 38.48576012194714 24.092919788519776 5.856461920721408 0 -2 0
2336 1 38.880650587975154 23.27114875904008 3.267131705918178 -1 0 0
1404 1 11.680645225776807 8.281534362650556 16.362116642280657 1 -1 0
2871 1 48.04744050964936 24.73252556700569 4.403482215749422 0 1 0
3133 1 41.5631970400712 22.9200243198604 1.1097973663110619 1 0 1
2536 1 0.6481183289448822 6.789924525213443 16.43204412850989 1 1 0
3773 1 2.133281254105767 0.9175838704958301 6.391027675201993 0 1 1
2229 1 8.762168824879796 0.1882757193859901 8.33772736861625 0 0 0
737 1 31.063435795118366 1.1989909093010536 2.4277799942783154 0 -1 1
1271 1 18.625702582353213 14.090656975574777 16.251504983314746 1 1 0
2616 1 15.76790805146345 4.589668651098139 9.052019141650904 1 1 1
2301 1 16.670254361563078 4.296335787597821 11.601877925521874 -1 0 0
3635 1 3.108198772173625 2.666463028260163 15.96071784952056 0 0 0
2237 1 22.27799231349497 1.8189200465675757 9.001700747916184 0 1 0
931 1 29.512854588624148 1.7227524250774149 7.427752988756752 1 1 1
1373 1 33.6238259220483 0.4083849082300197 10.361724395771853 -1 -1 0
2172 1 35.99061352152917 3.802901833483559 8.97780044802808 -1 1 1
2323 1 43.69378893882458 1.7126538884278981 7.206583487874915 0 1 0
2279 1 46.39369008563118 0.962565827429445 7.168986282261752 -1 1 1
545 1 5.314136397037779 7.219738727551035 5.676081213745751 0 1 0
3788 1 6.956824796820637 2.6215290552815786 6.946127390950136 0 1 0
2911 1 10.4306736581041 2.7004889803428656 8.785112400550695 0 1 0
3832 1 13.301059778213142 3.7076980915141786 7.917332646882792 0 0 1
2394 1 13.263292913201234 1.8428704242773801 12.781467268268372 0 2 1
610 1 17.263662707786054 7.704205448604652 11.013141767253591 -1 0 0
3228 1 17.765809418405905 3.6535662544736387 7.4021031129990815 1 0 0
986 1 20.09938827293326 4.3406650125229165 9.006246535048849 -1 0 0
1644 1 23.55690822077666 4.140638610788117 8.58198563216562 -1 0 0
538 1 26.134348041971442 3.422194618111176 7.8955429795252945 0 0 0
3581 1 30.25415487446972 4.140692524376077 8.987039494300976 -1 0 1
1309 1 33.22683448433399 5.11793900948174 10.816713464163875 1 1 0
2627 1 33.15952568685999 2.999794620821508 8.754374424893989 0 1 1
223 1 37.12076340735936 7.309340380810303 5.264537994708305 -1 1 0
521 1 40.84619060749698 4.550005539268333 7.030621816843732 -1 0 0
3211 1 43.526551415221874 4.832685877325044 6.0536220138564145 -1 0 1
2246 1 46.94827736686504 3.2649159378234724 8.383264548870786 0 0 1
1524 1 44.654562300668616 5.041913972023001 8.728515047847676 -1 0 1
655 1 49.373094795830724 4.680975773318592 8.339769734219214 0 1 0
1424 1 2.153578490746579 8.532713274540363 7.254311871468165 1 0 0
361 1 1.150361220694564 6.573100127960741 5.010106959894518 1 1 0
3798 1 7.780137718871544 6.983969537366059 8.878171800950202 0 0 2
2350 1 15.717240513302826 7.250875637044952 8.579798601007361 0 1 0
1681 1 12.988383769567985 7.846058541106908 8.344248658773216 -1 1 0
2930 1 16.94938986846449 8.074364014802665 6.433836217277486 1 0 0
3241 1 19.576835313293476 7.031496444504603 9.624816172676905 -1 1 1
3399 1 20.746211093373756 9.756158298948707 8.459773932152856 0 0 0
3661 1 24.427452651271118 8.447007019820719 10.222628728480705 0 1 1
2370 1 27.50773531269907 5.876620273732259 8.832439415942135 0 0 0
3254 1 26.12514976571237 8.414004310118502 8.10136867856121 0 1 0
1961 1 31.276532655213217 7.131409315819283 10.588573348760098 0 0 1
1653 1 32.883374640591086 7.488757499600188 6.522386517861596 0 0 2
3497 1 36.88733703296518 9.090513920654304 7.36781321447146 0 0 0
2224 1 33.672588879929435 8.311710638485817 9.024745488333375 0 1 0
3901 1 43.243230617752914 9.371309722588142 8.603567232983607 0 1 1
3475 1 45.363874152005266 7.458505194499989 8.542731892774974 -1 1 0
1268 1 47.598466022783725 8.230711382150265 10.001067868559513 -1 -1 1
1730 1 49.708686883442496 7.474606922951806 8.346445215543087 -2 -1 1
3442 1 3.864893892826777 9.641648750249976 5.026910881179799 0 0 -1
81 1 6.600288581164969 11.1198004533346 7.132058428648688 -1 1 0
785 1 10.004463592584852 8.891623171271934 4.9630411414937825 1 1 1
4052 1 14.16181233232835 12.310934863722093 8.470035014565966 1 1 1
2565 1 17.411281787349907 12.392351917008597 6.582227407068985 -1 0 0
3023 1 23.396886988290486 10.668436706611853 7.445932157970848 0 1 0
2480 1 25.536174108381488 11.848610475098827 5.824875054286485 -1 1 0
3877 1 28.393812546814324 10.262273404941952 7.9576675449704615 0 0 0
3929 1 31.513356335351943 9.90176457084427 11.645388138684906 0 1 2
875 1 33.37495045995132 11.014510670027091 9.482191803631112 0 0 -1
3233 1 35.44093915399249 11.570146040051451 7.756918075900984 0 1 0
2881 1 39.411160329281614 9.791149303061827 6.446677761926126 0 1 1
150 1 43.4840736391088 11.416064912255901 6.455509215993843 -1 0 0
1156 1 45.81926945847724 12.219908307331913 7.832502329111297 -1 0 0
1050 1 49.23952919746078 14.71202219532949 9.534216343121754 0 0 0
1789 1 5.740140842933404 15.623554875747235 6.007159969754969 1 0 0
1453 1 5.960283415707034 13.668699327411737 8.077439281543697 1 0 1
3425 1 9.364725194681478 10.98903662451199 6.8287447844816755 0 -1 0
3801 1 10.149262370353986 13.388213812216534 6.010925861207512 1 -1 0
2876 1 18.501942104680623 15.101052426183909 7.892002400784154 0 1 0
2526 1 20.519238885657344 14.271366966734547 9.665944234764897 1 0 -1
838 1 23.137180128708074 13.790559403416378 8.39846905171906 0 0 1
1792 1 23.771561968984088 12.669967510820147 10.887208475586563 -1 -1 0
1532 1 26.602777574511325 13.817568677847891 7.612271498271431 0 0 0
2274 1 24.96181264941705 16.537679022967986 7.743732202814261 1 1 0
2655 1 29.771529268675597 14.175138522857264 9.993067101354812 -1 1 1
1659 1 32.25241099530851 15.02173008533005 9.123115838449792 0 1 1
683 1 38.143342523767515 14.802504428717686 6.7973008992008745 -1 0 0
2330 1 40.38906887703591 12.517127648351936 6.7832889603037705 -1 0 0
3050 1 46.27677084547784 16.252283916273115 5.9078997188282525 -1 0 0
3003 1 1.2232733088519019 17.061744927909718 6.530517494162704 1 0 2
1520 1 1.640032385250953 16.375678172718303 9.097106892194589 1 0 0
310 1 7.927587004684098 18.2427144710009 6.041722673178317 0 0 0
1594 1 7.513171096875765 17.825751903359787 8.913056803652626 -1 0 1
2749 1 12.430758952693791 16.88364623409147 7.95411482025866 1 0 0
3097 1 9.988484858758921 15.140410014514922 8.28280726708629 1 0 0
1896 1 14.880932633940592 17.301916929054407 6.84176970221977 0 -1 0
1509 1 17.13823400832562 17.56408360795541 8.278105888721461 0 0 1
3199 1 20.969391378657424 15.017137554462998 6.200257540990518 1 1 -2
3658 1 23.77546562469895 15.836535070948742 5.458128971688294 -1 1 1
899 1 22.02223332358205 17.11132793815966 8.745289757195017 0 0 2
676 1 29.24885236416646 17.52182515787087 7.736751602227074 0 1 -1
1654 1 36.02717186699692 14.169297107902647 9.516974895012831 -1 0 1
4138 1 33.98790570411242 18.85534559438147 8.486175565731807 -1 1 1
3649 1 39.233551450854065 17.28598851678298 7.5919028194293094 -1 0 1
650 1 40.34940182789154 18.592344349332798 5.072558075247664 0 0 0
3594 1 43.992465067248844 16.776793103729684 8.250537476459238 0 0 1
1599 1 45.463631819675285 19.13732095460811 9.445498817856246 0 1 1
989 1 48.70523538513282 18.15772301760358 6.152571262466892 0 1 1
3100 1 2.1979839636603877 21.581664544451172 7.836603775018665 0 0 1
2597 1 4.572718711496796 19.956636970415957 7.843942682933432 0 0 0
3129 1 4.127382547574591 17.80509837252445 9.593620026596438 0 0 0
3566 1 10.063187469822184 20.44131955119091 6.339604305007974 0 0 0
3401 1 11.604668080199138 19.469250542853125 8.592055950274805 1 0 -1
3156 1 14.630692865493119 19.855486789718974 5.738992269075141 1 1 0
2292 1 17.00857789823142 22.067447417733515 9.467480843173217 0 1 -1
708 1 18.988053205996422 19.798598346405946 8.694461131952659 0 0 0
3140 1 26.687783366886897 18.499096113550408 6.851475537636681 0 1 0
3109 1 27.22137338251081 22.424587661600597 5.619464535237947 1 0 0
4087 1 29.438966914976245 19.734404771138284 10.81094450355441 0 1 0
3499 1 30.00842884270141 20.417756351185634 7.659781973814056 0 1 1
2495 1 32.66060270346988 21.637847107950773 8.177986856538377 0 1 0
2861 1 36.412167938147746 19.761782927418178 10.030383932536049 0 1 0
450 1 37.83372968877076 19.873215334185733 7.4952628829156485 1 0 -1
2221 1 39.281933025111485 22.245094164508227 7.675267850070193 -2 0 0
71 1 46.65664524723758 21.925254940830094 11.092304293683378 0 0 0
2868 1 48.30488626899633 20.061038371893478 8.492452267690096 -2 1 0
1368 1 47.40487597123989 22.64958603603935 8.167468662936118 0 0 0
3710 1 49.52471651528053 11.465564866098056 15.862351828211928 -1 0 0
3160 1 3.0323070807818873 24.182538119439343 8.905370774680994 0 0 1
3092 1 8.017781178327096 20.255060133949996 9.954268398500632 -1 0 1
1191 1 16.8325928378344 16.386375261236168 15.947763660168544 -1 -1 0
3954 1 9.774002076835314 23.337434312483705 6.191726089922737 0 0 1
2178 1 11.94253554717456 24.00443969713851 7.879976583959198 1 2 -2
3315 1 14.25588057076474 22.748542760835655 4.988265851791875 0 0 1
3717 1 6.232870471726657 8.327396043735476 15.838740443380212 0 1 -1
76 1 19.490443341187387 23.05664110075185 8.27370026307871 1 -1 -1
3885 1 23.29269164870951 23.174026518662924 7.678662770943954 1 0 1
254 1 21.252437354742543 19.236792368974225 7.189828562397447 -1 0 0
3868 1 29.622037498599944 23.148636287231003 11.253678717685762 0 0 -1
2281 1 28.367664701300523 22.988565984130457 8.227941741481441 0 0 -1
3139 1 32.45936725719572 22.372943073738238 5.4237471142640485 -1 -1 1
3260 1 39.43768130750844 22.44233853083061 10.365470769573136 -2 1 1
3679 1 43.32769452601214 21.67576194694297 7.456020550402132 -2 1 1
3779 1 16.10424925631143 23.363687023195435 7.095121744920439 0 0 1
618 1 17.465527801282416 20.70061002836825 16.602747107960653 0 0 0
991 1 46.08674718653734 22.662999405625097 5.433574703324173 0 0 0
1420 1 3.8756281394997902 1.4663312172300544 8.360141769669168 0 2 1
2812 1 10.312719174543783 3.271200549775875 11.352026015798321 0 0 0
2648 1 9.262971275846713 1.7472049034151547 15.509324024832479 1 1 0
130 1 14.219472517071033 4.226168032152807 13.454947850042393 0 0 0
2935 1 21.980446665518834 23.472572908478202 13.065205044366222 0 0 0
1107 1 49.73572010020558 0.3415052804004169 13.721185127294973 0 0 -1
1625 1 21.09620190977078 21.95408111998459 15.65860278865129 -1 0 0
3844 1 37.14124528115579 0.5562994928104394 7.270749116285242 -1 1 0
4139 1 27.35018787625848 23.329559459854877 13.503423034688588 0 0 0
334 1 26.868089436493218 2.163523255858403 11.454929417444376 0 0 0
515 1 31.249091413395483 1.7002458061674346 12.751602501562347 0 1 1