
# Create simulation box of size 50 x 50 x 50 Angstrom
#
lattice	            sc 1
Lattice spacing in x,y,z = 1.0000000 1.0000000 1.0000000
region 	            all block 0 50 0 50 0 50 units box
create_box          1 all
Created orthogonal box = (0.0000000 0.0000000 0.0000000) to (50.000000 50.000000 50.000000)
  1 by 2 by 3 MPI processor grid

# fill box with 4175 randomly distributed atoms
#
create_atoms        1 random 4175 63782 all
Created 4175 atoms
  create_atoms CPU = 0.001 seconds
mass                1 18.015

# Define potential
#
pair_style          sw
pair_coeff          * * ML_mW.sw mW
Reading sw potential file ML_mW.sw with DATE: 2019-02-27

# Run minimization
#
minimize            1.0e-8 1.0e-8 10000 1000
WARNING: Using 'neigh_modify every 1 delay 0 check yes' setting during minimization (../min.cpp:187)
Neighbor list info ...
  update every 1 steps, delay 0 steps, check yes
  max neighbors/atom: 2000, page size: 100000
  master list distance cutoff = 6.0032907
  ghost atom cutoff = 6.0032907
  binsize = 3.0016454, bins = 17 17 17
  1 neighbor lists, perpetual/occasional/extra = 1 0 0
  (1) pair sw, perpetual
      attributes: full, newton on
      pair build: full/bin/atomonly
      stencil: full/bin/3d
      bin: standard
Per MPI rank memory allocation (min/avg/max) = 4.255 | 4.258 | 4.261 Mbytes
Step Temp E_pair E_mol TotEng Press 
       0            0    7792709.3            0    7792709.3    5898794.3 
     630            0   -45180.336            0   -45180.336   -154.07449 
Loop time of 1.17364 on 6 procs for 630 steps with 4175 atoms

98.5% CPU use with 6 MPI tasks x no OpenMP threads

Minimization stats:
  Stopping criterion = max force evaluations
  Energy initial, next-to-last, final = 
      7792709.32924461  -45180.0188663597   -45180.336116598
  Force two-norm initial, final = 2.0191930e+08 4.9721331
  Force max component initial, final = 1.0948746e+08 0.73126211
  Final line search alpha, max atom move = 0.053306038 0.038980685
  Iterations, force evaluations = 630 1000

MPI task timing breakdown:
Section |  min time  |  avg time  |  max time  |%varavg| %total
---------------------------------------------------------------
Pair    | 0.88509    | 0.99654    | 1.0861     |   7.0 | 84.91
Neigh   | 0.023751   | 0.024703   | 0.025867   |   0.5 |  2.10
Comm    | 0.041697   | 0.13181    | 0.24462    |  19.4 | 11.23
Output  | 0          | 0          | 0          |   0.0 |  0.00
Modify  | 0          | 0          | 0          |   0.0 |  0.00
Other   |            | 0.02059    |            |       |  1.75

Nlocal:        695.833 ave         704 max         685 min
Histogram: 1 1 0 0 1 0 0 1 0 2
Nghost:        1494.17 ave        1515 max        1468 min
Histogram: 1 1 0 0 0 0 1 1 1 1
Neighs:        0.00000 ave           0 max           0 min
Histogram: 6 0 0 0 0 0 0 0 0 0
FullNghs:      19997.0 ave       20462 max       19320 min
Histogram: 1 1 0 0 0 0 0 2 0 2

Total # of neighbors = 119982
Ave neighs/atom = 28.738204
Neighbor list builds = 26
Dangerous builds = 0

# Add velocity/set timestep
#
velocity            all create ${TEMP} 120598 rot yes dist gaussian
velocity            all create 225 120598 rot yes dist gaussian
timestep            5.0

# Define output
#
compute	            1 all msd
thermo	            100
thermo_style        custom step temp press vol etotal ke pe c_1[4] density

# Neighbor lists
#
neigh_modify        delay 0 every 1 check yes

# Set fixes
#
fix                 1 all momentum 10 linear 1 1 1 rescale
fix                 2 all nve
fix                 3 all temp/csvr ${TEMP} ${TEMP} 500.0 928347
fix                 3 all temp/csvr 225 ${TEMP} 500.0 928347
fix                 3 all temp/csvr 225 225 500.0 928347
fix                 4 all press/berendsen iso ${PRES} ${PRES} 1000.0 modulus 20000
fix                 4 all press/berendsen iso 500 ${PRES} 1000.0 modulus 20000
fix                 4 all press/berendsen iso 500 500 1000.0 modulus 20000

# Run 0.5 ns equilibration
#
dump                1 all custom 1000 eq.${NAME}.dump id type x y z vx vy vz
dump                1 all custom 1000 eq.liquid_density_MLmW.dump id type x y z vx vy vz
run                 100000
Per MPI rank memory allocation (min/avg/max) = 3.506 | 3.508 | 3.511 Mbytes
Step Temp Press Volume TotEng KinEng PotEng c_1[4] Density 
     630          225    869.67124       125000   -42380.908    2799.4278   -45180.336 2.7295415e-33   0.99914793 
     700    143.22855    342.60063    125044.32   -41521.798    1782.0355   -43303.833   0.26708275    0.9987938 
     800    178.20942    199.54434    124744.23   -40745.348     2217.264   -42962.612   0.64376243    1.0011965 
     900     195.5782    505.36355    124355.88   -40317.928    2433.3646   -42751.293     1.124476    1.0043231 
    1000    205.83907    553.28478    124389.29    -40027.67    2561.0293   -42588.699    1.5206196    1.0040534 
    1100    215.49475    362.47497    124341.27   -39853.073    2681.1643   -42534.237    2.0178588    1.0044412 
    1200    217.70985     413.4513     124353.7   -39890.138    2708.7244   -42598.862    2.4103563    1.0043408 
    1300    215.55987    545.05825    124247.85   -39871.809    2681.9746   -42553.784    2.9047084    1.0051964 
    1400    222.04686    581.47375    124234.52   -39880.408    2762.6851   -42643.093    3.2610585    1.0053042 
    1500    221.38813    699.97863    124160.38   -39834.803    2754.4892   -42589.292    3.5961799    1.0059046 
    1600    224.27495    582.84756    124182.15    -39731.65    2790.4067   -42522.057    3.9911867    1.0057282 
    1700    225.18125    295.89523    124208.38   -39747.413    2801.6828   -42549.096    4.3791634    1.0055159 
    1800    222.74162    514.23259    124094.67   -39824.916    2771.3292   -42596.245    4.7792952    1.0064372 
    1900    224.62686    590.66168    124195.32   -39805.801    2794.7852   -42600.586    5.0865602    1.0056215 
    2000    223.92631    545.34819    124144.97   -39747.441     2786.069    -42533.51    5.5161037    1.0060294 
    2100    225.59725    617.20416    124311.99    -39685.39    2806.8587   -42492.249    5.9571552    1.0046778 
    2200    222.77588    499.03938    124753.43   -39699.904    2771.7555   -42471.659    6.3780374    1.0011227 
    2300    223.56409    653.18757    124914.71   -39685.525    2781.5623   -42467.087    6.7812119   0.99983016 
    2400    225.60803    639.21698    124836.89   -39691.202    2806.9929   -42498.195     7.142579    1.0004534 
    2500    231.50257    355.00829    124700.55   -39650.504    2880.3321   -42530.836    7.5270137    1.0015472 
    2600    228.18727    531.23515    124554.62   -39595.434    2839.0835   -42434.518    7.9892697    1.0027206 
    2700    227.06546    705.50865    124496.55   -39625.674     2825.126     -42450.8    8.4128505    1.0031884 
    2800    229.08059    467.15952    124420.06   -39597.251     2850.198   -42447.449    8.8770153    1.0038051 
    2900    222.77174    577.22056    124435.43   -39656.409     2771.704   -42428.113    9.2881177    1.0036811 
    3000    224.88982     502.7163    124497.96   -39678.118    2798.0569   -42476.175    9.6984404     1.003177 
    3100    233.46551    678.66202    124667.79    -39652.44    2904.7547   -42557.195    10.238479    1.0018105 
    3200    225.29897    418.33817    124605.84   -39719.746    2803.1475   -42522.893    10.648571    1.0023085 
    3300    225.07211    404.84029    124785.77    -39709.37     2800.325   -42509.695      11.1506    1.0008633 
    3400    226.66165    244.99924     124342.3   -39759.027    2820.1018   -42579.129    11.696332    1.0044329 
    3500    222.86215    671.75044    124364.06   -39780.649    2772.8289   -42553.478     12.02435    1.0042571 
    3600    224.54157    654.05296    124472.65   -39808.862     2793.724   -42602.586    12.452089     1.003381 
    3700    219.57811     577.2594     124512.7   -39888.309    2731.9691   -42620.278    12.900831    1.0030582 
    3800    226.52174    561.50753    124929.21   -39833.426    2818.3611   -42651.787    13.375157    0.9997141 
    3900    223.18234    574.49965    124824.15   -39863.569    2776.8126   -42640.382    13.866377    1.0005555 
    4000    218.57322    289.52103    124723.87   -39862.315    2719.4665   -42581.782    14.153265    1.0013599 
    4100    223.63114    495.95021    124697.76   -39858.547    2782.3965   -42640.944    14.436203    1.0015697 
    4200     219.4641    343.65132    124781.15   -39866.192    2730.5507   -42596.743    14.796554    1.0009003 
    4300    227.05614    344.76164    124712.75   -39867.139      2825.01   -42692.149    15.238582    1.0014492 
    4400    223.54217    424.02228    124609.86   -39847.365    2781.2896   -42628.655    15.481673    1.0022762 
    4500    224.56032    364.23876    124466.71   -39839.004    2793.9573   -42632.961     15.79861    1.0034289 
    4600    224.02449    659.52596    124524.01   -39902.462    2787.2906   -42689.753    15.932298    1.0029672 
    4700     228.7284    558.42624    124673.17   -39814.315    2845.8161   -42660.131    16.234238    1.0017672 
    4800    221.53786    679.83154     124658.4    -39864.09    2756.3521   -42620.442    16.518861    1.0018859 
    4900    226.89733    544.15295    124783.89   -39734.246    2823.0342    -42557.28    16.992676    1.0008783 
    5000    229.75545    494.50681    124820.13   -39696.059    2858.5945   -42554.654    17.383532    1.0005877 
    5100    229.44731    520.31409    124947.14   -39771.986    2854.7608   -42626.746    17.745971   0.99957066 
    5200    226.02846    475.19282    124986.07    -39830.93    2812.2237   -42643.153    17.919453   0.99925926 
    5300    225.97069    585.88346    124889.89   -39814.861     2811.505   -42626.366    18.277871    1.0000288 
    5400     223.2832    515.78371       124868   -39841.721    2778.0675   -42619.789    18.732522    1.0002041 
    5500    225.69134    476.86862    125210.39   -39849.676    2808.0293   -42657.705     19.05825   0.99746908 
    5600    225.14507    762.81715    125228.49   -39872.941    2801.2327   -42674.174    19.478156   0.99732493 
    5700    224.30872    566.38513     125302.3   -39868.894    2790.8269   -42659.721    19.623479   0.99673739 
    5800    222.97705    413.46361    125280.93    -39912.15    2774.2585   -42686.408    19.914406   0.99690746 
    5900    221.67329    524.65333    125393.91   -39948.487    2758.0372   -42706.524    20.320857   0.99600921 
    6000    225.48202    482.68941    125209.81   -39933.872    2805.4251   -42739.297    20.631154   0.99747368 
    6100    220.80064    538.95961    125251.56   -39868.771    2747.1798   -42615.951     21.05549   0.99714121 
    6200    223.01487    490.92645    125229.91   -39930.344    2774.7289   -42705.073    21.514117    0.9973136 
    6300    224.15832    275.77143    125017.67   -39896.421    2788.9557   -42685.377    21.988751   0.99900671 
    6400    224.59147    456.63551    124804.09   -39872.698    2794.3448   -42667.043    22.484657    1.0007164 
    6500    225.67745     524.8593    125010.73   -39813.116    2807.8565   -42620.973    23.120375   0.99906217 
    6600    222.98262     393.0387    124983.59   -39869.116    2774.3277   -42643.444     23.38156   0.99927912 
    6700    221.56862    486.09454    124848.97   -39918.568    2756.7349   -42675.303    23.826342    1.0003566 
    6800    223.59821    619.56376    124946.87    -39836.62    2781.9868   -42618.607    24.334943   0.99957275 
    6900    224.49861    729.05916    125200.18   -39776.808    2793.1896   -42569.998    24.732768   0.99755043 
    7000    228.80749     507.4075    125150.29   -39779.587    2846.8002   -42626.387    24.950572   0.99794808 
    7100    227.01439    530.46943    124975.09   -39816.559    2824.4906   -42641.049    25.346441   0.99934712 
    7200    222.38686     354.3514     125068.1   -39882.838    2766.9153   -42649.753    25.872395   0.99860389 
    7300    224.02291    308.77583    124737.77   -39926.872    2787.2708   -42714.143    26.117262    1.0012484 
    7400    219.27616    634.31857    124899.45   -39944.606    2728.2123   -42672.819    26.375348   0.99995228 
    7500    222.18189    598.42974    125000.79   -39913.462    2764.3651   -42677.827    26.595216   0.99914163 
    7600    220.15581    596.10834    125088.59   -39995.819    2739.1569   -42734.976    26.888306   0.99844029 
    7700    226.12847    270.23438    125190.61   -39881.567    2813.4681   -42695.035     27.29329   0.99762671 
    7800     221.3438    505.41284    125149.83    -39847.75    2753.9377   -42601.688    27.446562   0.99795177 
    7900    219.16229    582.98711    125001.97   -39902.427    2726.7956   -42629.222    27.805921   0.99913217 
    8000    226.60883    426.77071    125100.73   -39876.041    2819.4447   -42695.485    28.224233   0.99834343 
    8100    223.37863    584.25199    125252.51   -39954.477    2779.2548   -42733.732    28.622807   0.99713362 
    8200      221.592    382.50617    125438.76   -39999.951    2757.0258   -42756.977    29.101928   0.99565313 
    8300    222.09098    670.16929    125565.06   -39996.187     2763.234   -42759.421    29.410156   0.99465161 
    8400    225.24235    495.51149    125626.33   -39956.295     2802.443   -42758.738    29.718481   0.99416653 
    8500    227.10533    499.07762    125509.85   -39900.768    2825.6221    -42726.39    30.133874   0.99508917 
    8600    225.14118    562.78924     125763.1   -39922.345    2801.1843   -42723.529    30.391558   0.99308537 
    8700    224.73996    578.80462    125616.68   -39911.859    2796.1924   -42708.051    30.714038   0.99424286 
    8800    222.49061    339.17154    125772.48   -39957.097    2768.2061   -42725.303    31.195506    0.9930113 
    8900    220.12631    490.49444    125695.71   -40043.917    2738.7898   -42782.707    31.447685   0.99361779 
    9000    224.76233    450.57908    125842.94   -39994.025    2796.4707   -42790.495    31.820776   0.99245531 
    9100    223.08061    574.50969    125939.42   -40058.596    2775.5469   -42834.143    32.268496   0.99169498 
    9200    224.78692    532.97065    126187.31   -39980.182    2796.7766   -42776.958    32.612508   0.98974686 
    9300    223.13646    569.61472    125997.61   -40032.271    2776.2417   -42808.513     33.01091   0.99123698 
    9400    224.20363    328.15041    126174.44   -39997.025    2789.5194   -42786.544    33.384667   0.98984782 
    9500    224.82684    302.27739       125999   -40017.948    2797.2733   -42815.221    33.592796   0.99122609 
    9600    223.92098    502.75389    126178.94   -40002.762    2786.0027   -42788.765    33.867817    0.9898125 
    9700    228.53611    389.81198    125782.99   -39925.263    2843.4237   -42768.687    34.089751   0.99292834 
    9800    221.49699    480.98646    125588.25   -40000.202    2755.8437   -42756.046    34.169914     0.994468 
    9900    219.20501    347.92152    125527.35   -40054.344    2727.3271   -42781.671    34.323606   0.99495045 
   10000    219.56092    417.26666    125503.33   -40039.125    2731.7553   -42770.881    34.643515   0.99514087 
   10100    221.85564    622.00215    125548.03   -39982.372    2760.3059   -42742.678    34.936262   0.99478653 
   10200    221.84447    599.59589    125507.15   -40034.479    2760.1669   -42794.646    35.129797   0.99511057 
   10300    222.09365    501.35991    125404.31   -40016.823    2763.2672    -42780.09    35.250699   0.99592662 
   10400    223.20203    416.10327    125419.87    -39962.06    2777.0576   -42739.117    35.591717   0.99580307 
   10500    229.30002    530.58383    125539.36   -39944.884    2852.9282   -42797.812    35.788473   0.99485525 
   10600    226.93967    583.36459    125571.33    -39881.05    2823.5609    -42704.61    36.038199   0.99460197 
   10700    229.81856    417.10799    125627.11   -39888.124    2859.3798   -42747.504    36.221136   0.99416038 
   10800    227.28219    434.20453       125410   -39887.883    2827.8225   -42715.705    36.373164   0.99588148 
   10900     227.8419    449.39339    125331.66    -39904.38    2834.7864   -42739.167    36.620418   0.99650393 
   11000    228.36687    329.58779    125155.52   -39903.954    2841.3181   -42745.272    37.037064   0.99790635 
   11100    224.39489    668.08131    125328.55   -39952.193     2791.899   -42744.092    37.256751   0.99652865 
   11200    226.99432    365.41534    125397.47   -39944.634    2824.2409   -42768.875    37.797271   0.99598093 
   11300    224.81268    538.91779    125604.24   -39930.353    2797.0971    -42727.45    38.521778   0.99434139 
   11400    224.79537    574.50104    125666.86   -39938.426    2796.8818   -42735.308    38.907466   0.99384586 
   11500    225.02951    590.61223    125386.96   -39962.461    2799.7949   -42762.256    39.116169   0.99606444 
   11600     221.9853    624.71125    125389.45   -39955.247    2761.9192   -42717.166    39.595679   0.99604463 
   11700     225.3442    452.22212    125423.41   -39830.878    2803.7102   -42634.588    39.810273   0.99577498 
   11800    226.63761    378.34945    125528.98   -39871.985    2819.8027   -42691.788    40.035199    0.9949375 
   11900    221.76001    538.53126    125553.25   -39871.481    2759.1162   -42630.598    40.461648   0.99474518 
   12000    226.34955     541.6996    125459.39   -39872.316    2816.2187   -42688.535    40.999538   0.99548939 
   12100    222.53361    490.31332    125278.06   -39822.664    2768.7411   -42591.405      41.1405   0.99693032 
   12200    225.04235    581.90094    125364.67   -39804.732    2799.9547   -42604.687    41.211396   0.99624156 
   12300    227.80753    530.53305    125255.45   -39829.114    2834.3587   -42663.473    41.801628   0.99711023 
   12400    228.41548    407.71567    125207.85   -39824.564    2841.9228   -42666.487    42.464156   0.99748932 
   12500     222.8597     461.7647    125330.91   -39937.667    2772.7983   -42710.465    43.014523    0.9965099 
   12600    225.60011    385.82478    125419.89   -39863.497    2806.8943   -42670.392     43.46502   0.99580289 
   12700    230.66615    485.40171    125208.68   -39842.293    2869.9254   -42712.218    43.445006   0.99748272 
   12800    228.95681    444.88372    125525.98   -39836.441    2848.6579   -42685.099    43.857084    0.9949613 
   12900    229.64888     439.7909    125345.17   -39899.248    2857.2687   -42756.517    44.217318   0.99639651 
   13000    230.85971    540.93678    125350.72   -39845.719    2872.3337   -42718.053    44.305001    0.9963524 
   13100    224.58217    609.07913    125305.72   -39835.025    2794.2292   -42629.254    44.658132   0.99671021 
   13200    230.51405    304.15502    125245.08    -39754.28    2868.0331   -42622.313    44.778291   0.99719277 
   13300    226.16298    321.02591    125386.11   -39804.016    2813.8975   -42617.913    45.115859   0.99607119 
   13400    223.43964    644.28614    125310.07   -39890.858    2780.0139   -42670.871    45.260221   0.99667562 
   13500    224.02141    490.34099    125254.14   -39916.644    2787.2522   -42703.896    45.756462   0.99712064 
   13600    222.42698    508.55133    125239.02   -39929.959    2767.4145   -42697.374    45.970744   0.99724104 
   13700    223.58154    413.57295    125370.89   -39928.523    2781.7794   -42710.302    46.423366   0.99619214 
   13800    223.88009    561.35261    125333.41   -39839.133    2785.4939   -42624.627    46.812051   0.99648998 
   13900    225.73884    347.95518    125113.33   -39869.694    2808.6203   -42678.314    47.296704   0.99824289 
   14000    226.92297    619.52622    125158.94   -39833.161    2823.3531   -42656.514    47.526437    0.9978791 
   14100    225.00466    441.27177     125282.9   -39845.718    2799.4857   -42645.204    47.688024    0.9968918 
   14200        224.1    683.95587    125530.01    -39882.45      2788.23    -42670.68    48.083587   0.99492933 
   14300    224.61451    498.14545    125499.16   -39940.444    2794.6316   -42735.075    48.477095   0.99517389 
   14400     222.5758    471.48825    125570.02   -39931.234    2769.2661     -42700.5    48.740245   0.99461233 
   14500    225.33735     406.1016    125477.38    -39881.32    2803.6251   -42684.945    49.081696   0.99534663 
   14600    226.08555     449.3155    125295.93   -39892.711    2812.9341   -42705.645    49.466474   0.99678808 
   14700    224.67457     583.7399    125470.66   -39960.622    2795.3788       -42756    49.927479   0.99539999 
   14800     222.9116    433.52434    125471.16   -40004.841    2773.4441   -42778.285    50.467923     0.995396 
   14900     221.4684    336.53608    125435.07    -40078.22     2755.488   -42833.708    50.826452   0.99568242 
   15000    219.27676    428.83512    125301.24   -40080.436    2728.2197   -42808.656    51.019259   0.99674581 
   15100    218.18964    697.00014    125320.03   -40098.332     2714.694   -42813.026    51.137049   0.99659644 
   15200     220.0728    510.14227    125218.66   -40026.223     2738.124   -42764.347    51.276844   0.99740321 
   15300    221.86539    527.24836    125601.54   -40042.665    2760.4272   -42803.092    51.516513   0.99436271 
   15400    224.44818    555.44527    125565.28   -40053.213     2792.562   -42845.775    51.718264   0.99464992 
   15500    220.93226    643.47873    125539.19   -40031.865    2748.8174   -42780.683    51.892214   0.99485659 
   15600    225.97268    472.68526    125627.88   -39961.696    2811.5297   -42773.226    52.097262   0.99415426 
   15700    219.78107    455.11145    125489.69   -40057.556    2734.4944    -42792.05    52.082518   0.99524899 
   15800    224.23778    577.71143    125529.26   -40067.502    2789.9443   -42857.447    52.302998   0.99493532 
   15900    222.44119    516.35074    125371.43    -40103.09    2767.5913   -42870.681    52.708374   0.99618785 
   16000     224.2757    785.89595    125255.92   -40037.582    2790.4161   -42827.998    52.902623   0.99710649 
   16100    228.08299    458.19503    125426.81    -39986.31    2837.7861   -42824.096    53.070262   0.99574793 
   16200     226.4751    443.99769    125332.44   -40046.705    2817.7808   -42864.486    53.651898   0.99649775 
   16300    220.41561    353.29914    125590.93   -40053.283    2742.3893   -42795.672    53.793209   0.99444676 
   16400    227.24243    413.05129    125586.69   -39961.385    2827.3279   -42788.713    54.076813   0.99448035 
   16500    223.89712    392.81885    125580.54   -39934.143    2785.7059   -42719.848     54.34598   0.99452899 
   16600    228.84832    625.43157    125512.96   -39915.087    2847.3082   -42762.395    54.799393   0.99506454 
   16700    228.53113    549.78212    125611.61   -39946.444    2843.3617   -42789.805    55.193551   0.99428302 
   16800    224.71504    608.31602    125568.78   -39939.156    2795.8823   -42735.038    55.864875   0.99462215 
   16900     227.0715    461.01437    125877.86   -39907.802    2825.2012   -42733.003    55.959802   0.99217993 
   17000    225.95726    563.00157    125574.91   -39918.486    2811.3379   -42729.824    56.274283   0.99457361 
   17100    224.14997    402.14069    125661.41   -39832.532    2788.8518   -42621.384    56.534605   0.99388895 
   17200    224.45402    396.17329    125553.54   -39816.824    2792.6347   -42609.459     56.94448   0.99474288 
   17300    223.70622    542.08372     125543.9   -39853.082    2783.3307   -42636.412    57.116915   0.99481929 
   17400    223.04115    337.64129    125537.29   -39867.852    2775.0559   -42642.908    57.262333   0.99487163 
   17500    225.61365    618.48611    125345.08    -39846.01    2807.0627   -42653.073    57.424927   0.99639721 
   17600    223.77382    273.51355    125157.35   -39800.517    2784.1718   -42584.689    57.536922   0.99789179 
   17700    224.20392    572.63957    125106.88   -39807.161    2789.5229   -42596.684    58.016776   0.99829438 
   17800    225.96435    385.48427    125003.88   -39815.179    2811.4261   -42626.605    58.156156   0.99911689 
   17900    230.46709    480.45264    125085.55   -39797.595    2867.4488   -42665.043    58.317155   0.99846456 
   18000    233.06843    540.79578    125116.42   -39734.774    2899.8143   -42634.588    58.986586   0.99821821 
   18100    227.18661    539.79914    125048.51   -39835.164    2826.6334   -42661.797    59.588256   0.99876033 
   18200    227.45405    391.28126    124986.64   -39830.958    2829.9608   -42660.919    59.805919   0.99925475 
   18300    227.24886     261.4137    124722.55   -39746.273    2827.4079   -42573.681     60.03136    1.0013706 
   18400    226.52267     506.5535    124812.67   -39822.753    2818.3726   -42641.125    60.353533    1.0006476 
   18500    226.41415    506.87753    124821.16   -39783.703    2817.0225   -42600.725    60.779533    1.0005795 
   18600    225.20554    574.16523    124899.49   -39846.744     2801.985   -42648.729     61.40326   0.99995197 
   18700    227.74431    505.05421    125180.34   -39805.461    2833.5722   -42639.033    61.660234   0.99770852 
   18800    225.95552    212.83728    124776.21    -39791.44    2811.3163   -42602.756    61.714498    1.0009399 
   18900    227.49426    552.27212    124600.94    -39840.97    2830.4611   -42671.431    62.248989    1.0023479 
   19000    225.38915    636.02534    124663.35   -39812.441    2804.2695   -42616.711    62.576617    1.0018461 
   19100    226.11784    669.44663    124958.01   -39859.973    2813.3358   -42673.309    62.940161   0.99948367 
   19200    226.47106    468.06297    124772.31    -39826.79    2817.7306    -42644.52    63.295416    1.0009712 
   19300    226.38073    391.58396    124710.98   -39759.176    2816.6067   -42575.783    64.007693    1.0014635 
   19400     225.3969    470.59233    124809.14   -39754.346     2804.366   -42558.712    64.470031    1.0006758 
   19500    228.55184    556.71989    124736.63   -39757.782    2843.6194   -42601.402    65.141176    1.0012576 
   19600    225.37466    630.26888    124673.97   -39800.487    2804.0893   -42604.576    65.525669    1.0017608 
   19700    228.86456    487.45314    124777.34   -39769.155    2847.5102   -42616.665    65.924295    1.0009309 
   19800    224.63648    358.37103    124917.19   -39795.744    2794.9048   -42590.648    66.183509   0.99981031 
   19900    226.12119    600.30557    124961.83   -39808.672    2813.3775    -42622.05    66.344928   0.99945316 
   20000    227.20069    401.46541    125026.46   -39846.253    2826.8086   -42673.061    66.725698   0.99893648 
   20100    230.43054    742.63884    125053.79   -39817.442     2866.994   -42684.436     67.03942   0.99871819 
   20200    226.22473    413.89903     125121.5   -39885.844    2814.6657    -42700.51    67.060804   0.99817771 
   20300    221.34852    513.40314    125219.74   -39917.523    2753.9964   -42671.519    67.270586   0.99739459 
   20400    222.10158    530.48838    125329.27   -39908.241    2763.3659   -42671.607    67.547484   0.99652296 
   20500    220.85112    398.61466    125211.25   -39867.835    2747.8078   -42615.643    67.683746    0.9974622 
   20600    224.90299    524.71591     125047.9   -39915.657    2798.2208   -42713.878    67.734685   0.99876517 
   20700    225.83943    563.66964    125178.97   -39861.742    2809.8718   -42671.614    68.073703   0.99771943 
   20800    220.75091    304.01074    125299.27   -39850.555     2746.561   -42597.116    68.600313   0.99676156 
   20900     224.9971    653.81797    125078.65   -39894.056    2799.3917   -42693.448    68.895325   0.99851965 
   21000    219.45041    604.60365    125158.29    -39972.53    2730.3803    -42702.91    69.497058   0.99788427 
   21100    224.52764    471.56129    125089.76   -39986.692    2793.5507   -42780.243    69.731749   0.99843098 
   21200    220.99466    542.30921    125309.78   -39965.447    2749.5938   -42715.041    70.443192   0.99667792 
   21300    222.61787    453.64011    125314.57   -39988.507    2769.7895   -42758.296    70.594218    0.9966398 
   21400     223.1926    373.05965    125247.68   -39952.958    2776.9402   -42729.898    70.738479   0.99717208 
   21500    223.22995    670.69032    125348.95   -39940.645    2777.4049    -42718.05    71.175337   0.99636644 
   21600    223.51071    342.53408    125183.58   -39898.535    2780.8982   -42679.434     71.52618   0.99768266 
   21700    226.98219    471.39555     125235.2   -39877.853      2824.09   -42701.943    72.196398   0.99727149 
   21800      226.119    468.50013    125217.38   -39843.891    2813.3503   -42657.241    72.765026   0.99741339 
   21900    220.53652    615.92798    125302.83   -39863.253    2743.8935   -42607.147    73.218477   0.99673322 
   22000    225.05167    393.24832    125376.11   -39901.508    2800.0706   -42701.579     73.46455   0.99615066 
   22100    228.60884    338.95451    125371.82   -39856.915    2844.3286   -42701.243    73.756981   0.99618476 
   22200    227.09973    258.04811    125273.12   -39890.233    2825.5524   -42715.785    74.166188   0.99696963 
   22300    225.87085    607.04919    125082.28   -39870.788    2810.2627    -42681.05    74.410605   0.99849069 
   22400    227.51848    465.54376    125392.28   -39832.832    2830.7624   -42663.594    74.927442    0.9960222 
   22500     229.7175    322.80109    125301.99   -39840.631    2858.1224   -42698.754    75.578378   0.99673985 
   22600    225.64909    442.06089    125136.25   -39814.691    2807.5036   -42622.194    76.215909   0.99806003 
   22700     223.6575    519.01482       125183    -39823.33    2782.7244   -42606.055    76.360414    0.9976873 
   22800    224.42785    434.78962    125116.78   -39814.664    2792.3091   -42606.973     76.63003   0.99821532 
   22900    229.78282    391.76758    125237.92   -39865.541    2858.9351   -42724.476    77.050271   0.99724979 
   23000    224.66401    576.68332    125138.52   -39844.474    2795.2474   -42639.722    77.413429   0.99804194 
   23100    221.75821     318.4562    124932.41   -39950.598    2759.0937   -42709.692    77.812625   0.99968845 
   23200    223.96054    493.71778    125090.72   -39887.004    2786.4949   -42673.499    78.511449   0.99842335 
   23300    222.90039    450.75941    124760.84   -39919.177    2773.3046   -42692.481    79.000855    1.0010632 
   23400    232.13163    614.90127    125001.44   -39844.393    2888.1588   -42732.552    79.355866   0.99913642 
   23500    226.01636    380.01341    124867.75   -39875.923    2812.0732   -42687.996     79.81288    1.0002061 
   23600    223.24979    438.25188    124941.62   -39855.723    2777.6518   -42633.375    79.878754   0.99961478 
   23700     221.2002    429.30962    125174.39   -39903.741     2752.151   -42655.892    80.220526    0.9977559 
   23800    224.34586    329.32645    125062.68   -39971.334     2791.289   -42762.623    80.324681   0.99864716 
   23900    225.43487    448.63445    125198.25   -39988.043    2804.8384   -42792.882    80.704508    0.9975658 
   24000    226.25232    541.57249    125382.37   -39908.406    2815.0091   -42723.415    80.928086   0.99610087 
   24100    225.38504    523.01175    125473.87   -39904.379    2804.2184   -42708.598    81.051193   0.99537448 
   24200    221.83794    594.23124     125583.2   -39965.925    2760.0857   -42726.011    81.392019   0.99450795 
   24300    224.86072     731.7165    125812.88   -39933.423    2797.6949   -42731.118    81.746799   0.99269241 
   24400    221.74352    537.35003    125854.09   -39995.824     2758.911   -42754.735    82.051367   0.99236733 
   24500    225.30723    457.30075     125914.5     -39957.7    2803.2503    -42760.95    82.304259   0.99189125 
   24600    225.46842    544.19196    125938.28    -39949.04    2805.2558   -42754.296    82.510475   0.99170398 
   24700    220.71121     627.5316    125771.11   -39973.935     2746.067   -42720.002    82.772878   0.99302207 
   24800    225.22337    354.80477    125861.61    -39978.52    2802.2069   -42780.727    82.892712   0.99230808 
   24900    227.36632    501.84827    125978.59   -39918.839    2828.8693   -42747.708    83.317447   0.99138662 
   25000    224.91938    438.47465    125856.22   -39892.627    2798.4247   -42691.052     83.34095   0.99235054 
   25100    226.05519    259.07161    125807.62   -39898.628    2812.5564   -42711.184    83.531859   0.99273391 
   25200    221.83308    434.32304    125580.64    -39932.93    2760.0253   -42692.955    83.701544   0.99452824 
   25300    225.79998    402.07473     125333.2   -39948.024     2809.381   -42757.406    83.813021   0.99649169 
   25400    228.47702    543.62201    125325.48   -39935.162    2842.6885   -42777.851    84.288243   0.99655306 
   25500    227.55624    494.73566    125333.18   -39892.091    2831.2322   -42723.323    84.804789   0.99649188 
   25600    219.64018    516.66372    125310.99   -39969.953    2732.7414   -42702.694    85.347418   0.99666826 
   25700    223.97309    635.64033    125205.71    -39973.02    2786.6511   -42759.671    85.322511   0.99750632 
   25800    222.26078    483.20817    125494.61   -39936.763    2765.3466   -42702.109    85.750388      0.99521 
   25900    227.68202    484.11726    125500.84   -39878.535    2832.7972   -42711.332    86.033046   0.99516064 
   26000    224.87821    338.32916    125432.41   -39810.345    2797.9125   -42608.257    85.959123   0.99570353 
   26100    226.48085    540.36224    125387.78   -39902.785    2817.8524   -42720.637    85.981595   0.99605789 
   26200    223.59218    669.81513    125637.32   -39905.795    2781.9118   -42687.706    86.596042   0.99407953 
   26300    226.67381    337.87345     125744.6   -39888.369    2820.2531   -42708.622    87.203961   0.99323143 
   26400    227.22566    412.79672    125759.88   -39886.284    2827.1192   -42713.403    87.567127    0.9931108 
   26500    230.75342    668.29385    125779.34    -39947.18    2871.0112   -42818.192    87.806908   0.99295711 
   26600    223.76939    685.73134    126033.24   -40006.055    2784.1166   -42790.172    88.248238   0.99095673 
   26700    221.55367    600.03402    126038.58   -40035.415    2756.5489   -42791.964    88.705185   0.99091474 
   26800    224.59358    530.81152    126143.72   -39981.978    2794.3711   -42776.349    89.112699   0.99008884 
   26900    231.65094    398.17763    126271.83   -39993.599    2882.1781   -42875.777    89.386599   0.98908432 
   27000    224.16289    308.57155    125975.44   -40033.589    2789.0125   -42822.601    89.395961   0.99141144 
   27100    223.04814    563.11344    125824.43   -40036.148    2775.1429   -42811.291    89.647316   0.99260125 
   27200    223.60891    378.91823    125861.46    -40042.71    2782.1199    -42824.83    90.065091   0.99230929 
   27300    223.38155    562.77698    125744.41   -40071.731    2779.2912   -42851.022    90.274208   0.99323295 
   27400    226.13435    362.86868     125807.7   -40009.949    2813.5412   -42823.491    90.876395   0.99273331 
   27500    223.91163    575.39687    125793.19   -39953.237    2785.8864   -42739.124    91.257214    0.9928478 
   27600    224.11756    594.72887    126002.64   -39982.006    2788.4485   -42770.455    91.705892   0.99119742 
   27700    227.00667    364.20622    125791.43   -39977.146    2824.3945   -42801.541    92.020501    0.9928617 
   27800    228.69463    538.16957    125984.84   -39920.067     2845.396   -42765.463    92.328738   0.99133749 
   27900    229.94487    719.16922    126083.75   -39941.928    2860.9514   -42802.879    92.635905   0.99055976 
   28000    223.50332     561.4762    125901.97    -39977.19    2780.8062   -42757.996    92.894401   0.99198994 
   28100    226.49146    420.48002    125820.28   -39952.545    2817.9844    -42770.53    93.278947   0.99263406 
   28200    225.97078    410.55174    125898.49   -39994.763    2811.5061   -42806.269    93.775289   0.99201741 
   28300    225.58627    527.88161    125833.44   -39978.031    2806.7221   -42784.753    93.629284    0.9925302 
   28400    219.95424    515.62749    125875.23   -40030.116    2736.6489   -42766.765    94.197044   0.99220066 
   28500    219.99067    567.57411    126134.03   -40047.249    2737.1022   -42784.351     94.62506   0.99016491 
   28600      223.501    532.52896    126190.88   -40003.933    2780.7773   -42784.711    94.898303   0.98971885 
   28700    224.04762    374.04815     126084.3    -40018.22    2787.5784   -42805.798    94.956086   0.99055548 
   28800    227.46307    363.03623    126074.19   -39966.673     2830.073   -42796.746    95.002562   0.99063487 
   28900     225.5956    425.47814     125925.4   -39921.513    2806.8382   -42728.351    94.839026   0.99180543 
   29000    222.22552    491.81643     125579.1   -39994.821     2764.908   -42759.729    95.090044    0.9945404 
   29100    229.18917    416.14791    125594.43   -39925.056     2851.549   -42776.605    95.315964   0.99441904 
   29200    228.69338    593.96323    125766.45   -39886.686    2845.3804   -42732.066    95.786228   0.99305886 
   29300    223.73151    529.72398    125541.92   -39936.984    2783.6453   -42720.629     96.00809   0.99483494 
   29400    222.43055     615.8318    125580.47   -39988.062    2767.4589   -42755.521    96.646519   0.99452956 
   29500    223.03307    547.57111    125775.57   -40027.706    2774.9554   -42802.662    96.921842   0.99298687 
   29600    228.46285    497.21275    125695.21    -39928.59    2842.5122   -42771.102    97.230542   0.99362175 
   29700    220.78388    712.43834    125818.13   -39985.968    2746.9712   -42732.939    97.413389   0.99265101 
   29800     221.9594    541.48962    125846.35   -39973.274    2761.5969   -42734.871    97.767806   0.99242836 
   29900    221.76456    551.87974    125661.72   -39998.941    2759.1727   -42758.113    98.081144   0.99388655 
   30000    221.21859    364.74048    125556.67   -39973.497    2752.3799   -42725.877    98.759987   0.99471809 
   30100    227.29621    487.09817    125546.22   -39977.453     2827.997   -42805.451    98.848106    0.9948009 
   30200    222.21009    394.21694    125512.86   -39995.139     2764.716   -42759.855    99.041562   0.99506528 
   30300    226.22168    616.97904    125591.88   -39973.785    2814.6278   -42788.413    99.509343   0.99443918 
   30400    225.93989    541.16094    125635.95   -39966.042    2811.1217   -42777.163    100.08715   0.99409038 
   30500    227.42138    643.85367    125703.33   -39965.188    2829.5543   -42794.743    100.57254   0.99355751 
   30600    227.57388    356.13978    125635.46   -39954.337    2831.4517   -42785.789    101.01601   0.99409427 
   30700     222.5818     591.0699    125725.99   -39969.612    2769.3407   -42738.953    101.22075   0.99337849 
   30800    228.34499    572.20733     125660.1   -39908.599    2841.0457   -42749.645    101.57987   0.99389931 
   30900    221.91049     527.4627    125652.85   -40030.839    2760.9884   -42791.827    102.12736   0.99395672 
   31000    220.84505     541.0764    125651.91   -40070.589    2747.7323   -42818.322    102.29139   0.99396417 
   31100    222.23323    549.89668    125672.34   -40049.394    2765.0039   -42814.398    102.41179   0.99380254 
   31200    221.26989    526.81195    125582.06   -40051.666    2753.0181   -42804.684    102.73173   0.99451699 
   31300    226.49245    677.93218     125518.2   -40010.552    2817.9967   -42828.548    103.15668     0.995023 
   31400    224.23935    442.82242     125473.2   -39962.279    2789.9638   -42752.243    103.98449   0.99537984 
   31500    221.80554    447.09586    125413.67   -40001.921    2759.6826   -42761.604    104.53192   0.99585228 
   31600    227.18036    567.46813    125375.82   -39923.269    2826.5555   -42749.824    104.86682   0.99615291 
   31700    222.41739    504.91498    125511.75   -39935.063    2767.2952   -42702.359     104.7713   0.99507413 
   31800    227.87605    373.48711    125488.68   -39848.048    2835.2113    -42683.26     104.8346   0.99525703 
   31900    228.63574    666.04508    125513.92   -39844.899    2844.6633   -42689.563    104.94366   0.99505692 
   32000    225.96602    427.54074    125615.47   -39840.617    2811.4469   -42652.064    104.99896   0.99425244 
   32100    223.28002    295.77579    125550.64   -39868.367    2778.0279   -42646.395    105.32945    0.9947659 
   32200    223.07654      418.522    125659.79   -39872.263    2775.4962    -42647.76    105.35743   0.99390183 
   32300    228.19722    454.73884    125640.44   -39845.081    2839.2073   -42684.289    105.24666    0.9940549 
   32400    225.13857    400.95235    125690.33   -39913.934    2801.1518   -42715.086    105.73159   0.99366033 
   32500    219.88809     366.2253    125433.37   -39915.189    2735.8259   -42651.015    106.23049   0.99569591 
   32600    226.97269    474.34514    125376.17   -39857.611    2823.9718   -42681.583    106.24827   0.99615015 
   32700    227.20452    559.77012    125504.61    -39936.39    2826.8562   -42763.246    106.74769   0.99513067 
   32800    223.88201    514.07733    125595.12   -39985.237    2785.5179   -42770.755    107.19176    0.9944136 
   32900    227.80694    357.68699    125659.92   -39997.011    2834.3514   -42831.362    107.47103   0.99390078 
   33000    223.63874    373.93518    125665.12   -40066.788    2782.4911   -42849.279    107.79948   0.99385964 
   33100    227.20754    607.24191    125843.83   -40005.593    2826.8938   -42832.486    108.23146   0.99244826 
   33200      223.367    356.30622    126012.26   -40074.764    2779.1101   -42853.874    108.78994   0.99112171 
   33300    224.72247    618.28164    126069.74   -40014.455    2795.9747   -42810.429    109.46488   0.99066986 
   33400    223.48512    492.63878     125932.3   -40095.268    2780.5797   -42875.848    109.65611   0.99175104 
   33500     225.6635    726.50199    126105.34   -40068.412     2807.683   -42876.095    109.97716   0.99039016 
   33600      222.098    204.19743    125923.28   -40037.774    2763.3214   -42801.096    110.02291   0.99182208 
   33700    222.60923    292.09489    125649.97   -40026.356    2769.6821   -42796.038    109.93327   0.99397944 
   33800    224.29875    578.08133    125606.61   -40013.721    2790.7029   -42804.424    110.02664   0.99432259 
   33900    224.20001    366.52551    125654.89   -40012.883    2789.4744   -42802.358    110.14158   0.99394057 
   34000    227.22022    356.95697    125300.19   -39971.903    2827.0515   -42798.954    110.24778   0.99675419 
   34100    224.31282    689.54132    125268.52   -40000.061     2790.878   -42790.939     110.5341   0.99700623 
   34200    220.01969    347.79149    125337.86    -39979.76    2737.4633   -42717.223    110.79297   0.99645465 
   34300    223.87503    495.73688    125296.94   -40035.912     2785.431   -42821.343    110.90565   0.99678008 
   34400     226.8779    449.34027    125328.22   -39963.505    2822.7924   -42786.297    111.16203   0.99653126 
   34500    229.08645    470.05473    125266.17   -39985.382     2850.271   -42835.653    111.76075   0.99702492 
   34600    229.35821    674.84721     125335.3   -39983.143    2853.6522   -42836.795    111.98856   0.99647501 
   34700    221.92687    648.44443    125393.44   -40069.041    2761.1922   -42830.233    112.25117   0.99601293 
   34800     223.3247    397.07953    125229.19   -40063.224    2778.5839   -42841.808    112.26817   0.99731931 
   34900    222.39423    303.57665    125071.43   -40081.049    2767.0071   -42848.056      112.511   0.99857727 
   35000    218.49682    406.46676    124925.59   -40160.816    2718.5159   -42879.331    112.73704    0.9997431 
   35100    224.79478     598.7869    125098.12   -40093.904    2796.8744   -42890.778    113.07862   0.99836423 
   35200    221.66929    710.07986    125185.04   -40087.349    2757.9874   -42845.337    113.89482   0.99767103 
   35300    223.78754    600.30901    125275.51   -40050.473    2784.3425   -42834.815    114.20292   0.99695055 
   35400    220.63407    382.38209    125162.82   -40069.907    2745.1072   -42815.014    114.34315    0.9978482 
   35500     224.3903    451.96807    125391.42   -39963.085    2791.8419   -42754.927    114.99925   0.99602902 
   35600    219.18902    645.53867    125288.38   -39995.802    2727.1281    -42722.93    115.35977   0.99684818 
   35700     222.2633     659.7526    125014.58     -39937.5     2765.378   -42702.878    115.38968   0.99903139 
   35800    223.96863    653.14328    125213.41   -39962.757    2786.5955   -42749.352    115.77864   0.99744504 
   35900    224.89291     571.9284    125277.88   -39898.635    2798.0953    -42696.73    116.28606   0.99693174 
   36000    223.87341    530.31314    125313.05   -39869.405    2785.4108   -42654.816    116.52588   0.99665193 
   36100    227.17289    343.75565    125425.79   -39876.968    2826.4626    -42703.43    116.86391   0.99575604 
   36200    226.38989     326.8307    125371.07   -39894.783    2816.7206   -42711.503    117.32347    0.9961907 
   36300     220.7099    592.94427    125258.01   -39937.882    2746.0507   -42683.933    117.42821   0.99708987 
   36400    225.65524    636.33066    125218.98   -39867.071    2807.5802   -42674.651    117.83511   0.99740061 
   36500    222.62705    657.73251    125210.61   -39839.488    2769.9037   -42609.392    118.22123   0.99746732 
   36600    219.42774    392.32306    125182.98   -39956.168    2730.0982   -42686.267    118.39106   0.99768747 
   36700    227.05887    398.00528    125228.83   -39884.793     2825.044   -42709.837    118.79889    0.9973222 
   36800    227.44038    535.87662    125178.49   -39877.969    2829.7907   -42707.759    119.05304   0.99772323 
   36900    226.02367    489.55171    125324.69   -39910.482    2812.1641   -42722.646    119.53756   0.99655932 
   37000    224.20158    462.44397    125408.45   -39859.292    2789.4939   -42648.785    119.74046   0.99589372 
   37100    227.19721    647.62816    125602.93   -39855.787    2826.7652   -42682.552    120.41561   0.99435172 
   37200    223.75352     456.7305    125356.48   -39909.574    2783.9191   -42693.493    120.61589   0.99630664 
   37300    220.95756    461.65906     125345.1   -39926.898    2749.1322   -42676.031    120.66806   0.99639707 
   37400    224.06089    432.82373    125182.69   -39950.189    2787.7435   -42737.932    120.91199   0.99768975 
   37500      222.745    620.74172    125339.17   -39956.125    2771.3713   -42727.496     121.1259   0.99644419 
   37600     229.4712    511.51022    125630.23    -39919.59    2855.0579   -42774.648     121.4328   0.99413568 
   37700    224.44699    642.35228    125646.08   -39941.324    2792.5472   -42733.871    121.60318   0.99401024 
   37800    221.92404     608.6376    125553.98   -40038.434     2761.157   -42799.591    121.90556   0.99473937 
   37900     221.0239    500.67205    125471.49   -39998.548    2749.9575   -42748.505    122.54461   0.99539335 
   38000    223.45906    638.00732    125558.62    -39975.21    2780.2555   -42755.466     122.9736   0.99470264 
   38100    225.67769     402.6911    125594.74   -39935.972    2807.8595   -42743.832    123.32319   0.99441661 
   38200     226.6209    595.12881    125608.27   -39965.448    2819.5948   -42785.042     124.1194   0.99430945 
   38300    223.05644     673.7967    125854.97    -39910.67    2775.2462   -42685.916    124.62281    0.9923604 
   38400    222.81314    438.06767    125930.21    -39973.79    2772.2191    -42746.01    124.95872   0.99176752 
   38500     223.6578    459.76873    125949.37   -39995.459    2782.7282   -42778.188    125.13808   0.99161662 
   38600    221.23859    441.42526    125784.65    -39952.18    2752.6287   -42704.809    125.15341   0.99291524 
   38700    223.70258    607.11892    125973.62   -39946.669    2783.2854   -42729.955    125.87509   0.99142574 
   38800    223.93852    583.05526    125968.51   -39972.578    2786.2209   -42758.799     125.7619   0.99146594 
   38900    226.05665    223.76227    125859.69    -39926.13    2812.5745   -42738.704    125.89896   0.99232318 
   39000    223.20559    620.69313    125962.96   -39976.373    2777.1019   -42753.475    126.26284   0.99150962 
   39100    226.04562    576.11841    125934.48   -39946.408    2812.4372   -42758.845    127.10763   0.99173385 
   39200    224.28879    410.24763    125769.25   -39969.616    2790.5789   -42760.195    127.22389   0.99303675 
   39300    220.77456    561.13122    125735.54   -39954.819    2746.8552   -42701.674    127.34877   0.99330305 
   39400     227.2944    676.52385    125800.96   -39911.009    2827.9744   -42738.983    127.33141   0.99278647 
   39500    226.04711    541.05848       126006   -39896.164    2812.4558    -42708.62    127.64392   0.99117098 
   39600    227.07526    569.63474    126011.25     -39943.7    2825.2479   -42768.948    127.90311   0.99112969 
   39700    222.96218    526.71589    126163.89   -39903.838    2774.0734   -42677.912    128.40028   0.98993056 
   39800    224.93791    623.41877    126201.26   -39966.805    2798.6553    -42765.46    128.94877    0.9896374 
   39900    223.31337    466.44229    125881.99    -40007.37    2778.4429   -42785.813    128.81029   0.99214738 
   40000    219.99244    526.71342    126090.89   -40042.203    2737.1242   -42779.327    129.54771   0.99050372 
   40100    225.14945    282.20319     126002.1   -39932.175    2801.2871   -42733.462    129.71288   0.99120168 
   40200    223.05357    386.78491    125923.26   -39970.171    2775.2105   -42745.382    130.29282   0.99182222 
   40300    224.93003    425.78695    126115.32   -39942.476    2798.5572   -42741.033     131.0177   0.99031182 
   40400    227.70459    522.16098     126203.2   -39835.636     2833.078   -42668.714    131.60915   0.98962221 
   40500    226.00147     431.8672    126199.55   -39856.996     2811.888   -42668.884    131.73329   0.98965082 
   40600    224.01511    473.02148    126002.03   -39893.574    2787.1738   -42680.748    131.77403   0.99120221 
   40700    218.52429    360.50582    125812.53   -39926.563    2718.8576   -42645.421    132.16541   0.99269516 
   40800    221.72154    311.23701    125664.31   -39965.232    2758.6374   -42723.869    132.31896   0.99386605 
   40900    222.69676    462.14921    125772.56   -39974.912    2770.7711   -42745.683    132.42557   0.99301065 
   41000    225.21141    697.97336     125657.4   -39892.596    2802.0581   -42694.655     133.1374   0.99392069 
   41100    227.10323    526.45764    125859.15   -39873.307     2825.596   -42698.903    133.55389   0.99232745 
   41200    223.16167    569.27182    126035.74   -39890.346    2776.5554   -42666.902    134.28277    0.9909371 
   41300    221.84362    454.81852    125967.59   -40055.325    2760.1565   -42815.482    134.65585   0.99147324 
   41400    221.80867     437.7981    126081.96   -40008.268    2759.7215    -42767.99    135.17365   0.99057382 
   41500    220.62743    439.74232    125923.35   -40028.208    2745.0247   -42773.232    135.31385   0.99182152 
   41600     221.6107    616.74189    125937.63   -39998.158    2757.2584   -42755.416     135.6649   0.99170905 
   41700    226.08219    346.94846    125958.99   -39983.566    2812.8923   -42796.459    135.97247   0.99154091 
   41800    223.96539    428.66945    125924.17   -40004.867    2786.5553   -42791.422    135.97532   0.99181512 
   41900    223.91356    549.45244    125945.82   -39976.907    2785.9103   -42762.817    136.10108   0.99164462 
   42000    225.50217    561.45732    126060.23   -39964.933    2805.6758   -42770.609    136.34464   0.99074458 
   42100    226.50454     536.0415    126058.41   -39972.013    2818.1471    -42790.16    136.65322   0.99075892 
   42200    230.35996    490.78497    125859.76   -39928.273    2866.1159   -42794.389    136.69035   0.99232263 
   42300    225.80385    436.93859    125786.08   -39909.991    2809.4291    -42719.42    136.87097   0.99290394 
   42400    226.41802     388.6101     125394.3   -39954.156    2817.0706   -42771.226    137.03345   0.99600614 
   42500    223.33317    500.62504    125431.25   -39953.996    2778.6893   -42732.685    137.25031   0.99571275 
   42600    224.79502    444.15254    125329.38   -39943.281    2796.8775   -42740.159    137.62076   0.99652202 
   42700     225.9273    427.96593    125385.43   -39930.581    2810.9651   -42741.546    137.90821    0.9960766 
   42800    225.17295    616.55708    125584.64   -39865.457    2801.5796   -42667.037    138.20417   0.99449657 
   42900    223.60771    604.72144    125300.49   -39941.413    2782.1051   -42723.518    137.94115   0.99675179 
   43000    222.91908    641.99343    125385.98   -39963.409    2773.5371   -42736.946    138.19811    0.9960722 
   43100    225.29797    441.21504    125452.21   -39931.011    2803.1351   -42734.146    138.91058    0.9955464 
   43200    223.05414    480.15684    125280.35   -39885.773    2775.2175    -42660.99    139.32376   0.99691208 
   43300    227.98377    677.91101    125306.43   -39889.251    2836.5516   -42725.803    139.81752   0.99670455 
   43400    224.96791    444.23901    125423.22   -39829.336    2799.0285   -42628.365     140.3564   0.99577648 
   43500    228.85949     428.7237    125117.69   -39823.966    2847.4471   -42671.413    140.53219    0.9982081 
   43600    226.82155     845.2482    125310.08   -39727.111    2822.0912   -42549.203    140.90879   0.99667551 
   43700    226.34236    481.77093    125178.65   -39732.997    2816.1293   -42549.126    141.34912   0.99772196 
   43800    226.26489    350.06579    125025.72   -39720.621    2815.1654   -42535.786    141.53029   0.99894242 
   43900    225.13892    686.17679    124890.51   -39753.449    2801.1562   -42554.605    141.92824    1.0000239 
   44000    224.54692    424.04655    124887.67   -39789.931    2793.7906   -42583.721    142.45585    1.0000466 
   44100    229.33288    455.80928    124837.92   -39815.754    2853.3371   -42669.091    143.13264    1.0004452 
   44200    221.39771    653.11513    124941.01    -39849.91    2754.6084   -42604.518    143.51472    0.9996197 
   44300    221.58311    444.86753    124890.41   -39853.662    2756.9152   -42610.577    143.73349    1.0000247 
   44400     224.3022    644.60265    125047.38   -39813.662    2790.7458   -42604.408    144.09347   0.99876937 
   44500     223.4706    545.62415    125068.35   -39836.236    2780.3991   -42616.635    144.24139   0.99860191 
   44600    222.51462    360.37336    125165.36   -39910.737    2768.5049   -42679.241     144.5773   0.99782795 
   44700    220.57523    666.32251    125442.21   -39893.564    2744.3753   -42637.939     145.4335   0.99562573 
   44800    225.43408    526.13304    125359.14   -39882.048    2804.8286   -42686.876    145.56585   0.99628546 
   44900    225.67859    497.58566       125519    -39830.34    2807.8707    -42638.21    146.09276   0.99501666 
   45000    225.62968    635.43344     125556.9   -39832.125    2807.2621   -42639.387    146.29997   0.99471629 
   45100    226.59593    240.50156    125376.74   -39780.902    2819.2841   -42600.186    146.44261   0.99614563 
   45200    226.59499    504.86438    125312.52   -39846.171    2819.2725   -42665.443    146.71354   0.99665616 
   45300    229.44089    388.71353    125252.24   -39869.887    2854.6809   -42724.568    146.75052   0.99713583 
   45400    228.58422     515.1652    125386.54   -39851.881    2844.0222   -42695.903    147.04508    0.9960678 
   45500    224.67293    473.18525    125253.88   -39853.329    2795.3584   -42648.687    147.52087   0.99712274 
   45600     230.1146    620.45762    125151.65   -39857.873    2863.0631   -42720.936    147.56389   0.99793721 
   45700    227.51533    484.38132     125156.6   -39889.414    2830.7232   -42720.137    147.66086   0.99789774 
   45800    223.71965     477.3988    125253.78   -39834.617    2783.4978   -42618.115    148.02604   0.99712355 
   45900    229.40164    294.77609    125339.77   -39763.919    2854.1925   -42618.111    148.31947   0.99643944 
   46000      228.982    425.86699    125276.35   -39733.915    2848.9714   -42582.886    148.63472    0.9969439 
   46100    231.38647    299.02723    124980.92   -39678.028    2878.8876   -42556.916    148.96461   0.99930047 
   46200    229.95038    311.36246    124937.88   -39667.038    2861.0199   -42528.058    149.20472   0.99964468 
   46300      227.927    711.82385    124707.54   -39694.795    2835.8452    -42530.64    149.21642    1.0014911 
   46400    228.96704    655.50733    125006.76   -39727.152    2848.7853   -42575.937    149.50977   0.99909392 
   46500    228.51037    400.35051     124948.6   -39721.977    2843.1035    -42565.08    149.85644   0.99955891 
   46600     228.6653    507.22289    124829.83   -39725.011    2845.0311   -42570.042    149.86409      1.00051 
   46700    223.86597    240.57196    124773.31   -39803.579    2785.3182   -42588.898    149.86011    1.0009632 
   46800    226.28655    588.98201    124964.13   -39846.188    2815.4349   -42661.623    151.04616   0.99943472 
   46900    223.64017    659.72405    124794.08   -39762.343    2782.5089   -42544.852    151.29234    1.0007966 
   47000    227.05503    520.01967    124713.17    -39755.85    2824.9963   -42580.846    151.56793    1.0014459 
   47100    226.63337    456.98966    124854.83   -39738.573      2819.75   -42558.323     152.4785    1.0003097 
   47200    224.73617    551.55887    124820.63   -39800.895    2796.1452    -42597.04    153.03734    1.0005838 
   47300    230.00655    482.91376    124582.33   -39842.777    2861.7187   -42704.495    153.08517    1.0024976 
   47400    228.09678    282.91463    124750.95   -39800.204    2837.9576   -42638.162    153.56395    1.0011426 
   47500     229.3015     666.9165    125008.38   -39740.708    2852.9466   -42593.655    154.34462   0.99908096 
   47600    225.82086    730.34235    125202.28   -39697.462    2809.6408   -42507.103    154.80443    0.9975337 
   47700    230.38998    582.44397    125065.75   -39737.148    2866.4894   -42603.638    154.93123   0.99862264 
   47800    225.81588    643.24745    125224.93    -39736.93    2809.5788   -42546.509    155.47224   0.99735324 
   47900     222.7579    487.28393    125437.29   -39826.273    2771.5318   -42597.804    155.87561   0.99566479 
   48000    225.39932    461.80827    125173.04    -39863.62    2804.3961   -42668.016    156.13952   0.99776667 
   48100    222.95276    578.58215    125435.74   -39829.326    2773.9562   -42603.283    156.65345   0.99567704 
   48200     226.9397    263.73875    125327.25    -39857.46    2823.5613   -42681.021    156.93811   0.99653899 
   48300    225.15396    409.89024    125315.94   -39844.316    2801.3434   -42645.659    157.23391   0.99662894 
   48400    231.52471    547.78437    125123.49   -39784.008    2880.6075   -42664.615    157.51545   0.99816179 
   48500    226.44792    268.36261    125268.88   -39858.769    2817.4426   -42676.212    158.58654   0.99700331 
   48600    221.97638    476.36666     125418.4   -39857.971    2761.8082   -42619.779    158.86515   0.99581471 
   48700    226.48268    688.79071    125266.74   -39834.714    2817.8752   -42652.589     158.9742   0.99702035 
   48800    226.87379    325.35927    125295.92   -39876.682    2822.7413   -42699.423    159.22638   0.99678821 
   48900    225.86516    502.13224    125205.01   -39879.819    2810.1921   -42690.011    159.25643   0.99751189 
   49000    225.09197    708.44477    125310.44   -39918.899     2800.572   -42719.471    159.70535   0.99667268 
   49100    222.69148    535.59786    125293.98   -39925.657    2770.7054   -42696.363    160.13063    0.9968036 
   49200    223.40133    642.21335    125400.97   -39947.572    2779.5373    -42727.11    160.43928   0.99595314 
   49300    224.84485    490.23649    125709.24   -39897.882    2797.4974    -42695.38     160.7958   0.99351086 
   49400     226.4423    619.23573    125962.94   -39887.373    2817.3727   -42704.746    161.84263   0.99150979 
   49500    227.32423    548.36245    126013.38   -39912.924    2828.3455   -42741.269    162.36722   0.99111292 
   49600    225.10342    364.24982    125921.35   -39934.014    2800.7145   -42734.729    162.57662   0.99183729 
   49700    222.08579    488.42688    125945.72   -39944.188    2763.1695   -42707.358    163.23586   0.99164538 
   49800    222.55341    446.16778    125869.41     -39984.9    2768.9875   -42753.887    163.76162   0.99224655 
   49900    228.35461    378.78151    125838.41   -39868.511    2841.1655   -42709.676    164.12586     0.992491 
   50000    225.00689    461.33584    125691.81   -39889.562    2799.5135   -42689.076    164.50688   0.99364859 
   50100    222.64577    563.61172    125618.27   -39885.794    2770.1367   -42655.931    164.94527   0.99423031 
   50200    226.07631    443.82586    125669.46   -39933.694    2812.8192   -42746.513    164.82168   0.99382529 
   50300    226.00312    553.41784    125446.25    -39891.74    2811.9085   -42703.648    164.66599   0.99559364 
   50400    224.86159    472.94447    125455.61   -39915.847    2797.7056   -42713.553    165.00573   0.99551939 
   50500     222.9499    534.39657    125480.81    -39958.02    2773.9206    -42731.94      165.167   0.99531944 
   50600    223.00855    355.72935    125533.24   -39988.538    2774.6503   -42763.189    165.61354   0.99490372 
   50700    221.54298    318.12667    125501.64   -39991.757    2756.4158   -42748.173    165.98617   0.99515423 
   50800    223.82122    567.05086    125396.04   -39978.715    2784.7615   -42763.476    166.50567    0.9959923 
   50900    226.10378    428.64885    125309.41   -39882.961    2813.1609   -42696.122    166.51941   0.99668083 
   51000    224.67902     682.6739    125339.14   -39912.319    2795.4341   -42707.753    166.43294   0.99644444 
   51100    223.21703    474.92308    125315.12   -39955.169    2777.2443   -42732.413     166.5005   0.99663547 
   51200    225.65466    459.08427    125407.96   -39947.314     2807.573   -42754.887    167.23388   0.99589766 
   51300    221.83156    336.25822    125314.31   -40011.847    2760.0064   -42771.853    167.80698    0.9966419 
   51400    220.96539     409.6871     125318.9   -40003.427    2749.2296   -42752.657    167.90642   0.99660536 
   51500    220.91967    644.23836    125326.85   -39992.375    2748.6607   -42741.036    168.48567   0.99654217 
   51600    223.05976    251.27592    125297.05   -39925.844    2775.2875   -42701.131    168.72212   0.99677918 
   51700    226.74739    325.29635    125134.15   -39917.797    2821.1686   -42738.965    169.16072   0.99807676 
   51800    223.75642    511.46423    124963.51   -39962.759    2783.9553   -42746.714    169.35572   0.99943968 
   51900    224.05123    587.54776    125035.96   -40004.162    2787.6233   -42791.786    169.81427   0.99886056 
   52000    224.57448    585.97835     125162.5   -40035.178    2794.1335   -42829.312    170.01108   0.99785068 
   52100    220.94798    546.65627    125249.39   -39980.158    2749.0129   -42729.171    170.27286   0.99715847 
   52200    221.75641    554.84978    125196.75   -39982.935    2759.0714   -42742.007    170.58664   0.99757776 
   52300    224.21474    512.88499     125331.2   -39975.948    2789.6577   -42765.606    170.91659   0.99650759 
   52400    224.71099    512.64219    125310.41   -39918.451    2795.8319   -42714.283    171.18353   0.99667294 
   52500    227.74806    574.73198    125137.71   -39911.562    2833.6188   -42745.181    171.50486   0.99804839 
   52600    225.23911    550.18437    125278.94   -39935.184    2802.4028   -42737.587    171.99045   0.99692328 
   52700    222.60494      595.232     125314.2   -39946.368    2769.6286   -42715.996    172.06179   0.99664279 
   52800    224.20789    621.87242    125484.97    -39890.41    2789.5724   -42679.983    172.19356   0.99528649 
   52900    224.86738    666.69579    125603.01   -39875.913    2797.7777    -42673.69    173.07314   0.99435109 
   53000    228.03368    564.27476    125843.68   -39857.416    2837.1725   -42694.588     173.8472   0.99244947 
   53100    223.87626    313.94183    125927.73   -39889.863    2785.4463   -42675.309    174.73905   0.99178707 
   53200    227.85757    526.04352     125744.9   -39880.465    2834.9814   -42715.446    175.21769   0.99322905 
   53300    225.71707    570.80915    125731.35   -39896.928    2808.3495   -42705.278     175.1968   0.99333611 
   53400    219.80915    498.93082    125808.03    -39966.46    2734.8437   -42701.303    175.68459   0.99273066 
   53500    225.24261     483.8591    125599.97   -39986.129    2802.4463   -42788.576    175.34929   0.99437518 
   53600    223.84491    619.01635    125649.47   -39987.026    2785.0562   -42772.082    175.71774    0.9939834 
   53700    221.89325    470.25633    125656.42   -40012.257    2760.7739   -42773.031    176.19605   0.99392847 
   53800    226.19747    731.74299    125848.56    -39902.77    2814.3266   -42717.096    176.47334     0.992411 
   53900    225.87018    475.78364    125920.04     -39963.5    2810.2544   -42773.755    176.98531   0.99184761 
   54000    223.02146    390.20881    125820.82   -39947.951    2774.8109   -42722.762    177.17817   0.99262975 
   54100    224.21484    346.81085    125548.51    -39966.67    2789.6589   -42756.329    177.22505   0.99478277 
   54200    222.83785    485.75454    125630.82   -39955.455    2772.5265   -42727.982    177.50922   0.99413099 
   54300    229.69882    641.48415    125670.51   -39942.741      2857.89   -42800.631    178.04995     0.993817 
   54400    225.60986    706.05007    125575.61   -39970.761    2807.0155   -42777.776    177.99397   0.99456806 
   54500    221.91081    443.17202    125379.01   -39939.868    2760.9923    -42700.86    178.18552   0.99612762 
   54600    228.73331    547.21277    125229.76   -39834.247    2845.8773   -42680.124    178.58332   0.99731479 
   54700    227.82808    541.29482    125308.84   -39830.801    2834.6144   -42665.415    179.06138   0.99668544 
   54800    224.45664    278.82118    125441.74   -39897.691    2792.6673   -42690.359    179.48674   0.99562944 
   54900    224.35455    632.51526    125375.72   -39940.556    2791.3971   -42731.953    179.60154   0.99615372 
   55000    220.57867    438.28571    125237.91   -39992.741     2744.418   -42737.159    179.18331   0.99724989 
   55100     225.5875    387.28972    125246.88   -39959.567    2806.7374   -42766.304    179.72118   0.99717843 
   55200    224.13777    396.72632    125423.72   -39975.935       2788.7   -42764.635     180.2603   0.99577253 
   55300    228.86111    600.41884    125460.99   -39936.568    2847.4673   -42784.036    180.47966    0.9954767 
   55400    230.31009    523.94468    125325.28   -39921.692    2865.4954   -42787.188    181.06278   0.99655468 
   55500    228.73846    512.01711    125392.38   -39873.127    2845.9413   -42719.068    181.60667    0.9960214 
   55600    223.96791    529.21179     125285.5   -39925.679    2786.5866   -42712.265      181.811    0.9968711 
   55700     223.5925    498.48083    125306.41   -39922.614    2781.9157    -42704.53    182.00054   0.99670474 
   55800    223.82099    483.79636    125182.67   -39912.668    2784.7586   -42697.426    182.29475   0.99768991 
   55900    227.54097    388.65876    125154.66   -39862.915    2831.0422   -42693.957    182.83836   0.99791321 
   56000    225.69395    418.66351    125165.08   -39854.744    2808.0619   -42662.806    183.10822   0.99783015 
   56100    227.50408    598.73259    125298.08    -39824.35    2830.5833   -42654.933     183.9119     0.996771 
   56200    228.93865    333.79324    125567.29   -39838.131    2848.4321   -42686.563    184.58847   0.99463397 
   56300    226.57985    394.84659    125292.33   -39860.517    2819.0841   -42679.601    184.55038    0.9968167 
   56400    223.11536    471.06214    125492.01   -39862.113    2775.9792   -42638.093    184.84541   0.99523061 
   56500    221.88156    598.14904     125431.5   -39955.043    2760.6285   -42715.672    184.97994   0.99571077 
   56600     222.2095     333.6266    125482.53   -39967.133    2764.7086   -42731.841    185.26656   0.99530583 
   56700    220.94597    538.79333    125603.96   -40008.367     2748.988   -42757.355    186.02431   0.99434358 
   56800    223.78274    432.39558    125403.18    -39928.97    2784.2828   -42713.252    185.98885   0.99593563 
   56900    221.87451    623.29502    125630.26   -39919.281    2760.5407   -42679.822    186.19331   0.99413544 
   57000    230.23114     403.0632    125511.58   -39850.819     2864.513   -42715.332    186.44648   0.99507542 
   57100    224.31133    358.05844    125390.66   -39898.957    2790.8593   -42689.816    186.48641   0.99603507 
   57200    222.12705    388.96323    125340.76   -39941.169    2763.6828   -42704.852    186.71106   0.99643158 
   57300    221.08367    562.64788    125079.25   -39983.947    2750.7012   -42734.648    186.65101    0.9985149 
   57400    221.28959    580.83738    125254.91   -39973.256    2753.2632   -42726.519    187.08095   0.99711451 
   57500    219.43104    521.90597    125321.43   -40015.416    2730.1393   -42745.555    187.48693   0.99658525 
   57600    219.73064    428.07667    125477.92   -39955.493    2733.8669    -42689.36    188.25456   0.99534242 
   57700    219.56263     429.0846    125213.95   -40009.522    2731.7766   -42741.298    188.72255   0.99744073 
   57800    218.93285    520.03195    125261.93   -40048.409    2723.9408    -42772.35    188.68113   0.99705864 
   57900    220.07373    522.60201    125255.47   -40032.893    2738.1356   -42771.029    188.61742   0.99711008 
   58000    221.17814    450.11215    125265.45   -40038.136    2751.8765   -42790.012    189.39761   0.99703062 
   58100    221.97973    522.75078    125379.65   -39973.318    2761.8499   -42735.168    189.83509   0.99612254 
   58200    225.12536    500.51566    125555.01   -39914.389    2800.9875   -42715.377    190.46845    0.9947312 
   58300    227.97134     591.3961    125474.76   -39869.194    2836.3969   -42705.591    190.56091   0.99536744 
   58400    225.58016    500.95815    125415.96   -39875.967    2806.6461   -42682.613    190.53906   0.99583411 
   58500    230.02698    310.02156    125571.55   -39879.434     2861.973   -42741.407    191.67786    0.9946002 
   58600    226.38755    282.85347    125347.59   -39842.465    2816.6915   -42659.156    192.05648   0.99637727 
   58700    227.80208    590.98263    125324.61   -39854.004     2834.291   -42688.295    192.03008   0.99655994 
   58800    229.09128    448.17522    125541.69   -39902.027    2850.3311   -42752.358    192.55228   0.99483677 
   58900    223.21663    477.63872    125613.54   -39956.662    2777.2393   -42733.901    192.77631   0.99426776 
   59000    225.99089    570.87181    125389.88   -39939.182    2811.7563   -42750.938    192.65714   0.99604124 
   59100    222.71115    569.36637    125343.83   -39940.286    2770.9501   -42711.236    193.09745   0.99640716 
   59200    226.59591    478.25142    125252.63   -39948.761    2819.2839   -42768.044    193.13564   0.99713266 
   59300    222.76441    402.66329     125025.1    -39946.11    2771.6128   -42717.723    193.15809   0.99894734 
   59400    224.62372     568.1876    125043.13   -39992.632    2794.7461   -42787.378    193.29574   0.99880331 
   59500    224.58866     676.2424    125075.72   -39957.436    2794.3099   -42751.746    194.04157   0.99854304 
   59600    222.46066     389.7998     125045.4   -39938.635    2767.8335   -42706.468    193.88888   0.99878515 
   59700    227.13549    588.92935    125347.26   -39976.945    2825.9974   -42802.943    194.22296   0.99637993 
   59800     226.7725    739.90782    125255.08   -40008.029     2821.481    -42829.51    194.72166   0.99711317 
   59900    221.51414    298.00466    125286.37   -39973.683     2756.057    -42729.74    195.23456   0.99686416 
   60000    220.38999    368.83769    125138.25   -40017.132    2742.0705   -42759.202    195.32608   0.99804411 
   60100    226.22146    530.87001    125109.19   -39971.422    2814.6251   -42786.047    195.08332   0.99827594 
   60200    225.49441     389.4425    125179.36   -39949.852    2805.5791   -42755.431    195.38498    0.9977163 
   60300    223.20226    588.79317    125273.81   -39893.112    2777.0605   -42670.172    195.58325   0.99696411 
   60400    225.90958    658.13565    125313.78   -39831.307    2810.7446   -42642.052     196.1447   0.99664614 
   60500    230.49711    213.42808    125377.25   -39863.381    2867.8223   -42731.204    196.50794   0.99614161 
   60600    223.17707    368.87976    125436.76   -39910.625    2776.7471   -42687.372    197.27882     0.995669 
   60700    222.90359    365.65666    125450.27   -39912.091    2773.3445   -42685.436    197.95383   0.99556177 
   60800    224.55784    624.71705    125448.58   -39853.876    2793.9264   -42647.803    198.32775   0.99557519 
   60900    226.13232    381.07917    125379.51    -39851.36     2813.516   -42664.876    198.44336    0.9961236 
   61000      226.079    596.93261    125258.46   -39893.842    2812.8526   -42706.695    198.81095   0.99708627 
   61100    222.95142    708.24405    125162.47   -39941.018    2773.9395   -42714.957     198.9438   0.99785096 
   61200    224.60466    437.82269    125107.09   -39928.888     2794.509   -42723.397    199.47252   0.99829267 
   61300    222.61384     661.5517    125028.91   -39908.907    2769.7394   -42678.647    199.74861   0.99891688 
   61400    226.23087    485.75221    125239.25   -39933.582    2814.7421   -42748.324    199.90226    0.9972392 
   61500     225.2704    322.50899    125187.67   -39940.878    2802.7921    -42743.67    200.25069   0.99765008 
   61600    223.85175    340.68243    125056.25   -39899.933    2785.1413   -42685.075    200.86709   0.99869853 
   61700    219.54542    633.94145    125066.04   -39978.528    2731.5624   -42710.091    201.31039   0.99862033 
   61800    218.43306    447.17121    125348.04   -40040.205    2717.7225   -42757.928     201.2892   0.99637369 
   61900    221.73356    380.69674    125128.05   -39979.558    2758.7871   -42738.345     201.2326   0.99812546 
   62000    224.66517    359.68078    125058.31   -39940.174    2795.2618   -42735.435    201.18701   0.99868206 
   62100    224.91618    681.12185    125276.07    -39977.13    2798.3849   -42775.515    202.03167   0.99694613 
   62200    222.78076    476.09996    125167.37   -39923.407    2771.8162   -42695.223    202.28085   0.99781194 
   62300      222.908    534.88886    125013.95    -39951.56    2773.3993   -42724.959    202.30239    0.9990364 
   62400    223.00688    381.07709    124953.15   -39893.099    2774.6296   -42667.728    202.52459   0.99952254 
   62500    222.87713    532.14021    124962.66   -39902.862    2773.0152   -42675.877    203.04921   0.99944647 
   62600    226.60678    622.27965    124954.99   -39903.132    2819.4192   -42722.551    203.14495    0.9995078 
   62700    222.19018    603.28268    124952.11   -39916.631    2764.4682     -42681.1    203.87165   0.99953087 
   62800    223.59854    448.15022    124880.14   -39893.281    2781.9909   -42675.272    203.96763    1.0001069 
   62900    227.02126    512.06631    124999.47   -39841.408    2824.5761   -42665.984    204.08353    0.9991522 
   63000    224.13369     463.9524    125086.43   -39793.195    2788.6492   -42581.844    204.29526   0.99845754 
   63100     226.8413    670.86943    124966.89   -39776.457    2822.3371   -42598.794    204.35235   0.99941263 
   63200    227.44185    494.82368    125067.98   -39816.909    2829.8091   -42646.718    205.27853   0.99860489 
   63300    224.07812    587.04693    124950.87    -39853.63    2787.9578   -42641.588     205.6549   0.99954076 
   63400    227.45819    488.36609    124938.03   -39766.521    2830.0123   -42596.534    206.11146    0.9996435 
   63500    225.51565    659.96134    124789.26   -39857.894    2805.8435   -42663.737    205.75181    1.0008353 
   63600    219.33759    269.65217    124763.35   -39852.537    2728.9766   -42581.513    205.51623    1.0010431 
   63700    222.45375    471.88898    124665.01   -39849.921    2767.7476   -42617.669     205.8398    1.0018328 
   63800    223.11227    599.36641    124615.96   -39947.616    2775.9408   -42723.556    206.14313    1.0022271 
   63900     220.5346    573.32455    124732.64   -39927.618    2743.8696   -42671.488    206.43117    1.0012896 
   64000    219.91734    438.34899    124955.07   -39914.777    2736.1898   -42650.967    207.04383   0.99950717 
   64100    223.26846    435.90067    124919.16   -39835.145    2777.8841   -42613.029    207.00779   0.99979451 
   64200    228.14572    655.61279    125091.36   -39838.475    2838.5665   -42677.042    207.81509   0.99841822 
   64300    232.94837    536.56629    125318.67   -39766.264    2898.3205   -42664.584    208.34747   0.99660724 
   64400    225.43807    459.08927    125401.92   -39801.646    2804.8782   -42606.525    208.77846   0.99594563 
   64500    228.88595    552.92181     125532.1   -39798.849    2847.7763   -42646.625    209.09331   0.99491275 
   64600     227.5079    518.20427    125600.68   -39863.586    2830.6308   -42694.217    209.58648   0.99436958 
   64700    226.74284    460.08132    125172.53   -39858.814    2821.1121   -42679.926    209.46985   0.99777076 
   64800    226.16654    643.63672    125370.45   -39882.449    2813.9418   -42696.391    210.22542   0.99619563 
   64900    227.54226    358.45078    125421.34   -39875.489    2831.0583   -42706.548    210.77086   0.99579141 
   65000    222.26449    843.54838    125151.47   -39833.364    2765.3929   -42598.756    211.58866   0.99793869 
   65100    226.61441    437.87507    125308.48   -39859.948    2819.5141   -42679.462    211.87709    0.9966883 
   65200    227.50813     398.1883    125206.96   -39846.082    2830.6337   -42676.716    211.96194   0.99749638 
   65300    225.79139    389.92082    125189.28   -39846.128    2809.2741   -42655.402    212.47773   0.99763729 
   65400    227.90409    508.00697    124892.82   -39795.832    2835.5601   -42631.392    212.36634    1.0000054 
   65500    226.18677     416.4134    124870.68    -39856.75    2814.1934   -42670.943    212.78989    1.0001827 
   65600    224.63207    542.91831    124867.63   -39892.167      2794.85   -42687.017    213.12459    1.0002071 
   65700    220.23798    552.97615    124789.48   -39934.779    2740.1792   -42674.958    213.01505    1.0008335 
   65800    220.45519     248.6848    124701.84   -39914.887    2742.8816   -42657.769    213.67306    1.0015368 
   65900     218.3946    817.55588    124544.37   -39871.239     2717.244   -42588.483    214.24993    1.0028032 
   66000     229.1646    549.79499    124707.31   -39775.667    2851.2433    -42626.91    214.57457    1.0014929 
   66100    229.88475    418.01559    124705.81   -39741.438    2860.2033   -42601.641    214.83278     1.001505 
   66200    230.39087    561.89863    124704.72   -39723.334    2866.5004   -42589.834    215.10255    1.0015137 
   66300    227.23323    448.20951    124799.85   -39774.191    2827.2134   -42601.405    215.73656    1.0007503 
   66400    226.00486    382.01279    124881.57   -39816.912    2811.9301   -42628.842    216.24024    1.0000955 
   66500    227.26077    432.63712     124684.7   -39836.923    2827.5561   -42664.479    216.48746    1.0016746 
   66600    222.74287    496.93567    124677.87     -39848.5    2771.3448   -42619.845    217.06106    1.0017294 
   66700    225.37386    376.90614    124717.51   -39880.893    2804.0793   -42684.973    217.29655    1.0014111 
   66800    226.85326    337.60914    124636.15   -39808.041    2822.4859   -42630.527    217.61936    1.0020648 
[...]
   84600    221.29001    556.24784    125145.56   -39974.565    2753.2684   -42727.833    273.29666   0.99798581 
   84700    217.79861     544.8338    125174.35   -39980.269    2709.8288   -42690.098    273.95089    0.9977563 
   84800    228.36945    592.91505    125310.33    -39953.38    2841.3501    -42794.73    274.54996   0.99667357 
   84900    223.18818    368.71942    125284.97   -39943.271    2776.8853   -42720.157    274.84698    0.9968753 
   85000    222.98556    532.21724    125332.15   -39888.917    2774.3643   -42663.281    274.92932   0.99650001 
   85100    225.40162    707.68396    125325.64   -39871.037    2804.4247   -42675.462    275.44754   0.99655182 
   85200    225.39422    474.53029    125425.78   -39883.544    2804.3326   -42687.876    275.90414   0.99575611 
   85300    221.21801    522.54103     125332.3   -39913.686    2752.3726   -42666.059    275.91762   0.99649887 
   85400    222.90566    767.92383    125214.04   -39901.285    2773.3701   -42674.655    276.43407   0.99744001 
   85500    221.31933    603.29503    125540.99   -39866.864    2753.6332   -42620.497    277.32755    0.9948423 
   85600    227.55504    828.45945    125647.65   -39849.941    2831.2173   -42681.158    277.99842   0.99399783 
   85700      225.903    351.75029    125545.87   -39880.916    2810.6627   -42691.578    277.39268   0.99480363 
   85800     221.2861    241.06611    125484.91   -39871.954    2753.2197   -42625.174    277.68487   0.99528693 
   85900    224.07369    561.56116    125605.58   -39779.432    2787.9027   -42567.335    278.17751   0.99433077 
   86000    225.08304    474.90802    125717.53   -39813.021    2800.4609   -42613.482    278.30341   0.99344529 
   86100    226.57442    374.51747    125694.55   -39807.579    2819.0165   -42626.596    278.56754   0.99362691 
   86200    221.31067     404.9347    125794.66   -39770.164    2753.5255    -42523.69    279.30286   0.99283623 
   86300    225.58165    611.29758    125804.41   -39813.172    2806.6645   -42619.837    279.36397   0.99275925 
   86400    225.06501     236.0121    125791.13   -39829.504    2800.2366    -42629.74    279.95293   0.99286407 
   86500    226.48806    456.97338    125666.07   -39829.418     2817.942    -42647.36    279.79018   0.99385215 
   86600    227.30017    502.37655    125631.07   -39780.419    2828.0462   -42608.465    280.02351   0.99412899 
   86700    229.76698    735.79379    125635.01   -39774.266     2858.738   -42633.004    279.99259   0.99409782 
   86800    223.62601    506.19422    125566.43    -39852.62    2782.3327   -42634.953    280.23521   0.99464078 
   86900    226.37279    549.10573     125472.2   -39834.622    2816.5079    -42651.13    280.88702   0.99538774 
   87000    225.32069    262.95394    125568.85   -39841.266    2803.4178   -42644.684     281.1892    0.9946216 
   87100    221.89308    479.15756    125480.01   -39879.278    2760.7718    -42640.05    281.23527   0.99532577 
   87200    228.69476    569.54801    125408.69   -39879.117    2845.3977   -42724.515    281.63669   0.99589185 
   87300     224.9192    384.02544    125176.27   -39886.796    2798.4225   -42685.219    281.41827   0.99774093 
   87400    225.50832    627.60615    125182.11   -39898.796    2805.7522   -42704.548    281.75872   0.99769439 
   87500    226.74654    403.89714    125276.89   -39917.419     2821.158   -42738.577    282.21622   0.99693959 
   87600    226.75341    567.52172    125103.52   -39918.238    2821.2435   -42739.481    282.34548   0.99832114 
   87700     228.1697    463.62555    125062.49   -39932.826    2838.8649   -42771.691    282.16541   0.99864865 
   87800    223.07303    445.41617    125130.11   -39903.903    2775.4526   -42679.355    282.16564   0.99810903 
   87900    224.94172    466.79277    125068.24   -39914.413    2798.7027   -42713.116    282.16331   0.99860276 
   88000    223.00547    668.99576    125136.45   -39932.505     2774.612   -42707.117    282.29769   0.99805845 
   88100    227.21096    516.71913     125048.4   -39875.776    2826.9363   -42702.712    282.79023   0.99876124 
   88200    225.90117     495.3474    124952.79   -39861.441    2810.6401   -42672.081    282.88454   0.99952541 
   88300    223.07696    504.95277    125036.29   -39898.456    2775.5014   -42673.958    283.16126   0.99885791 
   88400    221.95254    689.49433    125011.56   -39987.833    2761.5116   -42749.345    283.65105   0.99905557 
   88500     226.3815    455.53316    125014.41   -39907.298    2816.6163   -42723.915    283.98544   0.99903274 
   88600    223.46699    532.55299    125101.06    -39855.53    2780.3543   -42635.885    284.66434   0.99834079 
   88700    225.87865    250.02697    125010.64   -39807.277    2810.3598   -42617.637    284.82337   0.99906293 
   88800    231.94771    653.55457    125007.93   -39741.372    2885.8705   -42627.242    285.73266   0.99908458 
   88900     227.5289    477.22358    125095.61    -39783.64     2830.892   -42614.532    286.08948   0.99838428 
   89000    230.75999    376.36724     125104.1   -39774.089     2871.093   -42645.182    286.84866   0.99831653 
   89100     219.5126    458.12352    124945.35   -39878.192    2731.1541   -42609.346    287.16358   0.99958493 
   89200    222.70989     455.3358    125023.08   -39911.224    2770.9344   -42682.159    287.50262   0.99896352 
   89300     226.8925    550.81277    124913.81   -39942.416    2822.9741    -42765.39    287.38344   0.99983736 
   89400    220.83192    518.41882    125045.56   -39980.943    2747.5689   -42728.512    287.69816   0.99878392 
   89500    219.17676    475.00855    124824.95   -40040.698    2726.9755   -42767.674    288.17257    1.0005491 
   89600    218.23149    623.53183    124953.37   -40095.132    2715.2146   -42810.347    288.51783   0.99952078 
   89700    221.27776     438.2805    125021.18   -40074.013     2753.116   -42827.129    288.56297   0.99897869 
   89800    225.00222    473.73637    125078.69   -40036.007    2799.4554   -42835.462    289.57744   0.99851934 
   89900    222.41194    507.51593    125110.62   -40085.006    2767.2274   -42852.234    289.41326   0.99826447 
   90000    223.71718    663.27024    125177.98   -39989.116     2783.467   -42772.583    289.84262   0.99772733 
   90100     220.6889    584.90869    125377.63   -40006.489    2745.7894   -42752.278    290.61715   0.99613858 
   90200    223.80338    476.53876    125411.17    -40048.56    2784.5395     -42833.1    291.25721   0.99587218 
   90300    224.47615    613.82684    125457.44   -40063.501    2792.9101   -42856.411    291.82002   0.99550487 
   90400    222.33692    563.60623    125503.35   -40062.833     2766.294   -42829.127    292.38487   0.99514069 
   90500    225.09429    483.88239    125762.13   -40030.888     2800.601   -42831.489    292.90901   0.99309302 
   90600    225.81295    644.53511    125838.11   -39936.654    2809.5424   -42746.196    292.89281   0.99249337 
   90700    225.83848    530.38448    125786.08   -39933.475      2809.86   -42743.335    293.34687   0.99290394 
   90800    226.38897    460.23935    125682.18   -39958.426    2816.7091   -42775.135    293.16656   0.99372472 
   90900    224.64917    357.12834    125707.28   -40053.037    2795.0627     -42848.1    293.62425    0.9935263 
   91000    220.73039     409.7848    125726.81   -40083.046    2746.3057   -42829.352    293.53111   0.99337197 
   91100    224.77036    546.22927     125922.4   -40062.204    2796.5706   -42858.775     293.6759   0.99182902 
   91200    221.59728    507.05661    125692.47   -40022.352    2757.0915   -42779.443    293.48278   0.99364336 
   91300     226.9218    447.41346    125675.72   -39917.952    2823.3386   -42741.291    293.44682   0.99377585 
   91400    228.85599    479.94985    125704.25   -39875.287    2847.4036   -42722.691    294.10166   0.99355024 
   91500    227.57397    497.12107    125849.51   -39875.587    2831.4528   -42707.039      294.952   0.99240349 
   91600    228.07089    543.64501    125877.12   -39919.675    2837.6355   -42757.311    295.05847   0.99218581 
   91700    220.40356     607.6661    125897.01   -40001.163    2742.2393   -42743.402    294.93883   0.99202903 
   91800     226.9217    581.50933    125900.81   -39973.695    2823.3374   -42797.032     295.5501   0.99199913 
   91900    226.04191     482.7049     125726.2   -39982.741    2812.3911   -42795.132    295.86416   0.99337681 
   92000    223.66489     610.6564     125774.3   -39993.505    2782.8165   -42776.321    296.27104   0.99299693 
   92100    222.43781    502.55403    125642.41   -40042.078    2767.5492   -42809.627     295.6661    0.9940393 
   92200    225.19772    385.42123    125571.98   -39978.042    2801.8878    -42779.93    295.89283   0.99459684 
   92300    229.17692    472.11003    125483.43   -39889.141    2851.3966   -42740.538    295.70683   0.99529868 
   92400     227.1483    614.74413    125512.91   -39893.135    2826.1567   -42719.291     296.1998    0.9950649 
   92500    223.95843    805.49273    125447.18   -39935.391    2786.4686   -42721.859    296.11465   0.99558627 
   92600    225.87863    443.03239    125443.81   -39886.087    2810.3596   -42696.447    296.56611   0.99561305 
   92700     227.4796    547.29484    125625.67   -39871.139    2830.2786   -42701.418    297.27768   0.99417172 
   92800    223.81727    370.14819    125718.09   -39924.705    2784.7123   -42709.417    298.05915   0.99344086 
   92900    227.90853    501.85892    125712.49   -39907.021    2835.6154   -42742.636    298.25889   0.99348516 
   93000    224.69046    651.10338    125937.01   -39944.526    2795.5765   -42740.103    298.90292   0.99171393 
   93100    227.00476     342.2397    125878.88   -39888.711    2824.3707   -42713.082    299.12021   0.99217191 
   93200    223.88946    658.37324    125895.74   -39895.341    2785.6106   -42680.952    299.58489   0.99203908 
   93300    223.26979     652.8021    125927.82   -39909.096    2777.9007   -42686.997      299.705   0.99178636 
   93400    228.01527    303.47199    125674.55   -39942.677    2836.9435   -42779.621    299.73294   0.99378508 
   93500    216.86444     453.1991    125666.96   -39980.192    2698.2059   -42678.397    300.33367   0.99384506 
   93600    219.31105    474.26582    125680.35   -40043.358    2728.6464   -42772.004    300.65112   0.99373917 
   93700    223.18713    555.71631    125387.38   -39987.744    2776.8722   -42764.616    299.94542   0.99606106 
   93800    220.60804    525.46337    125596.65   -39950.238    2744.7835   -42695.021    300.86452   0.99440145 
   93900    231.69823    535.15498    125640.77   -39946.039    2882.7664   -42828.805    301.22595   0.99405224 
   94000    227.11732    84.775935    125697.95   -39961.078    2825.7712   -42786.849    301.61813   0.99360005 
   94100    224.58542    415.20504    125397.37   -39956.692    2794.2696   -42750.961    301.40949   0.99598177 
   94200    225.69093    493.17043    125486.24   -39939.656    2808.0242   -42747.681    302.07221   0.99527642 
   94300    224.04486    337.53466    125356.77   -39881.849     2787.544   -42669.393    302.30926   0.99630431 
   94400    223.71548    515.54112     125457.3   -39856.744    2783.4459    -42640.19     302.7774   0.99550598 
   94500    228.85644    558.45482    125527.59     -39780.6    2847.4092   -42628.009    302.92077   0.99494854 
   94600    229.75788    340.79598    125449.56   -39818.115    2858.6249    -42676.74     303.5685   0.99556743 
   94700    224.09115    485.88188     125282.9    -39863.12    2788.1199    -42651.24    303.35507   0.99689173 
   94800    222.74515    534.71393    125179.89   -39875.033    2771.3731   -42646.406    303.12595   0.99771207 
   94900    224.38999    292.07657    125192.89   -39849.382    2791.8381    -42641.22    303.61079   0.99760851 
   95000    229.73646    406.15662    125028.83   -39846.922    2858.3583    -42705.28     303.8712   0.99891755 
   95100    229.12413    723.40706    125274.97   -39852.829    2850.7398   -42703.569    305.00113   0.99695486 
   95200    225.99944    417.38922    125308.85   -39893.152    2811.8627   -42705.014    305.14136   0.99668535 
   95300    229.22192    584.75259    125350.04   -39798.761    2851.9564   -42650.717    305.82967   0.99635778 
   95400    226.25298    540.76405    125461.13    -39864.42    2815.0172   -42679.438    306.65728   0.99547556 
   95500    228.84079    488.38666    125675.48   -39866.032    2847.2145   -42713.247    307.33969   0.99377771 
   95600    230.06192    476.37228       125413   -39857.016    2862.4077   -42719.424    307.24867   0.99585765 
   95700    222.82736    623.47679    125411.31   -39927.443    2772.3959   -42699.839    307.68546     0.995871 
   95800    221.39147    538.30424    125400.34   -39976.069    2754.5308     -42730.6    308.36437   0.99595816 
   95900    223.14425    618.63958    125598.43   -39926.049    2776.3387   -42702.388    308.52807   0.99438732 
   96000     220.3161    417.74073    125591.23   -40001.197    2741.1512   -42742.348    308.44783   0.99444439 
   96100    220.72331     586.5075    125385.57   -39941.426    2746.2176   -42687.644    308.66319   0.99607544 
   96200    222.56289    583.80442    125545.28   -39992.451    2769.1055   -42761.556    309.10499   0.99480835 
   96300    225.04922    343.49063    125561.01   -39938.596    2800.0401   -42738.636    309.10078   0.99468368 
   96400    224.29447    537.49487    125270.03   -39910.468    2790.6497   -42701.117    309.22278   0.99699415 
   96500    224.67824     580.4567    125504.36   -39952.556    2795.4244    -42747.98    309.81556   0.99513268 
   96600    225.67785    372.62014    125347.07   -39937.369    2807.8615    -42745.23    310.15722   0.99638142 
   96700    220.49043      435.868    125439.55    -40014.79    2743.3201   -42758.111    311.09677    0.9956468 
   96800     223.6368    639.67931    125432.85   -40083.805     2782.467   -42866.271    311.34791   0.99570006 
   96900    219.66832    607.37174    125491.41   -40021.791    2733.0916   -42754.883    311.34361   0.99523541 
   97000    223.98513    399.03293     125564.3   -40023.291    2786.8009   -42810.092    311.80021   0.99465762 
   97100     224.5345    502.60224       125493     -40007.1    2793.6361   -42800.736    311.54596   0.99522273 
   97200    224.94863    743.73698    125601.68   -40025.976    2798.7887   -42824.764    311.67105   0.99436164 
   97300    219.65732    528.23327    125569.31   -40018.692    2732.9546   -42751.646    312.69488   0.99461792 
   97400    221.51303    365.02031    125477.31   -40009.594    2756.0432   -42765.637    313.56509    0.9953472 
   97500    223.80943    570.53072    125452.48   -39915.641    2784.6148   -42700.256    313.76798   0.99554419 
   97600     225.9916    524.52238    125367.37   -39974.211    2811.7651   -42785.976    314.49005   0.99622004 
   97700    228.59774    521.28595    125361.92   -39904.309    2844.1904     -42748.5    315.03416   0.99626341 
   97800    229.45545    527.94431    125436.75   -39883.611     2854.862   -42738.473    315.62606    0.9956691 
   97900    229.13869    564.29154    125426.81   -39852.695    2850.9209   -42703.616    315.52912   0.99574794 
   98000    227.79035    403.19619    125375.73   -39874.979     2834.145   -42709.125    315.74864   0.99615369 
   98100    222.89528     642.0776    125312.49   -39941.584    2773.2411   -42714.825    316.15124   0.99665633 
   98200    229.88037    522.40037    125322.78   -39924.352    2860.1488   -42784.501    316.15997   0.99657457 
   98300    227.37806    488.73974     125586.1   -39964.673    2829.0153   -42793.689    317.33465   0.99448499 
   98400    224.97421    510.93073    125595.96   -39985.625    2799.1069   -42784.732    317.56928    0.9944069 
   98500    226.07947    587.62792    125600.91   -39997.831    2812.8585   -42810.689    318.02372   0.99436775 
   98600    220.73849    358.77931    125508.58   -40024.079    2746.4065   -42770.485    317.89972   0.99509924 
   98700    218.82313    483.47729     125469.2    -40071.04    2722.5757   -42793.616    318.30992   0.99541158 
   98800    223.55504    705.32576    125423.77   -40041.943    2781.4497   -42823.392    318.34351   0.99577213 
   98900    224.04277    540.41402    125385.68    -40046.91     2787.518   -42834.428    318.75886   0.99607463 
   99000    219.87764    335.18379     125546.6   -40081.963    2735.6958   -42817.659    319.32792   0.99479792 
   99100    223.06881    408.57737    125542.48   -40008.509    2775.4001   -42783.909    320.00878   0.99483056 
   99200    222.67783    729.74484    125593.65   -39989.253    2770.5356   -42759.788    320.29175   0.99442519 
   99300    227.21583    555.48624    125699.72   -39943.033    2826.9969    -42770.03    320.86926   0.99358608 
   99400    228.41618    311.71656    125797.87   -39908.629    2841.9315   -42750.561     321.2532   0.99281086 
   99500    228.58115    405.18649    125621.95   -39791.251    2843.9841   -42635.235    320.63755   0.99420118 
   99600    229.78214    519.16077    125438.61   -39799.911    2858.9267   -42658.837    320.89959   0.99565431 
   99700    228.16216    641.16718    125191.79   -39799.373    2838.7711   -42638.144    321.20066    0.9976173 
   99800    226.49654    400.87642    125047.74   -39810.568    2818.0475   -42628.616    321.74338    0.9987665 
   99900    221.88606     313.3977     125158.8   -39852.241    2760.6844   -42612.925    321.97567   0.99788018 
  100000     220.2667    534.23748    125014.49   -39838.381    2740.5366   -42578.917    322.32836   0.99903216 
  100100    226.74177    617.19384    124946.14   -39765.717    2821.0987   -42586.816    322.49104   0.99957863 
  100200    227.68967     579.2074    124998.81   -39756.931    2832.8924   -42589.823    322.93163   0.99915743 
  100300     229.0861    442.87679    124979.42   -39734.741    2850.2667   -42585.008    323.34302   0.99931249 
  100400     226.2624    426.31201    124843.69   -39753.653    2815.1344   -42568.788    323.02798    1.0003989 
  100500    228.68477    458.73309     124903.8   -39669.358    2845.2733   -42514.632     323.3342   0.99991749 
  100600    228.91735    361.21755    124582.03   -39757.567    2848.1671   -42605.734    323.09623    1.0025001 
  100630     225.6253    636.88555    124621.04   -39745.713    2807.2076    -42552.92    323.46642    1.0021863 
Loop time of 100.219 on 6 procs for 100000 steps with 4175 atoms

Performance: 431.055 ns/day, 0.056 hours/ns, 997.813 timesteps/s
98.8% CPU use with 6 MPI tasks x no OpenMP threads

MPI task timing breakdown:
Section |  min time  |  avg time  |  max time  |%varavg| %total
---------------------------------------------------------------
Pair    | 82.495     | 83.905     | 85.225     |   9.7 | 83.72
Neigh   | 5.2676     | 5.2885     | 5.3123     |   0.7 |  5.28
Comm    | 7.0607     | 8.402      | 9.7985     |  30.7 |  8.38
Output  | 0.15936    | 0.1601     | 0.16359    |   0.4 |  0.16
Modify  | 1.7672     | 1.7888     | 1.8198     |   1.6 |  1.78
Other   |            | 0.6744     |            |       |  0.67

Nlocal:        695.833 ave         702 max         687 min
Histogram: 1 0 0 0 2 0 1 0 0 2
Nghost:        1502.67 ave        1527 max        1486 min
Histogram: 1 1 1 0 1 1 0 0 0 1
Neighs:        0.00000 ave           0 max           0 min
Histogram: 6 0 0 0 0 0 0 0 0 0
FullNghs:      20176.3 ave       20609 max       19794 min
Histogram: 1 1 0 1 0 1 0 1 0 1

Total # of neighbors = 121058
Ave neighs/atom = 28.995928
Neighbor list builds = 5740
Dangerous builds = 0

undump              1
unfix               2
unfix               3
unfix               4


################################################
#######         Run Simulation         #########
################################################

reset_timestep      0
log                 log.run_${NAME}
log                 log.run_liquid_density_MLmW
