LAMMPS data file via write_data, version 29 Oct 2020, timestep = 800000

4175 atoms
1 atom types

-0.08839806729798028 50.08839806730063 xlo xhi
-0.08839806729798028 50.08839806730063 ylo yhi
-0.08839806729798028 50.08839806730063 zlo zhi

Masses

1 18.015

Atoms # atomic

3138 1 3.7410925899157825 1.9246670082227366 1.8343566975498606 0 0 0
1016 1 46.62936436530451 12.652867785650026 1.9599815457263388 0 0 1
2518 1 6.009552349321809 3.9431525565490473 0.39193926491710684 1 1 0
258 1 40.09967601464745 1.5484525508947484 11.406440986640646 0 0 0
2124 1 48.5370276717043 22.63107570015311 13.559559824110705 0 0 1
1453 1 33.19654555431974 24.75046802479677 4.402707752571276 -1 0 0
2270 1 12.892505737672725 2.446539560203878 3.3275727143516622 1 1 0
3237 1 16.513990706272015 0.8411277256374654 2.479968218683479 0 0 0
41 1 24.52476174353779 9.95025816835652 1.1334604456968915 -1 0 1
2673 1 25.299664132130584 1.690225524596108 2.26048140954298 0 2 0
3168 1 29.37437457714793 2.472325405645103 1.957939366000824 -1 0 0
1598 1 32.19380703938284 3.2036677624577474 2.4766788586448327 0 -1 1
3083 1 5.944592762268018 23.759839378578047 14.996568994880095 0 0 0
3013 1 46.99531916821938 2.237729610282693 3.215379807938245 -1 1 1
2994 1 38.44514375996756 1.3195572982320718 2.5623066361595845 0 0 0
757 1 8.594838212133565 6.258976458886555 1.5972630605071019 0 0 0
2158 1 19.650388571228866 16.297865039049956 0.7432609350022215 -1 0 0
118 1 49.6917701758737 2.029667066292557 2.8941101723060565 -1 0 1
133 1 0.7276230231354326 6.087478942049765 1.36987280526747 1 1 0
3952 1 26.88076080742565 1.4698934742977252 16.340611845003572 0 1 0
1879 1 3.530212818501941 5.676125690567661 1.4053649831657948 1 0 0
2228 1 11.390277630915161 4.8486705461897435 1.5685074764311804 -1 1 -1
3808 1 28.909406858575952 24.94853347913944 10.165074659216524 0 0 1
4138 1 17.42766514234087 5.344448155778497 2.6106154657440133 0 1 1
3745 1 16.46763281284983 3.123377346111198 1.225876957066821 0 0 1
942 1 23.487972356939466 3.95019188996124 2.2457266077154663 0 0 0
239 1 39.0662261690036 7.02544478791693 16.28529430475255 -1 0 1
651 1 25.114845602947927 6.342934431967884 3.149133270036765 0 0 0
4127 1 11.227000357245865 24.757087173447943 1.231442980857965 0 -1 1
2313 1 31.78142498679396 6.0114414971452135 2.3099807729907464 0 1 1
2028 1 31.902116662570457 9.457931866949513 3.9467156669753845 0 0 1
2975 1 36.18535392030538 3.9667009417017205 3.1232197578877825 -1 1 0
3049 1 41.41862071950168 3.33747891142067 1.8927237492327424 -1 1 1
912 1 40.41033372306146 24.036811720265288 6.557781405204176 -1 -1 0
12 1 46.45614746127834 3.5725845609452236 5.6119581485195065 -1 0 0
1063 1 0.587701048033803 10.214398739388404 2.985659310948066 0 0 1
3485 1 4.454025102779639 7.9216999689773 2.831934333756058 -1 0 1
1403 1 36.5991736022857 1.5857029622303631 0.625253215420488 -1 0 1
3998 1 6.579206328491316 8.295452218671636 1.0616282275181457 0 1 0
153 1 8.478098536255176 24.969479524979306 2.8681476642355244 1 0 -1
2974 1 15.61503373799112 7.830376632732831 2.4669855387624082 1 1 1
1920 1 20.660054959511832 8.920726162400612 1.0417277816729638 1 -1 1
3953 1 19.757901384404214 6.460276315423823 1.3712454824387799 -1 1 -1
2174 1 23.86945320772602 8.646673004343745 3.6012859889925193 1 1 0
2286 1 18.88047512509932 0.5347651541893237 7.542379832630854 1 0 -1
1655 1 29.48677812019261 9.180158439547762 2.6860485338472886 0 0 1
448 1 13.969356652266283 4.183439865451425 0.650103901076861 0 -1 1
2251 1 34.452159061833676 6.415800602277913 1.595286399220682 -1 1 0
703 1 39.52633554872433 5.137576633124084 2.2980420462209716 0 0 0
1572 1 37.43724304249428 5.295572304085007 0.5194610429645493 0 0 1
2880 1 45.481601089217676 5.683638778087888 2.3416961907805587 -1 0 1
2886 1 45.76511442638058 8.11399970834587 0.7232934411392148 -1 0 0
570 1 3.245995278850708 10.362073895940592 3.570491389175721 0 1 -1
1519 1 21.54893230479889 1.239727041172025 12.298865318437032 0 -2 1
478 1 46.49144692852749 1.6174045529564087 0.44492372642709044 -2 0 0
3978 1 15.667357191819617 11.917186112779751 0.7709047829250708 1 -1 0
850 1 7.300932462060522 1.6791007955728856 1.1887225097398475 0 0 0
3302 1 31.401118958961355 12.629363057973558 16.435154920695798 -1 0 0
1873 1 12.393507022683563 0.7059954130514815 9.804105943503624 0 0 0
96 1 25.012013702223662 11.668344696139783 3.2412196985979507 0 0 0
1623 1 27.92559247191186 11.076037462950527 3.977546074515886 0 0 0
2 1 38.136313096160606 9.189820960033474 1.8706681229895337 0 0 -1
1170 1 29.616435930018227 13.170447508738171 0.6332390039837087 0 0 1
1673 1 21.198109513396396 10.708099759703735 16.428477778577726 0 0 -1
3555 1 42.40988863150256 9.844057143155888 1.1314992700856932 -1 1 1
331 1 40.506849131433356 12.25794428641712 0.7138394297955913 0 1 1
1980 1 44.98285470245109 10.415554115327232 2.50174238152519 -2 0 0
1104 1 40.33454921253411 14.828039296611658 15.863011575210614 -1 0 0
1559 1 49.0798195434884 12.392348162282222 3.3799679275417764 1 0 1
9 1 -0.08481178544611367 13.934484207497135 1.5689548086809064 1 -1 1
4 1 2.614052120380886 14.155553379634691 0.9388388239905501 0 0 0
3300 1 7.999350460322805 13.897492967992873 1.6607265345652291 1 1 0
3801 1 12.704095294033515 14.03053732550739 2.3153629230571893 0 0 0
2556 1 15.796251113364633 14.832056637552402 1.443894906279403 0 0 0
4014 1 46.85783910906285 23.249250345177636 15.860509162773278 -1 0 0
43 1 18.574299589759256 15.148671742948286 3.2461264730007247 1 -1 0
1269 1 22.062863351886616 1.1324314225768786 3.0137296959546447 1 0 -1
3167 1 25.91727334524367 13.806475961717702 1.4968603625924646 1 0 1
404 1 28.997866029923756 13.396353810388192 3.314699076806721 -1 1 0
2845 1 29.519065956006788 8.762663591421154 0.02692831517583523 0 0 1
638 1 33.80456512757281 10.909498203324656 2.977386935509864 0 0 0
2853 1 23.690364781078205 24.10662716371315 8.465017181807836 -1 1 1
2026 1 36.26063197116874 13.92185668504296 4.785867656902873 -1 0 1
2057 1 39.24716164590993 14.407883721660067 1.587006554222308 0 -1 1
54 1 44.79628743974371 21.22130096549489 15.795947529944662 0 1 0
3030 1 48.11597547038211 18.460929843411435 15.034000634169344 0 1 1
3047 1 42.35637084053383 12.399945491947953 2.9477150053755072 -1 0 1
4115 1 47.00392042945181 17.2241500750121 3.0033200211754827 -1 0 1
2719 1 49.88411376032218 16.570780731800966 2.6105579970526405 -1 1 0
2589 1 1.1949967927840686 18.3797996589445 1.4244646501229479 0 0 0
3035 1 42.84786417406112 1.1143326056008975 11.486927552492425 0 0 0
1546 1 35.86410409869269 17.708522347397547 15.204680640641227 0 0 1
109 1 46.53583152079449 15.163918082063544 16.243606090126594 -1 0 0
3351 1 10.568102401684218 15.40368272401618 1.3447570188997935 0 0 0
112 1 14.764329106528324 18.360171599074388 1.4912234851951103 -1 0 0
1935 1 17.638695896432893 19.9233430721991 2.060723224833384 0 1 0
3388 1 24.079851719672494 17.394282621694504 2.989474525537689 0 1 1
3194 1 25.646174457755734 19.753405462325592 3.428563007583038 -1 0 0
3411 1 27.358485929340254 17.939757426778478 1.7310677722372756 0 0 1
3406 1 30.13459418211215 18.210177589255355 1.343172998189481 1 0 0
4090 1 33.169598121733905 16.677819593164152 1.1872557354193796 -2 0 1
2089 1 38.14300404665287 19.24805785095636 1.8768888300025144 0 0 1
1647 1 31.697585282735997 1.2348141478793917 5.120109667946037 0 0 0
1097 1 40.634120059254705 18.976614674937593 3.3663638917227896 -1 -1 1
3864 1 41.9967531953181 17.633108338088977 1.3962459282197428 -1 0 0
3923 1 43.22793899366284 15.184459815423196 2.3560680128004905 -1 0 1
172 1 47.379565389678234 19.663323087340054 1.3503964596986089 0 -1 0
489 1 47.97951325113758 21.252254081855423 3.5766053176664823 0 0 1
3123 1 3.1905477358537047 22.28751004101424 1.7892089877673456 0 0 0
4106 1 5.690231853695055 22.332235734276182 1.1032608954907313 0 1 0
2541 1 9.825449377753731 19.724087947265595 0.9665921362742231 1 -1 0
2638 1 12.671442027626332 20.03568715431636 0.8064174882558168 1 1 0
719 1 7.464472331659685 17.948174445101294 1.1395552011959886 1 0 -1
3880 1 20.142575364693606 19.103710665846616 1.4361400564531008 1 2 0
979 1 20.767245209193234 22.323373610422397 0.3484461742372867 1 0 0
1068 1 25.803495793658843 23.076902146210543 1.1934573495108411 0 -1 1
839 1 26.363746140286295 20.375893047305482 0.6953587731608883 -1 -1 0
278 1 12.92244174852268 15.918431792544553 15.869041169138272 0 0 0
3596 1 31.57894979555658 20.3373362291559 2.5390825018729966 -1 0 2
502 1 35.836636780189856 19.87927807073205 3.412881237569611 0 -1 0
2892 1 38.965448184864826 22.07683304886163 1.18866397314734 -1 0 1
2023 1 44.750148163225425 20.477332480093512 2.1063373955882803 -1 0 1
2231 1 45.01978038946132 23.22945707194926 2.925645790172433 0 0 0
1272 1 12.742569190750075 11.701864873791273 0.4565326651233922 0 0 -1
425 1 0.43829544227948225 8.718009519951497 0.7606068281257303 2 0 0
1480 1 45.00188294964729 24.17029110793878 13.840545441889759 -1 0 0
2018 1 7.228195327191302 22.426875635927086 3.3568650716701534 0 0 1
30 1 34.4201634329606 3.6231464782390725 0.5514587412265962 0 0 0
1225 1 11.5235768996648 22.252704805424187 2.499055301404366 0 0 2
2508 1 4.729565105392901 -0.05378053377493575 8.29485051955179 0 1 0
688 1 19.034581404249966 24.609975683704373 0.5329448829456551 0 0 0
3605 1 23.187800671925338 23.921807799820527 0.126801582547095 0 1 1
3345 1 31.254509392503124 20.25952580883258 15.63880117249738 0 0 1
1921 1 29.97348147876521 22.95802889966409 1.5942410603603703 0 0 1
1011 1 32.822023811573004 23.567020684340772 1.9383462249438348 0 0 1
1903 1 34.29188862688711 20.977526104144964 1.4913271329236253 -1 -1 0
3505 1 40.174786396248315 23.57540582538968 3.2673418676920614 0 0 1
2608 1 42.69779407594726 24.627854917349552 2.633675277810441 -1 0 1
469 1 42.76603587743856 23.527392735148542 15.657620736341523 0 0 0
3557 1 48.56432521527637 23.51471512595048 1.8350496823125844 0 -1 1
4020 1 6.82938742879221 11.126918942660113 1.1966159748166074 2 0 2
2207 1 5.43465192446767 2.3609930396562255 5.237102640601013 0 2 -1
2470 1 10.335693449317578 1.4269991580075756 2.560137156739517 0 1 0
1325 1 9.898467844505697 1.976248480154255 5.828896285432963 1 1 0
347 1 14.387615782506705 1.8986113660409538 5.797929734672677 1 0 0
398 1 4.7827281446436505 18.668107374070203 1.5076824567488818 0 -1 0
773 1 17.220711610164877 1.7028479748769498 5.237736566975487 0 0 1
2558 1 28.5936927525488 24.196826866310683 15.405572397067402 0 0 0
1297 1 27.227562060663676 2.208035577765199 4.318174163027696 1 0 1
1087 1 34.42218658699321 1.6422538851228505 3.680469065921395 0 1 1
1834 1 35.182626279276136 3.715614389614011 6.72889745949995 0 1 1
1773 1 38.27736198674064 2.3070913382559493 5.1756534688396085 0 0 1
555 1 37.486540954216004 11.19086373546708 16.299238265848405 1 0 0
1017 1 41.06945481664533 0.45661658213245804 1.4453831328213944 -1 0 1
457 1 33.189044523603364 10.935318859435759 0.3426651857747759 -1 0 0
2869 1 34.943483887875615 22.704101133480755 14.051666513086834 0 0 1
2380 1 29.596471728572073 0.9920771082746567 9.165400655826598 -1 1 0
548 1 0.9170281566162533 3.1939503400832243 4.705010963618925 1 1 0
1967 1 0.13880295577257007 5.915448350668715 3.851361730712412 0 0 1
1821 1 3.3858507107118556 3.8472856158459243 3.6650236208335514 0 0 0
3147 1 7.979381142478795 2.706054900781392 3.9908863582848157 -1 1 1
1114 1 5.0593162595920464 5.91376165722865 4.7503212602187865 0 0 -1
1605 1 7.642923946672899 5.442716829193994 3.917969879341795 1 0 1
1505 1 11.236842314716943 6.657847180000297 3.8540010778012337 -1 0 1
4101 1 13.372371235822175 8.059961018834198 4.568814229612616 0 0 1
4080 1 18.95189103244411 3.843321660036876 4.564726489524038 0 1 0
621 1 21.785032440089715 4.329834867151824 4.281980089030166 1 -1 0
3077 1 27.98530113576874 6.684501320660908 3.2425670815405168 0 1 1
989 1 28.688171299527763 4.578725085434617 5.03877841790548 -1 0 1
3410 1 31.447258195168576 4.105851488301872 5.102704974464068 -1 1 0
4116 1 38.756897395769684 5.103640120392434 4.915192961493374 0 1 1
3276 1 43.3029391880774 4.821105477390101 3.6750332501577265 -1 0 0
1886 1 43.97983626098783 2.6323716566894957 5.165157611364575 0 0 1
100 1 47.42736564875357 6.022569744548521 4.306993904087992 -1 0 0
1027 1 47.91165995084393 2.181349932975968 7.587702594639945 0 0 1
2144 1 0.32900310715957914 8.464324654559865 5.1522819266096125 0 0 1
4158 1 8.941273879935487 6.871801346544519 5.999520763187978 1 1 2
2153 1 9.795867649077737 8.62078994050762 2.4459455573568145 -1 1 0
1544 1 11.768716051371495 10.52787166773764 4.936614105020649 -1 1 1
1772 1 16.840838696958144 10.450971631769082 2.9585532632202423 1 0 2
83 1 19.461247187901805 8.696328067268361 5.3321300822317905 1 0 1
3561 1 21.38045543064423 7.009638780149773 3.7682724792757374 0 1 1
4170 1 27.714642698321143 8.507179922348902 5.568793134733215 0 -1 1
7 1 27.977783886565653 4.968525929971994 7.603831357090044 0 1 1
4108 1 32.65369856282445 7.028611763396066 5.132830011931537 0 1 1
1317 1 30.41508452856105 9.596142082553364 6.862322355843257 0 0 0
1582 1 40.78319856590414 7.772042504447921 2.251065745311705 0 0 1
1526 1 41.95621518906091 7.100128836844453 4.723552324473245 0 -1 1
1232 1 46.61203376954103 7.204436711653111 6.733021626142003 1 1 0
1599 1 3.047886939232989 10.005274759935865 6.2906484156206375 1 0 1
1534 1 8.330510954201335 10.53732454293946 3.684741232540657 -1 0 0
56 1 10.23031807536326 12.54480482692372 3.2374405305560154 1 1 0
2176 1 13.676654498467359 12.225605648953554 5.99493208326 1 0 -1
3304 1 17.062784898034057 14.145229406757666 5.9315939299626494 0 0 0
214 1 20.374223600568843 13.160764928840994 2.261387693827394 -1 0 0
95 1 19.72045758925753 10.56209908142612 2.889012043272575 0 0 0
659 1 21.922906514753187 10.499808476075696 4.931631746556049 1 -1 -1
553 1 25.32440790516407 9.572181338951763 5.907611573742058 1 0 1
1157 1 25.12145856655847 12.50689088314571 6.007115659760389 0 0 0
3037 1 27.817414759637145 11.612677284452444 6.851534399955998 0 1 0
238 1 32.755753383368294 11.259172213099578 6.5197506021607206 0 1 0
921 1 35.56934715076382 8.769882040168397 3.039641770965132 0 0 0
3346 1 40.51828415880025 12.375354031334872 5.046824343578164 1 1 1
687 1 48.060916494532066 9.58201055513003 5.971882775049478 0 0 0
85 1 1.5853206283330843 12.103748219316762 7.695885744437658 1 -1 1
1407 1 4.971006287748102 12.955227120843324 3.249225960019237 1 1 1
1807 1 7.538529492837074 13.312248290852269 5.016854250438905 0 0 1
3081 1 10.048380694973732 14.652744300865525 5.365884516275501 0 0 1
2961 1 13.028031044074117 14.7752455521682 5.042763127676578 0 1 1
3205 1 15.606370900818703 15.939660427560597 3.9876370621400756 0 2 1
825 1 21.79061682589926 14.666412179596398 6.2265808431437355 1 0 0
4053 1 22.654246737159138 12.925675139641942 4.039217155938359 0 0 1
615 1 24.793524258025197 15.233042742468694 4.58524563650348 -1 0 -1
877 1 27.395420989830953 15.620170790747881 3.6829381212823145 0 0 0
3432 1 31.087179632265943 13.068041223806096 5.115340893949099 -1 0 0
3322 1 32.27209663865772 15.455679185616356 6.182861319935425 0 0 0
3416 1 35.0458509245955 13.325113837763688 7.414188227206047 0 0 1
532 1 38.94438518762489 14.770302689492341 4.3844841817884035 -1 0 1
342 1 40.0078673473404 12.18004484724195 7.576069515157139 1 0 0
99 1 44.890358526718714 13.865134492001694 6.640232286840249 0 0 0
2967 1 0.031630352273922954 13.584792053532107 5.759735990769481 0 1 0
3803 1 2.7998164479152416 16.935820461059073 5.073664479591978 1 1 1
607 1 4.136656452231738 15.926549068975586 2.7426694998692844 0 0 1
2997 1 6.853068141258447 15.871375132786183 3.640022495876334 -1 1 0
2027 1 9.814654997645361 16.962575134243007 3.4648419209678916 0 0 1
2526 1 13.121371867721223 17.76458074283731 3.466824672385794 0 1 0
3078 1 16.464775304151367 18.601671020176184 4.290485606715065 0 0 1
2349 1 19.970222415712147 16.465600223063582 4.94136222571332 -1 0 -1
3258 1 21.6565356580729 18.310460551083402 3.656790135251023 0 1 1
2535 1 27.928329781170053 16.942519165132182 6.080129472001673 0 1 2
3039 1 33.906508473712734 18.15191259405417 3.6380707211796417 0 0 1
550 1 34.79462848844255 16.37980562424794 5.3432924635936985 0 0 0
435 1 40.06549945613618 17.05473144982138 5.3280506011381945 0 0 1
2131 1 42.2969207614171 16.693690660457925 6.772382866977669 0 0 0
4133 1 44.339451238761825 16.089153871634153 4.842092888461138 -1 1 1
1144 1 47.15610788395555 16.573504324481604 6.1340801937275 0 0 0
4139 1 49.90127816167619 16.72300738812018 5.464103811062579 1 1 1
3019 1 2.2512846860251816 20.37060760346049 2.985054986215149 2 0 0
1552 1 0.25977631612429075 21.16342898704547 4.670089650446896 1 0 1
1495 1 4.202212387759336 19.522514874902264 5.193221303930529 0 0 -1
3751 1 6.641748295224108 18.56286640887924 4.940164930341558 1 1 1
1147 1 8.566254182785954 19.992739935623387 3.8049781981556854 0 0 1
2580 1 10.655827028918582 21.35217673164673 4.963039663025231 0 0 0
3589 1 12.621341224327791 19.425249251980134 5.71771163672181 -1 0 1
2274 1 15.44020101690716 20.176800410569705 6.654922317624286 1 0 0
1178 1 24.167234079356582 22.237427047037542 3.532120809872027 0 0 1
3868 1 26.677490391769254 19.697962477654034 6.01577915408828 0 1 1
2058 1 29.25679714313963 20.472709871907497 6.541351135545917 0 1 1
3867 1 36.13439562511743 21.488538752334687 5.534681510540668 1 0 1
3580 1 40.06211596731403 21.14481937431071 5.058175475697959 -1 1 1
690 1 38.23027432441969 20.613934963550484 7.149586196586939 0 0 0
2394 1 42.3564357951878 19.785947284734707 6.565087047579466 1 0 0
1766 1 43.755618091223944 18.802319747187966 4.091643908547768 0 0 2
3650 1 45.49108356417451 21.232780220542455 5.430618032758254 0 0 1
907 1 45.730157826707725 4.263726904620352 0.015333786681444292 -1 -1 1
3733 1 3.993735884642211 24.506169199737176 3.9322240103364674 0 0 0
2004 1 5.095364253408904 22.49134923118423 5.323339033911987 0 -1 0
1845 1 13.926741381070904 23.596919008188348 3.4277844559426387 0 0 0
642 1 16.671642631487643 22.635969303745497 2.545795189945941 -1 0 0
2999 1 25.492193525049114 23.87328552579403 12.770356462179057 -1 1 1
4033 1 19.098283951856164 22.78336162455399 4.036422293235533 1 0 1
2293 1 21.793025546521054 21.431843846626514 2.7378438271878585 0 0 0
609 1 41.23744237612082 18.725949257887947 15.580372185403862 1 -1 -1
2512 1 26.607883504192014 23.837851442897673 6.401733223762664 0 0 1
2096 1 29.243700537689357 5.236978685652675 0.853877185211328 0 0 1
2733 1 30.942189262984687 24.729590724205188 6.024517951439375 0 0 0
2136 1 35.9867203513745 24.305722536437347 5.265041838653714 0 0 0
2306 1 21.642312659661147 0.9462946913329446 9.3848111998315 0 1 0
2317 1 31.313356747712273 9.118405601742667 16.040251274041093 0 1 0
1046 1 42.87518618240331 22.796112691068846 5.513901683922597 1 0 1
3255 1 1.7120227897679403 0.9695140453499125 8.937696532814659 1 0 1
1716 1 46.81509625429707 6.134265770051072 16.335269386450157 0 0 1
282 1 4.110041655548835 2.81703859428883 9.882359612833362 0 0 1
1793 1 9.48278796506919 1.2024360128676752 9.613333347861634 1 0 0
2627 1 40.59142128333356 12.056549870987546 16.104144169834626 0 1 0
168 1 9.059157907026396 24.52838671143357 15.176185810883196 1 -1 0
3165 1 16.35247594018686 4.6188715443068205 9.22326467741402 1 1 0
2876 1 22.257914826975664 3.501879878361357 9.33909814924622 2 1 1
1004 1 25.37454310857257 1.6546129818524957 6.754635531718352 0 0 0
3120 1 8.226558521891487 24.4958730661494 7.899799627228697 0 1 1
2168 1 34.99591661085663 24.618220078056858 7.790078957736326 -1 0 0
2188 1 43.719406933365505 0.3384849376538577 3.515906448292477 -1 0 0
1841 1 35.710922804393604 1.924764794399895 8.967815114473328 -1 0 1
1271 1 38.27585023939196 1.1747596571054988 9.330118885053928 0 0 -1
507 1 39.79654289205254 1.628982561118443 7.125105219748082 -1 0 0
3968 1 42.423105963641355 2.8987400180170084 7.624581908776597 0 0 0
3471 1 14.321648724623888 6.898176516485207 0.18349797508144217 1 1 0
334 1 44.096451350729296 1.7510405167068224 9.371058714879226 0 1 0
4029 1 0.340182116493196 2.796208895598214 7.4507842313644 1 0 1
4160 1 5.028643903407961 6.250375597165646 7.512853427027808 0 1 0
3200 1 5.935205210264833 3.5586784758484096 7.771046034050272 0 1 0
4062 1 11.931221099083457 4.13716007296587 5.814599359656203 0 0 1
696 1 8.53515110975818 3.1765173764883325 8.085446288578314 1 -1 -1
671 1 14.090696941211947 4.346236285171334 7.385220115104026 1 0 0
3025 1 18.02041757557109 3.5311992121649487 13.196920651845495 0 0 1
3793 1 18.46785370963829 5.058692351204089 6.945074455606348 1 1 1
44 1 17.599653795613815 6.191462600418588 10.984019583383864 0 2 1
3215 1 21.718394416260537 6.302492463583353 12.834136707028115 -1 1 1
1154 1 23.206174428736944 3.458399519471218 6.663420690808254 -2 0 1
155 1 24.635381364497107 5.833441000168516 5.958922455923171 0 0 0
983 1 27.300840075423388 2.5139612729130505 8.571980713681135 0 0 0
2523 1 31.19303376103608 3.7537939427680564 10.084288171191572 0 1 1
1260 1 32.59504283283193 4.370446303196357 7.737851873563296 -1 -1 1
3166 1 36.53645059297689 6.010909164985318 6.713547380972899 0 1 1
3203 1 37.09025749994016 6.284602971782867 9.250430430180026 0 1 0
2146 1 42.14484108958446 5.4612073098403835 8.379245990635473 -1 1 0
2288 1 46.47918889888148 3.0950555372665227 9.66697481074626 0 2 0
1214 1 2.1964454892008827 6.886793800515084 6.984914724106369 0 1 0
843 1 0.4223607846531763 5.575718810405276 8.266466783369875 0 0 0
4129 1 6.5526097848446 8.455767787861575 8.515492743369924 0 1 0
3764 1 13.407676007843518 8.469648405751666 8.962848226615394 0 1 0
2429 1 14.682285675551526 7.083313499054694 6.7155517450505675 1 1 0
1257 1 17.120139390332536 6.860196713178785 5.2547255465188885 0 0 0
637 1 16.709522141636484 9.420242912458717 6.977798443893266 1 0 -1
2227 1 22.48212723705326 7.47092406880267 6.649332630484432 -1 1 1
1190 1 20.84245363905863 5.650234181313362 7.88448969994436 0 0 0
2007 1 27.407046434182526 9.54704982968011 8.799500520954687 0 0 1
4132 1 32.03181200798401 7.2196140105323385 7.787607263783973 0 0 1
647 1 33.63005223280341 8.389482350101094 9.292787207160565 -1 1 1
3935 1 35.191835549323166 7.798663810371759 5.32549658072476 1 1 1
752 1 39.95626581005947 9.24034870561164 7.382243722461458 -1 0 0
1861 1 40.350126929917515 6.635030845154087 6.878533335165411 -1 0 1
2807 1 44.20700666551827 9.027214106644049 5.13598075982569 0 1 0
3146 1 46.403326991414126 5.838468156281203 10.273369261482182 0 1 1
1471 1 44.33562338363533 7.3045518749261875 8.714087465392176 0 -1 0
1690 1 48.4889325173499 7.281370265982461 8.70894547317032 -1 0 1
3820 1 3.386092222649607 8.79496270369138 9.149325456100172 1 0 1
977 1 3.2882572711483125 11.585417653673183 10.01177757695906 0 0 0
2799 1 4.213554918155701 12.859506625951305 5.918804003597188 0 1 0
2366 1 7.776176504415179 9.37963011341857 6.2718680124079675 0 0 1
1855 1 5.885956695975956 10.74478582417769 9.822231485248555 0 0 0
1709 1 10.090759609913464 10.197578222234128 7.169002497158114 1 0 1
18 1 10.607505994241274 12.958635268513593 7.80737797956574 -1 0 0
2232 1 13.128183040719884 11.358700617723828 8.644770525402832 2 1 0
3866 1 15.473513334642943 13.088002946315457 9.890844517820108 0 1 1
178 1 16.06875269393698 11.563312957118097 5.336063750361197 0 0 0
561 1 19.427036399860466 10.901284890644913 7.518860968047557 0 0 0
2834 1 21.97891307355838 9.897139489669124 7.8092447366953355 0 0 0
1284 1 20.090581778913503 9.72747123959937 10.344376036225217 -1 0 0
3271 1 24.695162404615484 9.482577067965584 9.415709663278525 0 1 1
988 1 29.597712477487317 13.50869433360944 7.555339841959535 0 0 0
2318 1 35.26101462858939 10.011060403461718 7.312391080778946 0 -1 0
3542 1 33.67711264688409 11.220614812115326 10.460263375425276 -1 1 0
3427 1 37.55228266816198 10.962062650137005 8.620254324616836 1 -1 1
2610 1 39.35786998890926 9.940906267315766 4.726854530426018 0 0 0
3224 1 42.31298664511137 10.692433909932287 8.519335429820327 0 0 0
49 1 43.32505369789341 11.760724960865486 6.0030151465745 -1 0 0
4007 1 45.30768177321408 9.876889468558819 7.850333275120575 -1 1 1
2571 1 49.660580240497616 9.854210426121268 8.77685416548468 0 0 0
1764 1 1.1537498838746603 15.426625960381395 8.495495676131195 1 0 2
86 1 3.4158749458907267 15.357766699848428 7.0391102346433305 0 0 0
2818 1 6.233242472595701 13.198674556603953 8.09960326939943 1 1 0
3151 1 8.867313090622645 14.437313644836333 9.328799582818915 0 2 1
3644 1 18.642947704217118 15.681548147679525 9.901617497748141 1 1 0
2868 1 19.964471293771265 13.795308605059498 7.780050047270477 1 0 0
1750 1 22.81212954737124 15.179711922946833 9.180563618298596 1 0 0
3574 1 26.98435152111135 14.687168404772605 8.013027765909055 0 1 0
108 1 29.126392663750345 16.824408058096623 9.074743619071958 1 0 0
517 1 32.55366968512846 14.197518906822872 8.699258122418673 -2 0 0
2280 1 36.6026230611658 14.899861333671986 9.229845831169303 1 1 -1
3006 1 39.21971683637589 14.222009110487479 9.751410477888445 0 1 1
2102 1 43.237340453034506 12.210649725290178 10.896183045980212 0 0 1
1018 1 41.79713603378886 14.30969181367646 8.31083588248541 -2 0 0
3804 1 47.49175520059893 12.492983931716521 6.216235734695729 0 0 1
3003 1 48.708929665925375 14.021667213921829 8.939593193098556 0 1 1
1963 1 0.5918746215412358 18.911462047174176 6.620814210106816 2 -1 1
2141 1 49.06863265443671 19.30114136685272 9.086185932277374 -1 1 -1
2946 1 5.720421749114551 15.897077764083187 8.657035190501219 0 1 1
3634 1 7.255311498434844 17.923149264185597 7.463370486302398 -2 0 1
1125 1 10.314392005839911 16.11632869117574 11.65456278275135 1 0 0
3152 1 9.764269753766875 16.68582177972579 7.518647855960887 1 0 0
415 1 11.28389977322702 19.153127397692568 8.296591531903807 -1 -1 0
2583 1 16.442981094254726 15.31803370081079 8.444002411864032 0 0 -1
2072 1 17.850454985871455 17.529800069347104 6.365683590779703 1 0 0
1781 1 22.04573702016047 18.552510935587275 6.794118400814465 0 0 0
1390 1 24.659624381740468 18.67630501484223 7.840011910508921 1 -1 0
681 1 24.612611496142584 15.791086772645873 7.308849452783096 1 1 -1
3876 1 27.227202395078205 19.170879441415657 10.079895607098514 -1 -1 1
1145 1 30.791018761955456 17.5246439306422 6.533285235531122 -1 1 1
2695 1 31.95793681406917 18.38586541714018 9.124392155756558 0 0 0
3992 1 34.54464030465057 19.101618959424258 8.83785721713983 0 1 0
353 1 36.146625666098814 17.024841514802517 7.488600393400303 1 0 -1
1209 1 38.869459054918856 18.05071077613199 7.732385156655628 1 -1 1
3940 1 42.882766011394125 17.50637861174051 9.446587292894566 -1 0 1
975 1 44.08461031349788 14.767979849678547 9.659857735615127 -1 0 0
1470 1 46.56042374762679 15.861534857206829 8.547334133358488 -2 0 0
1378 1 0.28780499216675737 23.11317292549732 6.258813988399914 0 0 0
797 1 2.869885650451576 19.777005583362524 7.933151811310465 0 0 0
2862 1 7.458600212621496 20.308218980236507 8.757070698371319 1 0 0
1499 1 9.982681051074172 21.19049603839162 9.742796532030653 0 -1 0
2739 1 13.0743812666281 21.78556966149651 10.50165842770492 1 0 -1
3267 1 16.322818386427006 18.48806311235941 9.072469214293633 0 0 1
745 1 19.519379677362974 19.492541846459382 7.527396122094176 1 1 1
1052 1 22.16163159515359 21.29639732387413 5.837307878831965 0 0 0
4174 1 29.03787482415302 22.811795012985446 4.955521584202991 0 1 2
3770 1 24.281956211488875 22.677171018222143 10.565831859848904 0 0 1
1066 1 28.91925489869894 21.175660278562276 9.01444323818438 -1 1 0
2774 1 31.663149474455594 19.83729213237791 5.194338316149092 0 0 -1
363 1 33.83083904088497 20.786834518212473 6.509126193897509 0 0 -1
131 1 40.27266612491689 18.61450179781482 10.144294149180745 0 -1 0
4137 1 44.76291357663448 19.39566987809908 9.483215057153918 0 0 1
2618 1 6.1164463041185755 22.640422008323924 8.170430369412035 1 1 0
3668 1 2.8410144221271634 22.523881437621817 7.615477472726989 1 1 1
2778 1 10.34739350001527 23.72954899326147 6.4441784431307925 0 1 0
520 1 12.59369327012889 23.70012375053341 8.273121142724447 0 0 0
2912 1 14.121286053915082 22.577791349432708 5.9969386538321245 1 0 0
2031 1 18.218965680619895 21.914869448896837 6.608132067978335 0 0 0
2147 1 24.780819257431695 21.8840511601823 6.550428197916432 2 1 0
3286 1 21.09282886239874 23.520055451795873 7.2290847020221936 1 0 0
2728 1 27.016686996897793 23.271759399845713 9.140822067712008 -1 0 0
1620 1 32.33489787362181 23.01568291868737 7.844978096589559 0 0 0
279 1 48.95134309751411 -0.06660017300349232 -0.0570904748240762 0 1 0
1469 1 36.86686340443715 23.580657461584945 9.829861609848809 0 -1 1
1574 1 39.18430862229662 22.58374235272131 8.736266360666482 0 0 1
3352 1 42.204161670874015 24.309401598430963 8.72859863116895 -1 0 0
2574 1 43.813921375669736 22.027643592915616 8.349046669617442 0 0 0
962 1 46.26976418604563 23.20378624305743 7.456172339444282 0 -1 0
3116 1 46.24198104804947 24.860320933232806 10.196872292304612 -1 1 1
2534 1 1.1177948585264228 22.381614609030898 15.949345247306535 0 1 0
2060 1 0.45443148618428186 0.84455562121462 11.524584927430164 2 0 1
2659 1 6.23309618540982 1.6021068461496126 11.52937832601328 1 1 0
4103 1 15.993680181227436 24.2053155926723 7.608389191128022 0 1 1
3702 1 13.875415348371218 2.736767429349843 11.239999277620164 0 0 1
2108 1 16.477058844662732 2.4447729564289253 10.860613946969655 1 1 -1
2840 1 20.421839790385476 3.9278003954003395 11.972373225071642 -1 1 1
1601 1 13.774616124035733 24.64254371213169 0.22347525301420357 1 0 0
206 1 25.0477034164082 2.4485231895650146 10.322496004646597 0 -1 0
2780 1 24.29201085542509 1.4879795690497755 13.19145913287667 1 1 0
4089 1 27.693838179372882 2.547699732693607 11.872692045457866 0 1 1
623 1 2.47797948480044 21.103605150984485 12.259567315490333 0 0 -1
2665 1 31.24184650938593 2.32938420437285 14.772135801508847 0 2 0
64 1 18.463796845681834 24.164203611975218 12.364897720903004 0 0 0
2939 1 34.19856139027221 1.6513214629001125 11.357009282944258 -1 1 2
1870 1 24.337356817211038 16.6435453238553 0.31156911436439555 0 0 0