
# Create simulation box of size 50 x 50 x 50 Angstrom
#
lattice	            sc 1
Lattice spacing in x,y,z = 1.0000000 1.0000000 1.0000000
region 	            all block 0 50 0 50 0 50 units box
create_box          1 all
Created orthogonal box = (0.0000000 0.0000000 0.0000000) to (50.000000 50.000000 50.000000)
  1 by 2 by 3 MPI processor grid

# fill box with 4175 randomly distributed atoms
#
create_atoms        1 random 4175 63782 all
Created 4175 atoms
  create_atoms CPU = 0.000 seconds
mass                1 18.015

# Define potential
#
pair_style          sw
pair_coeff          * * ML_mW.sw mW
Reading sw potential file ML_mW.sw with DATE: 2019-02-27

# Run minimization
#
minimize            1.0e-8 1.0e-8 10000 1000
WARNING: Using 'neigh_modify every 1 delay 0 check yes' setting during minimization (../min.cpp:187)
Neighbor list info ...
  update every 1 steps, delay 0 steps, check yes
  max neighbors/atom: 2000, page size: 100000
  master list distance cutoff = 6.0032907
  ghost atom cutoff = 6.0032907
  binsize = 3.0016454, bins = 17 17 17
  1 neighbor lists, perpetual/occasional/extra = 1 0 0
  (1) pair sw, perpetual
      attributes: full, newton on
      pair build: full/bin/atomonly
      stencil: full/bin/3d
      bin: standard
Per MPI rank memory allocation (min/avg/max) = 4.255 | 4.258 | 4.261 Mbytes
Step Temp E_pair E_mol TotEng Press 
       0            0    7792709.3            0    7792709.3    5898794.3 
     630            0   -45180.336            0   -45180.336   -154.07449 
Loop time of 1.13301 on 6 procs for 630 steps with 4175 atoms

98.6% CPU use with 6 MPI tasks x no OpenMP threads

Minimization stats:
  Stopping criterion = max force evaluations
  Energy initial, next-to-last, final = 
      7792709.32924461  -45180.0188663597   -45180.336116598
  Force two-norm initial, final = 2.0191930e+08 4.9721331
  Force max component initial, final = 1.0948746e+08 0.73126211
  Final line search alpha, max atom move = 0.053306038 0.038980685
  Iterations, force evaluations = 630 1000

MPI task timing breakdown:
Section |  min time  |  avg time  |  max time  |%varavg| %total
---------------------------------------------------------------
Pair    | 0.86756    | 0.97336    | 1.0518     |   5.7 | 85.91
Neigh   | 0.023776   | 0.024618   | 0.025582   |   0.4 |  2.17
Comm    | 0.035887   | 0.11498    | 0.22217    |  16.6 | 10.15
Output  | 0          | 0          | 0          |   0.0 |  0.00
Modify  | 0          | 0          | 0          |   0.0 |  0.00
Other   |            | 0.02005    |            |       |  1.77

Nlocal:        695.833 ave         704 max         685 min
Histogram: 1 1 0 0 1 0 0 1 0 2
Nghost:        1494.17 ave        1515 max        1468 min
Histogram: 1 1 0 0 0 0 1 1 1 1
Neighs:        0.00000 ave           0 max           0 min
Histogram: 6 0 0 0 0 0 0 0 0 0
FullNghs:      19997.0 ave       20462 max       19320 min
Histogram: 1 1 0 0 0 0 0 2 0 2

Total # of neighbors = 119982
Ave neighs/atom = 28.738204
Neighbor list builds = 26
Dangerous builds = 0

# Add velocity/set timestep
#
velocity            all create ${TEMP} 120598 rot yes dist gaussian
velocity            all create 225 120598 rot yes dist gaussian
timestep            5.0

# Define output
#
compute	            1 all msd
thermo	            100
thermo_style        custom step temp press vol etotal ke pe c_1[4] density

# Neighbor lists
#
neigh_modify        delay 0 every 1 check yes

# Set fixes
#
fix                 1 all momentum 10 linear 1 1 1 rescale
fix                 2 all nve
fix                 3 all temp/csvr ${TEMP} ${TEMP} 500.0 928347
fix                 3 all temp/csvr 225 ${TEMP} 500.0 928347
fix                 3 all temp/csvr 225 225 500.0 928347
fix                 4 all press/berendsen iso ${PRES} ${PRES} 1000.0 modulus 20000
fix                 4 all press/berendsen iso 300 ${PRES} 1000.0 modulus 20000
fix                 4 all press/berendsen iso 300 300 1000.0 modulus 20000

# Run 0.5 ns equilibration
#
dump                1 all custom 1000 eq.${NAME}.dump id type x y z vx vy vz
dump                1 all custom 1000 eq.liquid_density_MLmW.dump id type x y z vx vy vz
run                 100000
Per MPI rank memory allocation (min/avg/max) = 3.506 | 3.508 | 3.511 Mbytes
Step Temp Press Volume TotEng KinEng PotEng c_1[4] Density 
     630          225    869.67124       125000   -42380.908    2799.4278   -45180.336 2.7295415e-33   0.99914793 
     700    143.17437    189.73281    125221.04   -41521.514    1781.3613   -43302.876   0.26648743   0.99738425 
     800     177.2953   -19.160704    125020.12   -40741.486    2205.8906   -42947.377   0.63310414   0.99898714 
     900    198.42613    227.35403     124686.1   -40321.855    2468.7983   -42790.653    1.1367598    1.0016633 
    1000    207.56325    305.42314    124871.21   -40040.575    2582.4815   -42623.056    1.5819666    1.0001784 
    1100    219.36908    240.77473    124969.38     -39862.9    2729.3684   -42592.268     2.029931   0.99939277 
    1200     216.1598    339.44693     125107.4   -39885.538    2689.4389   -42574.977    2.4263127   0.99829019 
    1300    217.35137    251.23589     125166.6   -39875.915    2704.2643    -42580.18    2.7898852   0.99781802 
    1400     218.6597    161.90378    125182.08   -39884.071    2720.5423   -42604.613    3.1213571   0.99769469 
    1500    221.35737    398.95016    125416.81   -39836.521    2754.1065   -42590.628    3.4565052   0.99582735 
    1600    226.61449    284.70245    125279.88   -39721.769    2819.5151   -42541.284    3.8815094    0.9969158 
    1700    225.21863    271.83201    124927.22   -39756.155    2802.1479   -42558.303    4.1818259   0.99973003 
    1800    220.00806    308.91482     124885.2   -39840.823    2737.3186   -42578.141    4.6082437    1.0000664 
    1900     224.0823    335.61547    124884.66   -39810.572    2788.0098   -42598.582    5.0510863    1.0000707 
    2000    223.19894    443.39817    125096.57   -39753.599    2777.0191   -42530.618    5.4840981   0.99837666 
    2100    229.56602    154.57327    125199.73   -39707.784    2856.2377   -42564.022    5.8342359   0.99755403 
    2200    223.70679    282.96657    125149.55   -39746.146    2783.3378   -42529.484    6.4003136   0.99795395 
    2300    228.72182    206.68022    125351.86   -39738.902    2845.7342   -42584.637     6.838875   0.99634334 
    2400     226.7155     206.2007    125115.72   -39773.659    2820.7718   -42594.431    7.2008512   0.99822379 
    2500    228.77709    190.34436    125208.91    -39720.11     2846.422   -42566.532    7.5397669   0.99748088 
    2600    229.38561    368.96613    125022.49    -39655.95    2853.9931   -42509.943    7.7925935   0.99896821 
    2700    229.65356    184.54383    125204.56   -39671.682    2857.3269   -42529.009    8.0638194   0.99751551 
    2800    232.51198    571.72102    125168.12   -39662.078    2892.8911   -42554.969    8.4163259   0.99780589 
    2900    231.07876    355.85226    125499.16   -39729.984    2875.0591   -42605.043    8.8527197   0.99517388 
    3000    224.97631     315.2405    125355.77   -39766.636     2799.133   -42565.769    9.2063639    0.9963123 
    3100    227.13851    412.00624    125269.04   -39739.079    2826.0349   -42565.114    9.7364683   0.99700206 
    3200    223.91223    493.83224     125401.8   -39776.652    2785.8938   -42562.546    10.067475   0.99594652 
    3300    225.58673    175.91798    125320.31    -39753.03    2806.7278   -42559.758    10.477566   0.99659414 
    3400    225.58361     303.1321    125208.21   -39782.296     2806.689   -42588.985    10.816537   0.99748647 
    3500     225.2165    368.22829    125263.29   -39828.637    2802.1215   -42630.758    11.241865   0.99704779 
    3600    222.95101    337.29427    125388.58   -39875.753    2773.9344   -42649.687    11.723298   0.99605156 
    3700    221.70107    213.68572    125188.42   -39947.419    2758.3828   -42705.802    11.941632   0.99764413 
    3800    224.94378    233.12663    125035.13   -39900.616    2798.7282   -42699.345    12.163893   0.99886722 
    3900    219.36883     290.0714    125193.14   -39926.819    2729.3653   -42656.184    12.500278   0.99760649 
    4000    222.00729    405.23061    125366.81    -39917.09    2762.1927   -42679.282    12.802324   0.99622451 
    4100    220.99932     375.2999    125297.62   -39885.049    2749.6518   -42634.701    13.153335   0.99677462 
    4200    223.36973    390.21034    125215.27   -39893.987    2779.1442   -42673.132    13.554948    0.9974302 
    4300     227.8341    410.37295    125545.82   -39914.662    2834.6894   -42749.352       13.807   0.99480404 
    4400    226.81498    331.08025    125383.42   -39924.006    2822.0096   -42746.015    14.180271   0.99609256 
    4500    221.37084    245.79842    125488.52   -39930.748    2754.2741   -42685.022    14.390039    0.9952583 
    4600    220.60875    488.37866    125486.05   -39957.038    2744.7923    -42701.83    14.524901    0.9952779 
    4700    230.23541    314.19813    125545.36   -39876.615    2864.5662   -42741.181      14.5971   0.99480771 
    4800     226.3102    408.96752    125588.58   -39947.499    2815.7291   -42763.228    14.928399   0.99446531 
    4900    228.30429    173.12494    125660.34   -39824.383    2840.5394   -42664.923    15.242871   0.99389744 
    5000     226.1679    275.46201    125566.08   -39767.262    2813.9587   -42581.221    15.760462   0.99464358 
    5100    226.92289    453.26806     125543.5   -39830.906    2823.3521   -42654.258    16.090636   0.99482245 
    5200    223.87188    451.51802    125652.27   -39895.111    2785.3918   -42680.503    16.400427   0.99396129 
    5300    225.58319    464.27429    125722.56   -39871.211    2806.6837   -42677.895    16.645393   0.99340557 
    5400    228.33507    307.08483    125833.53   -39919.425    2840.9224   -42760.347    16.776721   0.99252953 
    5500     219.7129    205.19267    125878.05   -39920.982    2733.6462   -42654.628    17.100701    0.9921785 
    5600    225.22959    279.94005    125731.03   -39912.064    2802.2842   -42714.349    17.493739   0.99333866 
    5700    223.90337    282.23299     125811.3   -39914.432    2785.7835   -42700.215     17.69072   0.99270491 
    5800    224.09816    237.97108    125939.88   -39934.346    2788.2072   -42722.553    18.139176   0.99169134 
    5900    224.86473    342.25109    126162.42   -39974.779    2797.7447   -42772.524    18.391994   0.98994209 
    6000    224.87109    460.49651     126218.9   -39994.714    2797.8239   -42792.538    18.727887   0.98949916 
    6100    227.94409    410.07324     126354.7   -39932.045    2836.0578   -42768.103    18.981142   0.98843569 
    6200    220.96382    492.35152    126322.73   -40002.549      2749.21   -42751.759    19.225039   0.98868578 
    6300     225.6152    421.36164    126449.76   -39988.674     2807.082   -42795.756    19.660128   0.98769259 
    6400    227.57079      204.164    126517.88   -39960.502    2831.4133   -42791.915    20.011131   0.98716082 
    6500    226.56597    245.97251    126464.55   -39918.136    2818.9114   -42737.048    20.366266   0.98757709 
    6600    223.29874    171.53922    126414.38   -39986.798    2778.2608   -42765.059    20.644347   0.98796903 
    6700    218.75921    209.63279    126329.27   -40060.245    2721.7805   -42782.026     20.87197   0.98863464 
    6800    223.98664    241.13314    126517.29   -39982.041    2786.8196    -42768.86    21.144495   0.98716542 
    6900    227.63487    580.32184    126364.08   -39918.951    2832.2106   -42751.161    21.406397   0.98836228 
    7000    233.09558     228.7201    126680.04   -39915.265    2900.1521   -42815.417    21.675031   0.98589719 
    7100    226.07349    246.98507    126681.64   -39932.409     2812.784   -42745.193    21.967595   0.98588472 
    7200    222.20905    271.79456    126699.32   -39989.039     2764.703   -42753.742    22.150026   0.98574711 
    7300    221.93697    487.04276    126506.52   -40044.647    2761.3179   -42805.965    22.282504   0.98724947 
    7400    223.02905    395.55433    126751.93   -40074.608    2774.9053   -42849.513    22.652631     0.985338 
    7500    223.88867     171.3988    126715.08   -40054.879    2785.6007    -42840.48    22.849937   0.98562452 
    7600     218.6868    436.48297    126645.24   -40135.539    2720.8795   -42856.419    23.158939   0.98616805 
    7700    225.31397    398.32721    126759.71    -40033.47    2803.3342   -42836.804    23.566945   0.98527753 
    7800    221.10004    448.46476    126669.62   -40013.869    2750.9049   -42764.774    23.813746   0.98597828 
    7900     224.5175    355.09661    126932.32   -40081.816    2793.4246   -42875.241    24.116557   0.98393765 
    8000    227.70366    269.30627    126670.19   -40070.569    2833.0664   -42903.635    24.315043   0.98597382 
    8100    221.30948    431.73025    126782.79   -40139.767    2753.5107   -42893.278    24.883583   0.98509811 
    8200    223.16402    308.20803    126947.04   -40161.703    2776.5847   -42938.287     25.04227   0.98382356 
    8300    223.66226    258.41251    126977.15    -40151.62    2782.7838   -42934.403     25.40547   0.98359027 
    8400    221.68028    449.70589    126969.82   -40117.544    2758.1241   -42875.668    25.833687   0.98364706 
    8500    226.49883    300.81007    127011.98   -40030.094    2818.0761    -42848.17    26.297345   0.98332052 
    8600    223.11452     113.9835    126943.21   -40029.409    2775.9688   -42805.378    26.661868   0.98385323 
    8700    224.64488    201.18882    126681.35   -39994.655    2795.0094   -42789.664    26.913938   0.98588694 
    8800    225.57079    347.54692    126595.78   -40034.846    2806.5294   -42841.376    27.168686   0.98655333 
    8900    220.34869     403.1593    126634.37   -40105.737    2741.5566   -42847.294    27.423175   0.98625271 
    9000    227.60282    183.03933    126598.89   -40058.304    2831.8118   -42890.116    27.614073   0.98652912 
    9100    221.17105    176.88014    126574.12   -40125.884    2751.7883   -42877.673    27.960235   0.98672216 
    9200    226.71179    131.80996    126623.91   -40018.083    2820.7257   -42838.809    28.237359   0.98633418 
    9300    224.68181     212.4639     126518.9   -40066.796    2795.4689   -42862.265    28.521929   0.98715287 
    9400    223.09488    293.21651    126654.51   -40022.008    2775.7244   -42797.732     28.64123   0.98609587 
    9500    225.23664    267.74212    126449.81   -40028.458     2802.372    -42830.83    28.933778   0.98769223 
    9600     224.8776    348.91593    126386.48   -39983.245    2797.9049    -42781.15    29.319226   0.98818709 
    9700    222.73762    247.72482     126705.8   -39910.763    2771.2795   -42682.043    29.875738   0.98569674 
    9800    225.88503    281.79068    126715.44   -39993.777    2810.4393   -42804.216     30.28048   0.98562177 
    9900    223.67965    240.78072    126813.96   -40061.793    2783.0001   -42844.793    30.526671   0.98485603 
   10000    221.00953    464.89868     127049.1   -40058.091    2749.7787    -42807.87    30.836677   0.98303323 
   10100    221.71053    303.89877    126923.56   -40048.965    2758.5005   -42807.466    31.075259   0.98400559 
   10200    222.88794    218.87081    126700.24   -40104.567    2773.1497   -42877.717    31.162647      0.98574 
   10300    225.92393     435.5015    126713.33    -40084.97    2810.9232   -42895.893    31.363332   0.98563813 
   10400    227.17587    310.17269    126750.29   -40019.241    2826.4997   -42845.741    31.418022   0.98535075 
   10500     226.7828    303.16391    126763.55   -39997.296    2821.6092   -42818.905    31.612525   0.98524765 
   10600    224.77971    225.68187    126564.78   -39952.704    2796.6869   -42749.391    32.054855   0.98679501 
   10700    232.73451    527.40898    126381.76   -39941.696    2895.6598   -42837.356    32.485023     0.988224 
   10800    223.95531    320.40757    126613.78    -39914.78    2786.4298    -42701.21    32.757426   0.98641309 
   10900    228.21534    465.70537    126886.04   -39956.487    2839.4327    -42795.92     33.05994   0.98429655 
   11000     223.6595    357.84347    126706.38   -39951.827    2782.7494   -42734.576    33.474559   0.98569222 
   11100    224.62708    49.622973    126678.45   -40008.456    2794.7879   -42803.244     33.64549   0.98590954 
   11200    225.64159     342.6482     126755.1    -40010.48    2807.4104   -42817.891    33.646925   0.98531331 
   11300    221.59683    287.67307    126704.58   -39994.823    2757.0859   -42751.909    34.008204    0.9857062 
   11400    224.61925    482.18466    126490.69   -39988.437    2794.6905   -42783.128    34.369401   0.98737295 
   11500    222.92235    154.54743    126644.83   -40017.147    2773.5778   -42790.725    34.631883   0.98617124 
   11600    221.63116    428.61498    126354.04   -40027.215     2757.513   -42784.728    34.664073   0.98844084 
   11700    223.18768    412.60777    126218.51   -39923.403    2776.8791   -42700.282    34.704957   0.98950219 
   11800    225.44321    338.95462    126210.25   -39982.613    2804.9422   -42787.555    35.135043   0.98956696 
   11900    224.87819    315.12151    126230.96   -39978.006    2797.9123   -42775.918    35.168871   0.98940458 
   12000    227.33358    375.41621    126107.07   -39977.472     2828.462   -42805.934    35.570193   0.99037661 
   12100    223.11136    298.29997    126263.22   -39920.629    2775.9294   -42696.558    36.033099    0.9891518 
   12200     225.3503    347.87791    126381.56   -39919.393    2803.7861   -42723.179    36.526425    0.9882256 
   12300    225.64922    302.18581    126326.69   -39945.439    2807.5053   -42752.944    36.834353   0.98865479 
   12400    228.94838     197.6469    126420.21   -39944.345    2848.5532   -42792.898     37.22361   0.98792349 
   12500    223.45626    364.19632       126432   -40039.977    2780.2207   -42820.198    37.726037   0.98783131 
   12600    226.09386    243.01789    126567.41   -39944.929    2813.0375   -42757.966    37.969897   0.98677446 
   12700    225.84826    303.24183    126455.77   -39921.501    2809.9818   -42731.483    38.342674   0.98764568 
   12800    226.97538    411.82508    126563.85   -39888.147    2824.0053   -42712.152    38.809315   0.98680223 
   12900    226.48499    98.613228    126568.35   -39957.124    2817.9039   -42775.027    39.166945   0.98676715 
   13000    221.91337    322.18257    126557.39   -39887.129    2761.0243   -42648.153     39.43982   0.98685258 
   13100    227.08195    277.52997    126512.87   -39880.436    2825.3311   -42705.767    39.829166   0.98719987 
   13200    228.39305    524.72992     126546.1   -39795.596    2841.6437    -42637.24    40.481647   0.98694063 
   13300    229.85704    388.65615    126481.17   -39831.204    2859.8586   -42691.063    40.638347   0.98744733 
   13400    224.76971    261.22358    126754.48    -39917.06    2796.5625   -42713.622    40.870998   0.98531818 
   13500    225.46529    345.75234    126578.77   -39961.709    2805.2168   -42766.926     41.14838    0.9866859 
   13600     226.0255    385.14533     126654.6   -39987.234    2812.1869   -42799.421    41.456537   0.98609521 
   13700    226.31608    246.32129    126586.91   -39996.444    2815.8023   -42812.246    41.429801   0.98662245 
   13800    226.95777    276.17068    126407.79   -39897.621    2823.7861   -42721.407    41.616068   0.98802054 
   13900    226.83351    294.51977    126495.56   -39929.065    2822.2401   -42751.305     42.17122     0.987335 
   14000    223.31465    328.84431    126467.22    -39914.59    2778.4587   -42693.048     42.37813   0.98755626 
   14100    228.54474    212.48098    126539.44   -39920.923     2843.531   -42764.454    42.634366   0.98699262 
   14200     226.1132    262.66468    126583.02   -39955.346    2813.2781   -42768.624    43.084764    0.9866528 
   14300    222.17182    286.12484    126619.13   -40015.001    2764.2398   -42779.241    43.191828    0.9863714 
   14400    224.92391    593.47676    126833.86   -40000.346    2798.4811   -42798.827    43.403975   0.98470146 
   14500    225.57081    206.50632    126746.91   -39958.569    2806.5297   -42765.099     43.92252   0.98537703 
   14600    225.35115    277.10729    126760.32    -39980.19    2803.7968   -42783.987    44.342836   0.98527275 
   14700    220.39825    231.02972    126933.38   -40026.656    2742.1733   -42768.829    44.659848   0.98392944 
   14800    223.40351    370.48917    126860.55   -40057.168    2779.5644   -42836.732    44.858792   0.98449433 
   14900    225.50204    354.12783     127001.6   -40128.933    2805.6741   -42934.607    45.339763   0.98340093 
   15000     221.5327    130.79265    127098.34   -40142.608     2756.288   -42898.896    45.623668    0.9826524 
   15100    218.47195    302.31826    127143.19   -40167.707    2718.2064   -42885.913    45.783688    0.9823058 
   15200    223.51338    75.440287    126861.18   -40096.097    2780.9313   -42877.028    46.036962   0.98448945 
   15300    222.54551    382.31803    126946.33   -40099.516    2768.8893   -42868.405    46.550956   0.98382906 
   15400    224.14704     102.9254     126943.7   -40081.178    2788.8153   -42869.993    47.097347   0.98384946 
   15500    226.02717    258.90104    126885.79   -40053.341    2812.2078   -42865.549    47.424091   0.98429849 
   15600    226.92733    194.69937     126889.9   -39978.326    2823.4074   -42801.734    47.725531   0.98426661 
   15700    221.75681     412.7669    126678.76   -40084.737    2759.0764   -42843.814    47.680237   0.98590711 
   15800       223.85    372.69336    126689.12   -40094.138    2785.1196   -42879.257    47.853674   0.98582652 
   15900    223.10675    371.97056    126714.28   -40126.208    2775.8721    -42902.08     48.00885   0.98563075 
   16000    226.95012     350.5579    126972.86   -40044.312    2823.6909   -42868.003    48.341327    0.9836235 
   16100    228.25046    371.10841    126784.34   -39984.827    2839.8696   -42824.697    48.656254   0.98508613 
   16200    220.32237    231.98445    126656.97   -40030.994    2741.2291   -42772.223    48.878757   0.98607673 
   16300    224.58856    280.71791    126678.18   -40032.304    2794.3086   -42826.613    49.000208   0.98591165 
   16400    227.18871    257.42036    126516.68   -39936.655    2826.6594   -42763.315    49.298937   0.98717016 
   16500    228.42613    209.18902       126449   -39927.188    2842.0553   -42769.243     49.67254   0.98769852 
   16600    226.90549    267.99444    126427.53   -39913.304    2823.1356   -42736.439    49.812267   0.98786622 
   16700    225.28563    301.15847    126334.46   -39940.834    2802.9816   -42743.816    50.087005   0.98859405 
   16800    226.36705     262.7662    126163.68   -39927.227    2816.4365   -42743.664    50.285064   0.98993219 
   16900    230.44445     178.4042    126201.59    -39886.79    2867.1671   -42753.958    50.756029   0.98963484 
   17000    227.46836    457.49046    126249.57   -39908.461    2830.1389     -42738.6    51.174179   0.98925874 
   17100    230.79713    204.00195    126272.58   -39832.758    2871.5551   -42704.313    51.534714   0.98907848 
   17200     229.7194    270.35106    126261.07   -39858.353    2858.1461   -42716.499    51.909288   0.98916866 
   17300    220.85863    325.34748    126369.92    -39910.33    2747.9012   -42658.231    52.460965   0.98831665 
   17400    222.81077    253.79734    126462.66   -39948.056    2772.1896   -42720.246    52.785236   0.98759182 
   17500    226.53461    460.05892    126593.21   -39921.875    2818.5212   -42740.396    53.027526   0.98657335 
   17600    229.35535    487.38863    126692.92   -39897.473    2853.6166    -42751.09    53.293089   0.98579695 
   17700    227.45097    241.89837    126803.97   -39934.042    2829.9224   -42763.964    53.382584   0.98493357 
   17800    223.05078    78.879425    126581.88   -39942.086    2775.1758   -42717.262    53.591133   0.98666166 
   17900    229.37171    329.81959    126471.91   -39905.727    2853.8201   -42759.547    54.153536   0.98751958 
   18000    227.22843     278.7348     126711.4   -39846.819    2827.1536   -42673.973    54.464929   0.98565317 
   18100    223.50574    206.68793    126485.76   -39929.847    2780.8363   -42710.683    54.840539    0.9874115 
   18200    224.32844    502.14912    126597.39   -39953.779    2791.0723   -42744.852    55.325405   0.98654083 
   18300    225.71406    176.42076    126735.58   -39870.078     2808.312    -42678.39    55.437016   0.98546511 
   18400    223.77172     118.3653    126702.57   -39935.471    2784.1457   -42719.617    55.724187   0.98572184 
   18500    225.92938    349.29208     126491.8   -39898.036     2810.991   -42709.027    55.948507   0.98736431 
   18600    224.10301    195.72486    126486.21   -39946.423    2788.2675    -42734.69     56.54113   0.98740798 
   18700    227.15796    251.69581    126332.53   -39919.633    2826.2769    -42745.91    56.405989   0.98860908 
   18800    226.81346    371.64901    126413.44   -39905.164    2821.9907   -42727.155    56.920534   0.98797635 
   18900    225.14967    281.87952    126310.42   -39963.816      2801.29   -42765.106    57.169511   0.98878216 
   19000    229.28082    454.06514    126281.09   -39941.445    2852.6893   -42794.134    57.439996    0.9890118 
   19100    225.70751    336.21494    126279.91   -40004.045    2808.2306   -42812.275    57.832489   0.98902106 
   19200    224.38425    538.25781    126443.15   -39976.432    2791.7666   -42768.198    58.204489   0.98774421 
   19300    230.37178     343.0142    126803.93   -39926.348     2866.263   -42792.611    59.017242   0.98493393 
   19400    225.07607      200.608    126560.03   -39928.076    2800.3743    -42728.45    59.191635   0.98683202 
   19500    229.52691    306.54762    126755.81   -39909.341    2855.7511   -42765.092    59.418425   0.98530783 
   19600    227.24599    241.28886    126657.72   -39946.434    2827.3721   -42773.807    59.926361   0.98607092 
   19700    229.99351    359.25567    126502.97   -39930.357    2861.5565   -42791.913    60.244925   0.98727717 
   19800    228.69438    311.43882    126508.58   -39977.512    2845.3929   -42822.905    60.450895   0.98723338 
   19900     223.1693    538.76679    126500.81   -39985.163    2776.6503   -42761.813    60.903378   0.98729402 
   20000    223.21353    215.33038    126394.53   -40030.776    2777.2007   -42807.977    61.249852    0.9881242 
   20100    227.96014    305.58936    126275.64   -39987.428    2836.2575   -42823.685    61.430108   0.98905452 
   20200    222.64474     258.6899    126207.76    -40044.72    2770.1238   -42814.844     61.77082   0.98958646 
   20300    220.40302    401.10366    126416.17   -40066.632    2742.2326   -42808.865    62.259271   0.98795502 
   20400    222.41633    303.05491     126615.8   -40067.104     2767.282   -42834.386    62.578776   0.98639737 
   20500    225.15099    245.03708    126458.42   -40015.777    2801.3064   -42817.084    62.632332   0.98762496 
   20600    225.62184    453.09032    126596.73   -40045.166    2807.1647   -42852.331    62.704966   0.98654593 
   20700    227.08708    264.26862    126555.65   -40002.373     2825.395   -42827.768    63.061322   0.98686621 
   20800     227.8408    348.30825    126542.65   -40001.669    2834.7727   -42836.441    63.559962   0.98696755 
   20900    229.52637    149.20527     126426.1   -40062.695    2855.7444   -42918.439    63.913622   0.98787741 
   21000    219.90904    283.66328    126330.55    -40155.81    2736.0865   -42891.897    63.861611   0.98862458 
   21100    223.15998    259.09706    126338.62   -40169.645    2776.5345   -42946.179    63.980031   0.98856148 
   21200    223.16213     322.3818    126421.71   -40133.494    2776.5612   -42910.055     64.24993   0.98791174 
   21300    218.94517    378.43216    126617.62   -40135.764    2724.0941   -42859.858    64.460193   0.98638317 
   21400     222.9405    372.21876    126679.74   -40109.345    2773.8036   -42883.149    64.696437    0.9858995 
   21500    225.59785    204.53928    126904.15   -40113.893    2806.8661   -42920.759    65.009892   0.98415607 
   21600    227.15539    314.52569    126931.45   -40067.538    2826.2449   -42893.783    65.135994   0.98394438 
   21700    230.48787    362.87005     126900.9   -40032.144    2867.7072   -42899.852    65.312461   0.98418128 
   21800    224.59621    156.78361    126899.02   -40019.545    2794.4038   -42813.949    65.839199   0.98419587 
   21900    227.41284    358.93708    126875.29   -40045.587     2829.448   -42875.035    66.190479   0.98437993 
   22000    223.37819    424.47989    126928.34   -40095.965    2779.2493   -42875.214    66.609905   0.98396849 
   22100    228.62294    430.74867     127071.3   -40032.791     2844.504   -42877.295    67.041507   0.98286155 
   22200    225.60979    278.90837     126909.1   -40082.603    2807.0148   -42889.618    67.231976   0.98411771 
   22300    223.12953     291.0707    126963.87   -40066.854    2776.1556    -42843.01    67.741143   0.98369313 
   22400    222.82087    139.72928    126918.32   -40032.884    2772.3152   -42805.199    68.155578   0.98404624 
   22500    221.90757    109.69134    126875.18   -40029.157    2760.9521   -42790.109     68.71091   0.98438083 
   22600    230.76064    492.09505     127107.1   -39993.927    2871.1011   -42865.029    69.116425   0.98258467 
   22700    225.93322    277.71516    127299.41   -39997.941    2811.0388    -42808.98     69.23534   0.98110031 
   22800    226.66593    190.16014    127010.77   -39977.787    2820.1552   -42797.942    68.978746   0.98332996 
   22900    228.46017    341.72452    126954.78   -40032.146    2842.4788   -42874.625    69.319421   0.98376359 
   23000    224.49717    419.47334     126903.3   -40006.314    2793.1717   -42799.486     69.52096    0.9841627 
   23100    217.93415    229.81346    127006.52   -40097.186    2711.5152   -42808.701    69.862846    0.9833628 
   23200    226.04744     285.1366    126933.99   -40035.835      2812.46   -42848.295    69.968477    0.9839247 
   23300    222.76716    325.49185    126933.71   -40074.008     2771.647   -42845.655    70.118182   0.98392689 
   23400    226.61516    458.76896    127061.07   -39992.143    2819.5234   -42811.667    70.523018   0.98294062 
   23500    224.41923    178.63021    127131.58   -40052.193    2792.2019   -42844.395    70.750744   0.98239546 
   23600    222.72801    274.91596    127045.69   -40043.987    2771.1599   -42815.146    70.909493   0.98305963 
   23700    220.12223     524.7749    127012.73   -40093.095     2738.739   -42831.834    70.787888   0.98331478 
   23800    221.01987    290.14229    127204.61    -40140.81    2749.9074   -42890.717    71.015105   0.98183152 
   23900    222.78831    153.78076    127106.67   -40149.319    2771.9101   -42921.229    71.187175   0.98258805 
   24000    223.27811    300.88126    127049.45   -40084.363    2778.0041   -42862.368    71.384063   0.98303058 
   24100    225.01852    373.22439    127226.87   -40078.541    2799.6582   -42878.199      71.9657    0.9816597 
   24200    223.81853    146.65795    127180.63    -40149.15     2784.728   -42933.878    72.337763   0.98201662 
   24300    225.35126    297.07563    127237.61   -40122.413    2803.7981   -42926.211    72.763004   0.98157681 
   24400    222.91058    196.59292    127376.89   -40166.323    2773.4314   -42939.754    72.881567   0.98050355 
   24500    225.21326    290.47126    127372.22   -40107.006    2802.0812   -42909.087    72.907155   0.98053949 
   24600    226.14644    311.68004    127384.36   -40093.124    2813.6916   -42906.815    73.307007   0.98044606 
   24700    220.88436    411.69679    127289.86   -40110.206    2748.2214   -42858.428    73.382268   0.98117391 
   24800    220.14811    183.48214    127416.35   -40095.269     2739.061    -42834.33    73.928139   0.98019985 
   24900    227.85626    258.88191    127239.23   -40036.044     2834.965    -42871.01    74.065135   0.98156433 
   25000    225.06318     328.6402    127439.22   -40010.804    2800.2139   -42811.018    74.104025   0.98002398 
   25100    222.25872    302.03073    127222.66   -40011.443    2765.3211   -42776.764    73.954612   0.98169216 
   25200    223.35655    231.34019    126907.97   -40055.284    2778.9801   -42834.264    73.868164   0.98412645 
   25300     228.2356    161.77058    126748.73   -40058.183    2839.6847   -42897.867     74.13789   0.98536285 
   25400    226.81038    303.75597    126680.49   -40054.302    2821.9523   -42876.254    74.474322   0.98589366 
   25500    229.50829    283.54122    126796.94   -40002.922    2855.5194   -42858.442    74.878999   0.98498824 
   25600    224.23924    121.81746     126853.9   -40078.117    2789.9625    -42868.08    75.369815   0.98454594 
   25700    222.71205    207.79341    126744.92   -40096.178    2770.9613   -42867.139    75.746475   0.98539247 
   25800    223.44477     343.5964    126966.46   -40078.755    2780.0778   -42858.833    75.866981   0.98367313 
   25900    223.44709    386.15173     126945.6   -40029.225    2780.1067   -42809.332    76.090267   0.98383471 
   26000    226.77142    569.70774    126679.33   -39957.995    2821.4676   -42779.463    76.545797   0.98590269 
   26100    225.31668    247.39532    126877.72   -40025.115    2803.3678   -42828.483    76.915646   0.98436108 
   26200    226.27678    258.35632    126805.04   -39999.435    2815.3133   -42814.748    77.035913   0.98492532 
   26300    222.72719    454.77533    126672.55   -39971.727    2771.1497   -42742.877    77.057043   0.98595549 
   26400    226.06866    368.78135    126576.87   -39949.948     2812.724   -42762.672    77.000275   0.98670075 
   26500    227.73715    197.03102    126732.54   -40003.169    2833.4831   -42836.652    77.418485   0.98548871 
   26600    224.90216    287.12184    126654.86   -40053.546    2798.2104   -42851.757    77.613238   0.98609319 
   26700    220.69058    291.57996    126653.49   -40088.336    2745.8104   -42834.146    77.761498   0.98610386 
   26800    222.17529    281.22278    126555.13   -40004.998     2764.283   -42769.281    78.058941   0.98687026 
   26900    223.21609    160.30712    126535.63   -40003.536    2777.2325   -42780.768    78.618303   0.98702234 
   27000    220.37807    272.48234    126791.32     -40048.6    2741.9222   -42790.522    78.890822   0.98503186 
   27100    225.15721    217.66471    126671.76   -40049.349    2801.3838   -42850.733    79.283989   0.98596158 
   27200    223.82272    350.36013    126571.13   -40068.058    2784.7801   -42852.838    79.500741   0.98674552 
   27300    219.45267    272.78144    126405.58   -40099.002    2730.4084    -42829.41     80.01717   0.98803779 
   27400    223.12187     251.9986     126413.4   -40023.637    2776.0602   -42799.697    80.248444   0.98797669 
   27500    225.04354    327.82517    126418.98   -39945.856    2799.9694   -42745.825    80.291244   0.98793305 
   27600    228.12366    423.94621    126475.88   -39969.162     2838.292   -42807.454    80.867098   0.98748863 
   27700    225.56484    88.653088    126596.11   -39977.485    2806.4555    -42783.94     81.03452   0.98655081 
   27800    227.75652    51.411485    126462.17   -39914.495    2833.7241   -42748.219    81.284961   0.98759566 
   27900    225.68898    245.40846    126273.98    -39936.52         2808    -42744.52    81.381894   0.98906753 
   28000    223.54006    509.94345    126475.84   -39968.089    2781.2633   -42749.353    81.536072   0.98748889 
   28100    225.44065    153.23169    126494.17    -39950.97    2804.9103   -42755.881    81.742858    0.9873458 
   28200    219.78034    242.63599    126158.16   -39990.496    2734.4853   -42724.982    81.926606   0.98997553 
   28300    223.01211    81.324478    126139.23   -39977.521    2774.6946   -42752.216    82.401294   0.99012406 
   28400    218.52467    220.55996    125947.51   -40025.601    2718.8624   -42744.463     82.99964   0.99163125 
   28500    220.27458    293.44376    126021.66   -40045.204    2740.6345   -42785.839    83.036439   0.99104785 
   28600    221.00432    365.82265    125848.96    -39975.68    2749.7139   -42725.394    83.182215   0.99240784 
   28700    225.70847    327.94203    125926.35   -39981.872    2808.2424   -42790.114    83.959127   0.99179793 
   28800    225.95669    448.29509    125855.82   -39935.299    2811.3308   -42746.629    84.170539   0.99235369 
   28900    223.93085    419.30722    126069.31   -39902.314    2786.1254    -42688.44    84.490417   0.99067326 
   29000    224.39544    294.06084    126210.33   -39968.872    2791.9058   -42760.778    84.708563   0.98956634 
   29100    225.14781    246.86168    126053.97   -39902.916    2801.2669   -42704.183    84.733832   0.99079378 
   29200    227.23845    300.83986    126060.28   -39850.265    2827.2784   -42677.544    84.877404   0.99074418 
   29300    227.04487    172.64882    126190.72   -39905.104    2824.8698   -42729.974    85.459272   0.98972007 
   29400     225.5575    598.30962    126049.34   -39960.137    2806.3641   -42766.501     85.56057   0.99083021 
   29500     220.6547    271.84541     126027.4   -40014.928    2745.3639   -42760.292    85.990622   0.99100264 
   29600    225.50606    424.18994    126127.41   -39924.539    2805.7241   -42730.263    85.962005   0.99021687 
   29700    221.85345    255.65223    126298.66    -39974.78    2760.2787   -42735.059    86.367943   0.98887421 
   29800    221.58322     477.6552    126441.07   -39946.011    2756.9166   -42702.927    86.727936   0.98776048 
   29900    224.13199    202.43562     126188.8   -39987.602    2788.6281    -42776.23    86.872214   0.98973512 
   30000    229.71328    437.65643    126106.28    -39969.55    2858.0699    -42827.62    87.252832   0.99038277 
   30100    225.88311    310.46368    126116.01   -39972.146    2810.4154   -42782.561    87.956452    0.9903064 
   30200    224.52705    199.55614    125881.24   -39968.987    2793.5434    -42762.53    88.104306   0.99215331 
   30300    224.66302    264.93089    126074.83   -39924.951    2795.2351   -42720.187    88.446987   0.99062982 
   30400    223.17127    329.52755    125822.01   -39892.805    2776.6749    -42669.48    88.597977   0.99262039 
   30500    223.68408    345.16144    125859.64   -39870.797    2783.0553   -42653.852    88.892889   0.99232364 
   30600    225.92333    364.76365    125828.65   -39860.188    2810.9157   -42671.104    89.007646   0.99256797 
   30700    223.48908    346.65246    125814.62    -39876.72     2780.629   -42657.349    89.351323   0.99267869 
   30800    228.21061    386.51986    125891.24   -39820.474    2839.3739   -42659.848    89.686644   0.99207454 
   30900     223.8719    123.30665    125926.54   -39947.517    2785.3921   -42732.909    90.022744   0.99179646 
   31000    222.36908    281.62901    125731.28   -39984.206    2766.6941     -42750.9    90.302563   0.99333668 
   31100    222.02779    240.17043    125803.19   -39989.559    2762.4478   -42752.007    90.855861   0.99276887 
   31200    224.44586    230.27536     125841.8    -40012.95    2792.5332   -42805.484    91.408951   0.99246425 
   31300    224.25759    283.27367    125785.88   -39985.043    2790.1908   -42775.233    91.774092   0.99290545 
   31400    220.62529    416.12116    125881.23   -39938.113     2744.998   -42683.111    92.221699    0.9921534 
   31500    222.58299    280.75356    125896.27   -39969.183    2769.3556   -42738.539     92.60609   0.99203485 
   31600    222.54909    445.42167    126125.52   -39900.093    2768.9338   -42669.027    93.349571   0.99023169 
   31700     226.1022    395.81567    126033.56   -39944.169    2813.1413    -42757.31    93.871607   0.99095423 
   31800    229.53885    207.59568     125953.5   -39880.207    2855.8997   -42736.107    94.337125    0.9915841 
   31900    223.71415    358.34078     126034.2   -39888.372    2783.4293   -42671.801    94.588133    0.9909492 
   32000    226.93242    185.82374    126150.37   -39878.007    2823.4707   -42701.478    94.964985    0.9900367 
   32100    226.43759    300.54317    126423.93   -39891.106    2817.3142    -42708.42    95.375033   0.98789438 
   32200     228.1594    286.53512    126334.63   -39905.295    2838.7367   -42744.031    95.526079   0.98859272 
   32300    223.52367    217.35596    126022.84    -39889.92    2781.0594    -42670.98    95.726077   0.99103852 
   32400    225.00417    296.32983    125955.65   -39943.309    2799.4796   -42742.789    95.854988   0.99156723 
   32500    225.36548    219.93899    125837.74   -39941.908     2803.975   -42745.883     95.67437   0.99249631 
   32600    226.64429    293.19342    125719.09   -39886.943    2819.8858   -42706.829    96.080485   0.99343297 
   32700    228.67898    313.00103    125734.86   -39951.041    2845.2013   -42796.242     96.27471   0.99330841 
   32800    223.14499     290.5778    125791.75   -39986.369    2776.3479   -42762.717    96.359451   0.99285912 
   32900    220.65124    490.93303    125839.73   -39989.758     2745.321   -42735.079    96.495225   0.99248062 
   33000    223.56302    161.57319    125809.67   -40034.684     2781.549   -42816.233    97.165446   0.99271773 
   33100    222.27739    271.41556    126044.24   -39940.164    2765.5533   -42705.717    97.599113   0.99087024 
   33200    226.73335      314.924    125742.41   -39976.249    2820.9939   -42797.243    98.106429   0.99324874 
   33300      225.427    175.93498    125676.52   -39903.497    2804.7405   -42708.238    98.782151   0.99376945 
   33400     223.4735    482.29884    125540.82   -39979.897    2780.4353   -42760.333    98.971668   0.99484364 
   33500    226.94293    504.59718    125805.48   -39942.904    2823.6015   -42766.506    99.253615   0.99275084 
   33600    225.13312    194.91698    125792.74   -39907.427     2801.084   -42708.511     99.63284   0.99285131 
   33700    222.42829    42.762211    125769.78   -39892.963    2767.4308   -42660.393    100.32001    0.9930326 
   33800    221.78509    309.10876    125764.24   -39878.131    2759.4282    -42637.56    100.70198   0.99307631 
   33900    224.92059    335.27938    125826.55   -39895.709    2798.4398   -42694.149    101.14081   0.99258453 
   34000    228.75805     302.3044    125859.11   -39861.472    2846.1851   -42707.657    101.26663   0.99232776 
   34100    227.41912    362.05542    125836.87    -39913.46    2829.5262   -42742.986     101.3142   0.99250314 
   34200    222.73173   -3.6217901    125880.89   -39925.082    2771.2062   -42696.288    101.52268   0.99215606 
   34300    221.07066    299.67461    125726.46    -39990.08    2750.5393   -42740.619    101.69238   0.99337473 
   34400    226.78711    377.43409    125890.12   -39928.868    2821.6628   -42750.531    102.19601   0.99208331 
   34500    226.19722    269.82379    125917.49   -39947.399    2814.3235   -42761.722    102.74088    0.9918677 
   34600    224.65959    200.20269    125825.45   -39919.463    2795.1924   -42714.655    103.00086   0.99259324 
   34700     222.4907    266.31559    125855.09   -40001.942    2768.2072   -42770.149    103.57067   0.99235947 
   34800     220.3111    334.15207    125879.85   -39981.372    2741.0889    -42722.46    104.17293   0.99216427 
   34900    223.75401    248.93531     125876.4   -39998.643    2783.9253   -42782.568    104.10903    0.9921915 
   35000    219.92061    193.70409     125984.9   -40068.239    2736.2304   -42804.469    104.51015   0.99133695 
   35100    222.22462    286.78325    126078.71   -40014.538    2764.8967   -42779.434    104.78253   0.99059934 
   35200    220.91826     158.5547    126135.14   -40027.096    2748.6431   -42775.739    105.00613   0.99015617 
   35300    220.00539    308.22075    125961.73   -40016.133    2737.2853   -42753.418    105.29493   0.99151931 
   35400    222.73116    304.63418    126062.45   -40035.798    2771.1991   -42806.997    105.65478   0.99072713 
   35500     225.7837    144.09745    126039.03   -39935.728    2809.1785   -42744.907     105.7897   0.99091124 
   35600    228.89199    297.88254    126056.54   -39988.739    2847.8515   -42836.591    106.03244    0.9907736 
   35700    226.90691    510.70241    126197.76    -39954.66    2823.1534   -42777.813    106.18134   0.98966485 
   35800    222.98255    219.44864    126282.75   -40004.285    2774.3269   -42778.612    106.58045   0.98899881 
   35900    226.51126     325.0784    126251.13   -39953.794    2818.2307   -42772.025    106.63849   0.98924654 
   36000    227.50702    196.79005     126193.9   -39917.895    2830.6199   -42748.515    106.80402   0.98969513 
   36100    226.21184    289.09666    126027.83   -39941.332    2814.5053   -42755.838    107.03356   0.99099927 
   36200    228.34491    86.830519     125920.5   -39966.178    2841.0449   -42807.223    107.31474     0.991844 
   36300    221.78902     449.0129    125866.74   -40029.677    2759.4771   -42789.154    107.14655   0.99226765 
   36400    223.15276    332.83032    126000.38   -39969.819    2776.4446   -42746.263     107.5742   0.99121517 
   36500    224.02849    525.06822    125957.03    -39967.32    2787.3403    -42754.66    107.79093   0.99155635 
   36600    223.70581    349.94955    126013.51   -40089.349    2783.3255   -42872.675    107.62605    0.9911119 
   36700    220.86833    346.27595    126226.89   -40027.541     2748.022   -42775.563    108.21992   0.98943651 
   36800    220.55098    145.31597    126195.33   -40018.155    2744.0735   -42762.229    108.52673   0.98968391 
   36900    221.43914    470.66736    126250.06   -40025.005    2755.1239   -42780.129    109.03402   0.98925494 
   37000    224.24305    373.40704    126319.99   -39962.847    2790.0099   -42752.856    109.52173   0.98870728 
   37100    228.09702    309.07493    126047.86   -39949.753    2837.9606   -42787.714    109.66608    0.9908418 
   37200    222.13458    393.21554     126252.8   -40000.061    2763.7764   -42763.837    109.85404   0.98923344 
   37300    222.36514    233.19895    126122.34   -40013.681    2766.6451   -42780.326    109.93814    0.9902567 
   37400    222.55603    84.484996    125991.86   -40056.439    2769.0201   -42825.459    109.97275   0.99128225 
   37500    224.17155    451.55473     126026.2   -40056.397    2789.1202   -42845.517    110.21552   0.99101209 
   37600    220.86267    76.546493    126090.16   -39997.279    2747.9515   -42745.231    110.50836   0.99050938 
   37700    223.24783    157.35409       126098   -39999.319    2777.6274   -42776.946    110.59651   0.99044782 
   37800     223.2105    344.94266    126094.29   -40098.218     2777.163   -42875.381    110.88951   0.99047696 
   37900    221.66005    320.53113    125898.22   -40056.164    2757.8725   -42814.037    111.23593   0.99201951 
   38000    222.50824    181.45396    125988.49   -40028.623    2768.4255   -42797.049    111.84829   0.99130874 
   38100    229.12558    423.25181    125912.97   -39964.178    2850.7578   -42814.936    112.04816   0.99190329 
   38200    226.75235    457.70655    126264.16    -39989.21    2821.2304    -42810.44    112.71088   0.98914443 
   38300    228.53721    64.108666    126126.17   -39956.879    2843.4374   -42800.317    112.67366   0.99022661 
   38400    223.09694    351.95241    126245.79   -40020.654    2775.7501   -42796.404    113.02219   0.98928837 
   38500    224.96326     376.4435     126434.9   -40026.821    2798.9706   -42825.792    113.55602   0.98780867 
   38600    226.35101    254.22162    126471.29   -39984.987    2816.2369   -42801.224    113.59143   0.98752445 
   38700    227.89158    69.733234    126551.41    -40007.58    2835.4045   -42842.984    113.61884   0.98689928 
   38800    223.82344    156.76903     126353.6   -40036.405    2784.7891   -42821.194    113.75783   0.98844428 
   38900    223.73884     446.9213    126458.59   -39983.651    2783.7365   -42767.388    114.14736   0.98762361 
   39000    223.60734    393.72583    126615.93   -40040.426    2782.1004   -42822.526    114.82329   0.98639634 
   39100    223.56461    97.741518    126327.39   -40012.347    2781.5688   -42793.915    114.97634   0.98864934 
   39200     223.9112    386.08796     126307.1   -40033.176     2785.881   -42819.057    115.21024   0.98880817 
   39300    225.57135    191.40816    126298.36   -39999.157    2806.5365   -42805.693    115.21046   0.98887656 
   39400     224.9871    265.85817    126334.44   -39959.505    2799.2673   -42758.772    115.63839   0.98859414 
   39500    224.62521    319.54692    126265.56   -39950.982    2794.7647   -42745.747    116.07123   0.98913347 
   39600    222.76036    173.93372    126215.92   -39997.691    2771.5624   -42769.253    116.98807   0.98952248 
   39700    223.67877    246.02123    126263.02    -39949.66    2782.9891   -42732.649      117.184   0.98915339 
   39800    223.07346    541.52249    126242.62   -40032.994     2775.458   -42808.452    117.47641   0.98931323 
   39900    224.48543    267.64091    126297.95   -40067.932    2793.0255   -42860.957    117.62579   0.98887976 
   40000    222.30714     225.1676    126375.81   -40088.384    2765.9234   -42854.307    117.83692   0.98827052 
   40100    228.28021    143.75506    126401.63   -39990.729    2840.2398   -42830.968    118.14057   0.98806869 
   40200    226.13698    404.52961    126476.09   -40012.188     2813.574   -42825.762    118.51708   0.98748698 
   40300    226.80314    378.34851    126444.45   -39988.675    2821.8622   -42810.537    118.60479   0.98773406 
   40400    229.27549    395.18944    126692.94   -39907.716     2852.623   -42760.339    118.91406    0.9857968 
   40500    227.86983    222.65312       126588   -39923.045    2835.1339   -42758.179    119.01462   0.98661395 
   40600    228.15875    254.84087    126496.76    -39975.85    2838.7287   -42814.579    119.62907   0.98732563 
   40700    224.63633    443.43704    126596.13   -40011.312     2794.903   -42806.215    119.66813   0.98655065 
   40800    223.21618    335.28034    126594.23   -40081.615    2777.2336   -42858.848    119.94521   0.98656543 
   40900    223.10437    301.77331    126787.18   -40106.373    2775.8425   -42882.215    120.39758   0.98506406 
   41000    225.22395    259.62322    126874.13   -40016.375    2802.2141    -42818.59     120.4616   0.98438895 
   41100    223.33646    341.98766    126692.71   -39998.143    2778.7302   -42776.874     121.0991   0.98579857 
   41200    226.18386    351.62881    126548.71   -40026.036    2814.1573   -42840.193    120.99807   0.98692033 
   41300     219.7396    376.63895    126482.25   -40178.605    2733.9784   -42912.583    121.54465   0.98743888 
   41400    221.40104    496.20791    126860.14   -40130.046    2754.6498   -42884.696    122.12131   0.98449752 
   41500    227.77746    307.60832    127137.41    -40146.17    2833.9847   -42980.155    122.57013   0.98235043 
   41600    221.79701    325.04432    127192.95   -40122.016    2759.5764   -42881.592    122.69104   0.98192148 
   41700    225.05298    474.77207    127124.98   -40104.345     2800.087   -42904.432    122.41983    0.9824465 
   41800    222.85879    263.19483    127322.51    -40133.22     2772.787   -42906.007    122.84059   0.98092232 
   41900    225.65174    529.05889    127337.47   -40111.191    2807.5367   -42918.727    123.16353   0.98080708 
   42000    228.94604    426.83219    127410.49   -40111.584     2848.524   -42960.108    123.91181   0.98024496 
   42100    222.65641    197.23596    127369.42   -40106.495     2770.269   -42876.764    124.08092   0.98056102 
   42200    226.04075    367.58472    127361.92   -40040.015    2812.3767   -42852.392    124.65377   0.98061877 
   42300    231.32015     321.7741    127458.57   -40021.387    2878.0625   -42899.449    124.88825   0.97987516 
   42400    220.55822    133.04845    127314.16   -40044.157    2744.1636   -42788.321    125.16134   0.98098668 
   42500    224.52765    227.64872    127170.41   -40030.999    2793.5508    -42824.55    125.40402    0.9820955 
   42600    222.12077    223.58289    127146.25   -40030.835    2763.6047   -42794.439    125.72781   0.98228213 
   42700    221.08703    397.25695    127265.98   -40043.435     2750.743   -42794.178    126.01982   0.98135801 
   42800    224.20501     212.9245    127257.48   -39992.903    2789.5366    -42782.44    126.48589    0.9814236 
   42900    220.54187    18.747883    127080.37   -40072.939    2743.9602   -42816.899    126.24085   0.98279141 
   43000    221.93417    146.06753    126985.78   -40094.333     2761.283   -42855.616     126.4607   0.98352345 
   43100    222.53412    448.26821    126841.39   -40065.664    2768.7475   -42834.412    126.71969   0.98464304 
   43200    220.03564    110.62681    126938.42   -40018.334    2737.6617   -42755.995     127.0661   0.98389036 
   43300    223.50369    217.55438    126811.55    -40032.95    2780.8108   -42813.761    127.30558   0.98487474 
   43400    232.03046    192.48116    126822.73   -39980.015    2886.9001   -42866.915    127.33384   0.98478794 
   43500    224.57134    202.79126    126798.74   -39984.943    2794.0944   -42779.038    127.71101   0.98497426 
   43600    227.38413    320.88296    126819.83   -39883.212    2829.0908   -42712.302    128.37317   0.98481044 
   43700    234.24062    46.589646    126853.18   -39912.078    2914.3987   -42826.477    128.56441   0.98455152 
   43800    224.86692    381.39003    126980.54   -39911.208     2797.772    -42708.98    128.98923   0.98356403 
   43900    225.68119    210.09058    126831.01   -39966.996    2807.9031   -42774.899    129.04474    0.9847236 
   44000    222.75095    140.48048    126852.65   -39992.871    2771.4453   -42764.317    129.12984    0.9845556 
   44100    224.80008    197.83373    126634.09   -40019.804    2796.9404   -42816.745    129.05025   0.98625492 
   44200    222.78593    255.96534    126536.52   -40064.134    2771.8805   -42836.015    129.38091   0.98701541 
   44300    223.52777     197.9452    126509.52   -40073.593    2781.1104   -42854.704    129.76286   0.98722601 
   44400      224.468    411.38791    126553.39   -40038.401    2792.8086    -42831.21    130.13016    0.9868838 
   44500    221.71611    480.73465    126482.53   -40065.608    2758.5699   -42824.178    130.62499   0.98743667 
   44600      218.198    300.35845    126813.12   -40121.539    2714.7979   -42836.336    131.38793   0.98486256 
   44700    223.91533    388.39577    126947.82   -40094.882    2785.9323   -42880.815    131.49238   0.98381754 
   44800    220.13667    192.42084    127045.24   -40058.663    2738.9187   -42797.582    131.89749   0.98306313 
   44900    226.86265    400.50206    127128.96   -40021.099    2822.6027   -42843.701    132.73455   0.98241575 
   45000    221.00448     231.8741    127076.82   -40020.243     2749.716   -42769.959    132.99631   0.98281883 
   45100    225.04706     170.6739    127343.39   -39973.701    2800.0133   -42773.715     133.5911   0.98076147 
   45200    224.24131      217.404    127147.63   -40038.847    2789.9882   -42828.835    133.80427   0.98227145 
   45300     224.7036    405.14313    127035.09   -40053.184      2795.74   -42848.924    133.90019    0.9831417 
   45400    224.54274    250.21851     126874.1   -40038.569    2793.7386   -42832.308     134.1521   0.98438917 
   45500     225.1588    377.15154    126974.47   -40035.288    2801.4035   -42836.692    134.42804   0.98361107 
   45600    225.50813    133.03242     126891.2   -40022.469    2805.7499   -42828.219    134.71447   0.98425652 
   45700    226.01942    265.87545    126758.68   -40042.644    2812.1113   -42854.756    135.22158   0.98528549 
   45800    232.16256    140.69524    126805.91   -39986.892    2888.5436   -42875.435    135.53504    0.9849185 
   45900    226.28329    325.00888     126855.3   -39921.292    2815.3943   -42736.686    136.09018    0.9845351 
   46000      226.323      298.502    126657.81   -39905.718    2815.8884   -42721.607    136.34298   0.98607018 
   46100    229.00932    411.41463    126582.79   -39856.149    2849.3114    -42705.46    136.80559   0.98665456 
   46200    230.86776    268.20181    126431.25    -39843.06    2872.4338   -42715.493    137.35507   0.98783721 
   46300    229.77202    181.82278    126627.78   -39864.659    2858.8008    -42723.46    137.81587   0.98630402 
   46400    234.41193    347.40482    126364.73   -39904.242    2916.5301   -42820.772    138.16325   0.98835718 
   46500      230.438    482.11065    126424.86   -39926.407    2867.0868   -42793.494    138.67125   0.98788711 
   46600    226.07447    363.03352    126431.97   -39907.625    2812.7962   -42720.421    139.06003   0.98783159 
   46700    224.82355    262.26434    126261.33   -39993.596    2797.2324   -42790.829    138.77517    0.9891666 
   46800    222.99106     279.1169    126296.39   -40047.041    2774.4327   -42821.473    138.81694   0.98889205 
   46900    223.51678    138.73502    126166.93   -39960.858    2780.9736   -42741.832    138.74028   0.98990675 
   47000    225.79972    311.56538     126080.7   -39937.141    2809.3778   -42746.519     138.8205    0.9905837 
   47100    225.50259    473.70042    125917.54   -39914.355    2805.6809   -42720.036    138.95831   0.99186731 
   47200    225.18029    373.87357    126068.56   -39967.944    2801.6709   -42769.615    139.49233   0.99067915 
   47300    223.67214    284.52747    126086.29   -39997.138    2782.9066   -42780.045    139.72966   0.99053979 
   47400    230.83607    358.64007    126157.12    -39957.78    2872.0396   -42829.819    139.59271   0.98998371 
   47500     226.6166    418.09179    126391.93   -39911.302    2819.5413   -42730.844     140.1225   0.98814452 
   47600    232.50009    481.73521    126493.41   -39885.853    2892.7432   -42778.596    140.99012   0.98735178 
   47700     228.7429    211.68252    126525.01   -39928.262    2845.9965   -42774.259    141.29265   0.98710515 
   47800    227.56628    389.67012    126713.06   -39928.431    2831.3571   -42759.788    141.70825   0.98564022 
   47900    225.14011    236.16993    126686.14   -40031.635     2801.171   -42832.806    141.94349   0.98584965 
   48000    222.79639    522.90414     126609.6    -40043.86    2772.0106    -42815.87    142.32756    0.9864457 
   48100    224.73522    470.35243    126666.04   -40021.815    2796.1334   -42817.948    142.53941   0.98600612 
   48200    224.90921    215.63652    126761.48   -40042.459    2798.2981   -42840.757     143.1184   0.98526374 
   48300    223.30024    421.82752    126726.12   -40026.196    2778.2795   -42804.476    143.17444   0.98553868 
   48400    230.10174    274.41075    126902.59   -39953.946    2862.9031   -42816.849    143.52871   0.98416816 
   48500    226.82407    374.11873    126836.63   -40031.475    2822.1226   -42853.597     144.0321   0.98467996 
   48600    227.91262    356.08647    126883.55   -40036.666    2835.6663   -42872.332    144.47169   0.98431589 
   48700    223.72843    320.11676    126725.46   -39996.991     2783.607   -42780.598    144.31996   0.98554383 
   48800    225.42077    372.38182     126751.5   -40030.046     2804.663   -42834.709    144.55627    0.9853413 
   48900    227.75382    247.55679    126774.96     -40031.9    2833.6905   -42865.591    144.61367   0.98515901 
   49000    223.64266    303.28672    126675.78   -40067.295    2782.5399   -42849.835    144.82763   0.98593032 
   49100    227.36204      177.981    126578.88   -40058.486    2828.8161   -42887.302    145.16773   0.98668503 
   49200     223.9615    256.50361    126546.46   -40081.614    2786.5069   -42868.121     145.6005   0.98693782 
   49300    222.92588    438.73244    126529.25   -40026.816    2773.6218   -42800.437    145.88622   0.98707207 
   49400    222.79401    313.25982    126646.86   -40002.437    2771.9811   -42774.418     146.5868   0.98615542 
   49500    225.10391     192.3423    126581.55   -40017.176    2800.7206   -42817.897    146.43028   0.98666427 
   49600    222.05965    136.97451    126534.68   -39998.062    2762.8442   -42760.907    146.82385   0.98702973 
   49700    227.11754    18.660223    126612.15   -39997.254     2825.774   -42823.028    147.06001   0.98642577 
   49800    223.28364    513.40814    126621.78   -40048.772     2778.073   -42826.845    147.58857   0.98635077 
   49900    229.30723    398.29152    126674.37   -39934.904    2853.0179   -42787.922    147.65432    0.9859413 
   50000    224.06521    269.34733    126507.58   -39974.488    2787.7973   -42762.285    147.92607   0.98724114 
   50100    224.78722    319.92224    126677.07   -39986.557    2796.7804   -42783.337    148.57856   0.98592024 
   50200    222.72537    395.17524    126805.93   -40035.447     2771.127   -42806.574    148.93173   0.98491835 
   50300    223.98204    433.35312    126783.62   -40010.575    2786.7624   -42797.337    149.16693   0.98509171 
   50400    224.87857    182.61187    126822.78   -40041.698    2797.9169   -42839.615    149.03266   0.98478755 
   50500      224.006    286.35805    126886.49   -40091.655    2787.0605   -42878.716    149.47505   0.98429309 
   50600    223.83374    260.08774    126893.52   -40114.439    2784.9173   -42899.356    149.77008   0.98423856 
   50700    222.25242    262.22521    126831.61   -40108.809    2765.2427   -42874.052    149.78166   0.98471894 
   50800    222.11758    284.02805    126697.94   -40107.492     2763.565   -42871.057    150.09276   0.98575789 
   50900    225.30997    405.92803    126627.28   -40022.851    2803.2843   -42826.135    150.48507   0.98630797 
   51000    221.25629    89.838964    126519.95   -40040.307    2752.8489   -42793.156    150.67478   0.98714466 
   51100    227.47967    395.52307    126310.06   -40073.587    2830.2795   -42903.866    150.49721     0.988785 
   51200     223.0284    96.338993    126534.14   -40065.469    2774.8973   -42840.366    150.93932   0.98703397 
   51300    222.51687    299.32654    126443.65    -40115.82    2768.5329   -42884.352    151.57905    0.9877403 
   51400    222.25039    335.40238    126400.25   -40114.342    2765.2174   -42879.559    152.44423   0.98807947 
   51500    222.01944    445.93774    126322.61     -40103.5    2762.3439   -42865.844    152.65441   0.98868677 
   51600    222.94536    237.76415    126403.01   -40053.458    2773.8642   -42827.322    152.94538   0.98805792 
   51700    226.88041    348.09538    126538.24   -40055.783    2822.8237   -42878.607    153.17433   0.98700194 
   51800    222.38448    321.88911    126563.06   -40105.858    2766.8857   -42872.743    153.31079   0.98680843 
   51900    223.59936    275.54818    126623.74   -40161.536    2782.0011   -42943.537      153.654   0.98633547 
   52000    223.06119    161.48984    126568.94   -40190.435    2775.3052    -42965.74    153.96348   0.98676252 
   52100    222.64092    321.07477    126639.61   -40141.618    2770.0764   -42911.695    154.41323   0.98621188 
   52200    223.42027    322.97979    126596.02    -40169.03    2779.7729   -42948.803    154.87435   0.98655149 
   52300    226.99139    218.61422    126555.57   -40158.919    2824.2044   -42983.124    155.50455   0.98686679 
   52400     227.5362    392.49781    126602.47   -40094.585    2830.9829   -42925.568    155.79482   0.98650124 
   52500    222.77557    207.87365    126689.02   -40087.175    2771.7516   -42858.927    155.99463   0.98582727 
   52600    220.65147    312.40247    126799.89   -40094.815    2745.3238   -42840.139    156.25204   0.98496526 
   52700    224.36724    258.94024    126402.92   -40115.575    2791.5551    -42907.13    155.73299   0.98805859 
   52800    226.04729    267.04173    126584.71   -40069.652     2812.458    -42882.11    156.00792   0.98663962 
   52900    224.66816    297.75044    126697.45   -40050.899     2795.299   -42846.198    156.61118   0.98576167 
   53000    224.01285    228.73326    126779.18   -40024.798    2787.1458   -42811.944    157.21962   0.98512616 
   53100    220.91623    279.40009    126631.52   -40066.864    2748.6179   -42815.482    157.15059    0.9862749 
   53200    220.49299    381.33177    126759.63   -40051.413     2743.352   -42794.765    157.48409   0.98527814 
   53300    220.44301    208.70168    126613.54    -40040.67    2742.7301     -42783.4    157.65528   0.98641495 
   53400    220.81604    318.77263    126677.28   -40114.049    2747.3714   -42861.421    158.35691   0.98591864 
   53500    224.38778    336.05164    126761.54   -40121.131    2791.8106   -42912.941    158.90761    0.9852633 
   53600      226.137    288.35841    126778.67    -40134.82    2813.5742   -42948.394    158.99887   0.98513015 
   53700    220.84664    283.35736    126895.96   -40175.357     2747.752   -42923.109    159.57439   0.98421959 
   53800     223.5281    282.51782    126934.98   -40063.316    2781.1145   -42844.431    159.82062   0.98391706 
   53900     223.0861    387.31237    126878.35   -40110.445    2775.6152    -42886.06    160.05553   0.98435622 
   54000    225.15685    239.27618    126874.44   -40098.037    2801.3792   -42899.416    160.19049   0.98438655 
   54100     226.0279    494.85253    126838.08   -40127.639    2812.2168   -42939.856    160.31401    0.9846687 
   54200    229.13537    319.54677    126871.19   -40096.659    2850.8797   -42947.539    160.91955   0.98441174 
   54300    225.62131    233.63918    126824.45   -40070.224     2807.158   -42877.382    161.28622   0.98477457 
   54400    222.18516    347.70849    126735.92   -40085.574    2764.4058    -42849.98    161.46942   0.98546246 
   54500    225.93871     303.8694    126736.31   -40068.549    2811.1071   -42879.656    161.68984   0.98545946 
   54600    229.58124    109.86338    126836.42   -39971.748     2856.427   -42828.175    161.76382   0.98468161 
   54700    225.29673    299.73645    126673.01   -39984.769    2803.1196   -42787.889    161.86231   0.98595189 
   54800    224.14056     406.2085    126812.05   -40053.527    2788.7347   -42842.262     162.3279   0.98487081 
   54900    223.39602    223.10359    126756.85   -40104.771    2779.4712   -42884.242    162.11153   0.98529975 
   55000    226.53979     102.5158    126640.74    -40161.26    2818.5857   -42979.846    162.16288   0.98620313 
   55100    222.05722    200.50188    126624.14   -40131.607     2762.814   -42894.421     162.7955   0.98633236 
   55200    220.31436    272.37595    126863.01   -40118.978    2741.1295   -42860.107    162.95299   0.98447521 
   55300    222.50786    85.881457    126842.71   -40054.655    2768.4208   -42823.076    163.30182   0.98463276 
   55400    223.14579    200.20483     126604.6   -40015.428    2776.3578   -42791.786      163.807   0.98648463 
   55500     222.2036    280.13069     126793.4   -39947.761    2764.6353   -42712.397    164.25514   0.98501569 
   55600     223.8795    287.52095    126738.03   -40002.735    2785.4866   -42788.221    164.14669   0.98544609 
   55700    226.82611    256.99506     126661.9   -40007.346     2822.148   -42829.494    164.07803   0.98603836 
   55800    225.20544     87.90031    126463.45   -40021.151    2801.9838   -42823.135    163.90454   0.98758566 
   55900    228.21847    417.34698    126343.53   -39998.873    2839.4717   -42838.345    164.26797   0.98852307 
   56000    229.47013     136.9902    126297.99   -39985.339    2855.0446   -42840.384    164.78057   0.98887948 
   56100    223.45311    333.61198    126379.44   -39944.356    2780.1815   -42724.538    164.96444   0.98824215 
   56200    228.05392    155.98697    126357.46    -39942.43    2837.4243   -42779.854    164.72236   0.98841407 
   56300    225.28874    237.81033    126079.29   -39976.664    2803.0202   -42779.685    164.74992   0.99059482 
   56400    226.76001    354.78282    126256.48   -39958.453    2821.3256   -42779.779    165.29988   0.98920461 
   56500    223.25732    287.99129     126321.9   -40027.591    2777.7455   -42805.336    165.40207   0.98869231 
   56600    220.83776    209.24425    126208.81   -40049.147    2747.6416   -42796.788    165.55154   0.98957822 
   56700    220.30807    336.81394    126256.45   -40064.594    2741.0513   -42805.646    165.55443   0.98920482 
   56800    224.78554    522.40963     126182.4   -39986.484    2796.7595   -42783.243    165.91493   0.98978532 
   56900     223.5628    336.80767    126116.88   -39964.545    2781.5462   -42746.091    165.93629   0.99029958 
   57000    227.12103     446.7834    126077.03   -39903.719    2825.8174   -42729.536    166.20749   0.99061257 
   57100    227.39772    309.24476    126057.93    -39975.26      2829.26    -42804.52    166.04511   0.99076265 
   57200    223.77506    285.58292    126073.21   -40018.829    2784.1871   -42803.016    166.60176   0.99064259 
   57300    223.22374    395.39785    126159.49   -40072.488    2777.3276   -42849.815    166.88845    0.9899651 
   57400    221.98056    319.93464    125971.62   -40078.958    2761.8602   -42840.818     166.6507   0.99144146 
   57500    219.64266    334.97977    125876.24   -40126.308    2732.7723   -42859.081    167.40178   0.99219272 
   57600    220.62743    316.34873    125911.68   -40089.102    2745.0247   -42834.127     167.3673   0.99191346 
   57700    221.98025    294.48969    125878.36    -40123.91    2761.8563   -42885.766    167.59827   0.99217599 
   57800    219.39211    348.48573    125835.14   -40139.172     2729.655   -42868.827    168.14872   0.99251679 
   57900    219.71061    299.53839     125908.8   -40113.348    2733.6177   -42846.966    168.74893   0.99193613 
   58000    218.82417    396.10685    125913.33   -40115.143    2722.5887   -42837.731    169.05588    0.9919005 
   58100    225.43582    294.54704    125943.88   -40036.532    2804.8502   -42841.382    169.54498   0.99165986 
   58200    225.73112     401.4518    126042.93   -39986.495    2808.5243   -42795.019    170.27928   0.99088059 
   58300    226.53622    158.94622    126067.92   -39926.146    2818.5413   -42744.687     170.5045   0.99068418 
   58400    227.09789    424.03066    126161.67   -39934.791    2825.5295   -42760.321    170.97743   0.98994798 
   58500    225.69534    305.47397    126254.81   -39943.841    2808.0792    -42751.92    171.17295    0.9892177 
   58600    227.75765    145.21743    126246.04   -39909.438    2833.7382   -42743.176    171.69533   0.98928637 
   58700     230.7892    440.36177    126330.61   -39925.268    2871.4564   -42796.725    171.98085   0.98862411 
   58800    226.14435    200.48262    126409.63   -39971.582    2813.6657   -42785.248    172.40463   0.98800611 
   58900    218.69875    520.24384     126271.5   -40012.382    2721.0282    -42733.41    172.75422   0.98908697 
   59000    228.74159    368.79566    126377.42   -40001.479    2845.9802    -42847.46    173.23649   0.98825799 
   59100    227.01212    226.35533    126386.42    -40016.08    2824.4623   -42840.543    173.54752   0.98818761 
   59200    224.23272    239.69056    126328.48   -40035.514    2789.8813   -42825.396    173.56199   0.98864082 
   59300    228.35705    278.03595     126530.2   -40025.022    2841.1958   -42866.218     174.2465   0.98706467 
   59400    220.68066    228.73435    126458.79    -40058.78    2745.6869   -42804.467     174.5505   0.98762203 
   59500    221.86084    290.80603    126428.79   -40003.061    2760.3706   -42763.431    175.09948   0.98785642 
   59600    221.46389    648.87178    126338.01   -39989.214    2755.4319   -42744.646    175.28643   0.98856622 
   59700    223.15121    83.689047    126309.54   -40015.184    2776.4253   -42791.609    175.94309   0.98878907 
   59800    224.70008    369.53959    126148.12   -40010.914    2795.6962    -42806.61    175.89358   0.99005434 
   59900    224.39939    403.96661    126141.38   -39984.325    2791.9551    -42776.28    176.35289   0.99010719 
   60000    225.77772    353.72956    126110.22   -40034.559    2809.1041   -42843.663    176.31503   0.99035186 
   60100    220.51134    125.25596    126219.26   -40006.387    2743.5803   -42749.967     176.6727   0.98949633 
   60200    223.46316    329.85668    126460.29   -39999.898    2780.3066   -42780.204    177.13875   0.98761032 
   60300    225.44594    229.05338    126444.35   -39957.782    2804.9761   -42762.758    177.26093   0.98773483 
   60400    230.46888    338.45995    126589.58   -39908.006     2867.471   -42775.477    177.55605   0.98660165 
   60500    227.80151    277.57105    126312.02   -39955.134    2834.2839   -42789.418    177.61484   0.98876968 
   60600     226.7912    329.80582    126240.71   -40016.388    2821.7136   -42838.101    178.11016    0.9893282 
   60700    222.70262    352.53449    126356.17   -40049.441     2770.844   -42820.285    178.02618   0.98842417 
   60800    229.34818    348.60998    126389.46   -40009.084    2853.5274   -42862.611     178.6096    0.9881638 
   60900     226.5069    360.00018     126560.1   -39998.521    2818.1764   -42816.697    179.08502   0.98683151 
   61000    228.79288    275.15149    126433.95   -40036.103    2846.6184   -42882.721     179.4981   0.98781614 
   61100    226.52767    284.82621    126490.98   -40085.324    2818.4348   -42903.759    179.34538   0.98737071 
   61200    228.52827    541.71677     126435.7   -40087.626    2843.3262   -42930.952    179.71002    0.9878024 
   61300    222.87182    448.99678    126547.78   -40070.522    2772.9492   -42843.471    179.76981   0.98692757 
   61400    220.13322    220.89515    126474.37   -40094.242    2738.8757   -42833.117    179.74032   0.98750037 
   61500    223.66273    314.80927    126559.03   -40090.974    2782.7895   -42873.764    180.34462   0.98683982 
   61600    223.34099    330.12278    126643.49    -40053.57    2778.7865   -42832.357    181.13909   0.98618169 
   61700    223.19589    207.02076     126626.7   -40122.809    2776.9812    -42899.79    181.24177   0.98631242 
   61800    222.79239    231.52634    126402.07   -40209.014    2771.9609   -42980.975    181.66614   0.98806523 
   61900    224.92618    466.49664    126414.41   -40147.296    2798.5093   -42945.806    181.85641    0.9879688 
   62000     224.4298    545.49144     126193.5    -40107.43    2792.3334   -42899.763    181.64876   0.98969829 
   62100    221.68081    476.15234    126328.06   -40120.388    2758.1308   -42878.519    181.91978   0.98864414 
   62200    222.80046    380.42362    126352.72   -40077.666    2772.0613   -42849.728    182.37508   0.98845118 
   62300    221.72918    274.83157    126111.74   -40103.402    2758.7325   -42862.134    182.33133   0.99033991 
   62400      219.921     208.4021    126085.69   -40044.745    2736.2353   -42780.981    182.54951   0.99054456 
   62500    224.86576     433.4728    126168.86   -40054.755    2797.7576   -42852.513    182.82635    0.9898916 
   62600    223.42465    219.01102    125801.69   -40055.672    2779.8275   -42835.499    182.79165   0.99278067 
   62700    222.45874    356.22738    125813.08    -40053.91    2767.8096   -42821.719    183.01474   0.99269087 
   62800    222.65423     233.5197    125833.71   -40011.529    2770.2419   -42781.771    183.32745   0.99252808 
   62900    228.15917    260.54826    125828.76   -39960.579    2838.7339   -42799.313    183.45974   0.99256716 
   63000    228.67047    333.26071    125964.91   -39939.728    2845.0954   -42784.823    183.80329   0.99149428 
   63100    226.88155    203.65205    125965.06   -39922.247    2822.8378   -42745.085    184.07535   0.99149315 
   63200    224.03397    292.46759    125883.64   -39950.428    2787.4085   -42737.836    183.97748   0.99213441 
   63300    224.94905    432.89398    125980.01    -39979.95    2798.7938   -42778.743    184.00286   0.99137543 
   63400    229.13898    260.21933     126110.1   -39915.133    2850.9245   -42766.057    184.82377   0.99035279 
   63500    223.48357    472.97959    126387.43   -40008.086    2780.5605   -42788.646    185.45719   0.98817966 
   63600    224.19477    171.41645    126356.05   -39995.661    2789.4092    -42785.07    185.48322   0.98842513 
   63700    224.77145    383.80657    126281.07   -39989.248    2796.5842   -42785.832    185.27776   0.98901194 
   63800    222.43498    466.88781    126107.19   -40085.117     2767.514   -42852.631    185.90905   0.99037569 
   63900    221.91197    350.46691    126277.85   -40077.969    2761.0067   -42838.976    186.81545   0.98903718 
   64000    226.50418    96.986924    126251.96   -40062.611    2818.1426   -42880.753    187.21167   0.98924003 
   64100    230.06446    154.34099    126210.27   -39977.714    2862.4393   -42840.154    187.66477   0.98956676 
   64200    220.32267     352.7615    126000.88   -39967.389    2741.2329   -42708.622    187.47953   0.99121123 
   64300    230.75382    315.48488    126007.21   -39875.778    2871.0162   -42746.794     187.7758   0.99116151 
   64400    228.65674     376.6466     126272.9   -39898.902    2844.9245   -42743.827    188.92636   0.98907593 
   64500     228.7695     288.5893    126384.46   -39894.471    2846.3275   -42740.799    189.26703   0.98820291 
   64600    229.37747    223.58484     126514.8   -39959.153    2853.8918   -42813.045    189.52609   0.98718483 
   64700    224.77291    563.96875    126490.74   -39981.535    2796.6023   -42778.137    189.75647   0.98737257 
   64800    225.56027    432.56706    126434.64   -40001.506    2806.3986   -42807.905    189.90621   0.98781074 
   64900    224.85091    390.87512    126395.94   -39971.437    2797.5728   -42769.009    190.26957   0.98811317 
   65000     222.7817    273.79831    126292.98   -39923.618    2771.8279   -42695.446    190.59828   0.98891872 
   65100    225.51822    263.41475    126296.52   -39944.883    2805.8754   -42750.758    190.68598   0.98889101 
   65200    225.20984    233.83605    126066.66   -39924.879    2802.0385   -42726.918    190.91484   0.99069402 
   65300    231.67459    369.74425    126052.95   -39921.814    2882.4724   -42804.286    191.04779    0.9908018 
   65400     224.7399    373.12614    125996.53   -39861.682    2796.1916   -42657.874    191.19707   0.99124549 
   65500    223.82737    536.25686    126092.36   -39905.243     2784.838   -42690.081    191.61827   0.99049216 
   65600    224.53087    227.32383    126156.99    -39945.35    2793.5909   -42738.941    192.35958   0.98998474 
   65700    223.25247    374.48979     126214.4   -39988.548    2777.6852   -42766.233    192.79629   0.98953443 
   65800    219.21857    361.54709    126116.96   -40000.776    2727.4958   -42728.272    192.82984   0.99029893 
   65900    227.47566    200.15538    126331.91   -39970.065    2830.2296   -42800.295    193.65553     0.988614 
   66000    229.72709    494.90775    126103.83   -39880.628    2858.2417    -42738.87    193.88216   0.99040202 
   66100    229.81328    326.08865    126238.22   -39837.927    2859.3141   -42697.241    195.09146   0.98934766 
   66200    227.56338    259.65381    126293.67   -39821.391    2831.3211   -42652.712    195.45154   0.98891333 
   66300    223.21073    265.60755    126226.71   -39842.214    2777.1659    -42619.38    195.33688   0.98943792 
   66400    229.51315    299.71735     126294.5   -39880.621    2855.5799   -42736.201    195.66171   0.98890684 
   66500    222.40392     132.7058    126037.96   -39909.887    2767.1276   -42677.014    195.33758   0.99091965 
   66600    222.30627    311.07876    126082.06   -39925.852    2765.9127   -42691.765    195.87093   0.99057307 
   66700    224.52264    261.75189    126241.52   -39943.149    2793.4885   -42736.638    196.32735   0.98932185 
   66800    223.36466    441.91136    126457.56    -39892.07    2779.0811   -42671.151    196.78913   0.98763169 
[...]
   84600    221.95692    349.67746    126886.52   -40089.475    2761.5661   -42851.042    249.71098   0.98429281 
   84700    218.40437    353.39615    126887.35   -40113.075    2717.3656   -42830.441    249.95459   0.98428636 
   84800    223.28218    209.90989    126971.93   -40086.618    2778.0548   -42864.673    250.39866   0.98363074 
   84900    227.09522    378.64852    126885.56   -40069.015    2825.4963   -42894.512    250.83987   0.98430026 
   85000    224.65181    300.39826    126893.68   -40020.174    2795.0956    -42815.27    251.25388   0.98423728 
   85100    224.01647    162.28718    126773.07   -40012.918    2787.1908   -42800.109    251.19655   0.98517369 
   85200     228.0259    292.61396    126595.22   -40029.269    2837.0758   -42866.345    250.76498   0.98655771 
   85300    218.43551    604.66198     126634.9   -40063.107    2717.7531    -42780.86     251.2933   0.98624862 
   85400    223.85451    359.99907    126637.55    -40061.89    2785.1757   -42847.065    251.01708   0.98622796 
   85500    224.77931    463.13253    126674.99   -40041.235    2796.6819   -42837.917    251.35433   0.98593644 
   85600    227.40349    195.53211    126799.01   -40011.977    2829.3317   -42841.308    251.59162    0.9849721 
   85700    224.46388    189.10216    126929.92   -40051.531    2792.7574   -42844.288    251.93002   0.98395627 
   85800    223.16312    382.76686    126767.05   -40063.478    2776.5735   -42840.051    252.20473   0.98522042 
   85900    226.23768    458.39668    126915.38   -39969.311    2814.8269   -42784.137     252.6302   0.98406901 
   86000    225.68531    170.24457    126937.08   -40047.147    2807.9543   -42855.101    252.91333    0.9839008 
   86100    228.54345    155.74556    126875.65   -40045.607     2843.515   -42889.122    252.90754   0.98437719 
   86200    224.85082    223.23142    126682.41   -40015.582    2797.5717   -42813.154    252.41525   0.98587871 
   86300     228.4951    202.78527    126875.77   -40052.425    2842.9134   -42895.338    253.07892   0.98437622 
   86400     224.8207    317.09233    126752.32    -40083.53     2797.197   -42880.727    253.12817   0.98533497 
   86500    222.31264    313.34647    126750.68    -40083.19    2765.9919   -42849.182    253.36592   0.98534772 
   86600      226.154    406.41313    126826.98   -40026.425    2813.7857   -42840.211    253.63797    0.9847549 
   86700    228.53006    305.53953    126941.71    -40002.73    2843.3484   -42846.079    253.88172   0.98386485 
   86800    225.17601    198.27378    126884.24   -40071.042    2801.6177    -42872.66    253.91044   0.98431048 
   86900     228.1607    205.19081    126749.84   -40034.735    2838.7529   -42873.488    253.77921   0.98535425 
   87000    227.82481    366.90719    126952.08   -40040.679    2834.5738   -42875.253    254.32393    0.9837845 
   87100    223.58488    218.37545    126518.08   -40078.374    2781.8209   -42860.195    253.84267   0.98715925 
   87200    225.46847    232.53026    126413.26   -40050.679    2805.2564   -42855.935    253.34889   0.98797777 
   87300    222.78255    454.96161    126289.26   -40058.353    2771.8384   -42830.192    253.68807   0.98894783 
   87400    223.72718    348.64317    126436.78   -40058.714    2783.5915   -42842.306    253.93862   0.98779399 
   87500    227.75743    363.25553     126370.6   -40067.244    2833.7354   -42900.979     254.0364    0.9883113 
   87600    220.46139    391.65593    126294.44     -40078.6    2742.9588   -42821.559    254.11225   0.98890728 
   87700    224.69401    272.02558     126167.7   -40084.464    2795.6207   -42880.084    254.33438   0.98990068 
   87800     225.4085    189.80649    126255.97   -40048.785    2804.5103   -42853.295    254.93405   0.98920858 
   87900    219.41835    143.01223    126251.62   -40059.027    2729.9815   -42789.008    255.56856   0.98924267 
   88000    219.51492    437.67267    126417.43   -40077.312    2731.1829   -42808.495    256.30566    0.9879452 
   88100    220.62491    317.10962    126547.61   -40016.459    2744.9933   -42761.453    256.65654   0.98692886 
   88200    225.01821    153.17524    126494.78   -39979.635    2799.6543   -42779.289    257.27474   0.98734108 
   88300     226.2576     344.6698    126498.15   -39999.304    2815.0746   -42814.379    256.82967   0.98731477 
   88400    224.33575    320.59036    126464.61   -40113.077    2791.1633   -42904.241    256.92863   0.98757658 
   88500    228.61411    314.53552    126318.64   -40018.627    2844.3942   -42863.021    257.52752   0.98871782 
   88600    223.37282     323.7201    126270.31   -39976.399    2779.1825   -42755.582    257.92157   0.98909624 
   88700    221.35155    265.60409    126241.52    -39961.48     2754.034   -42715.514    258.10904   0.98932186 
   88800    227.73217    252.38448    126407.55   -39881.514    2833.4211   -42714.935    258.53043   0.98802243 
   88900    226.24338     168.4266    126256.35   -39922.994    2814.8978   -42737.892    258.77045   0.98920564 
   89000    227.42116    261.51265    126173.83   -39897.576    2829.5516   -42727.128    258.85478   0.98985262 
   89100    222.58752    537.35437    126403.53   -40007.105    2769.4119   -42776.517    259.79087   0.98805382 
   89200     223.7199    223.43125     126271.4   -40047.258    2783.5009   -42830.759     259.8244   0.98908772 
   89300    224.99896    317.66297    126246.05   -40060.088    2799.4149   -42859.503    260.08299   0.98928635 
   89400    225.57586    279.76432    126446.06   -40080.603    2806.5925   -42887.195    260.25839   0.98772146 
   89500    216.80567    268.76259    126561.56    -40136.54    2697.4747   -42834.015    260.72595   0.98682011 
   89600    218.12961    319.06992    126449.38   -40174.672     2713.947   -42888.619     260.8377   0.98769557 
   89700    217.54525    334.44382    126766.38   -40128.796    2706.6765   -42835.473    261.46404   0.98522567 
   89800    222.76864     286.8313    126657.09   -40076.425    2771.6654    -42848.09    261.34673   0.98607582 
   89900    221.84724    399.28316    126631.02   -40133.838    2760.2015    -42894.04    261.34693   0.98627877 
   90000    223.73137     253.0658    126518.32   -40047.576    2783.6435    -42831.22    262.00951   0.98715737 
   90100    220.91028    356.61042     126680.2   -40057.514    2748.5439   -42806.058    262.63344   0.98589587 
   90200    220.19661    265.62611     126628.8   -40101.977    2739.6644   -42841.641    262.99071   0.98629611 
   90300     224.9161    238.10256    126773.75   -40113.456    2798.3839    -42911.84    263.32028   0.98516842 
   90400    221.47462    262.55018    126875.67   -40120.989    2755.5653   -42876.554    263.87679   0.98437696 
   90500    221.11271    483.00526    126895.59   -40104.149    2751.0625   -42855.211     264.3988   0.98422245 
   90600    231.33471     348.2644    126976.98   -40028.884    2878.2436   -42907.128     264.7751   0.98359157 
   90700    229.14897    46.455846    126938.31   -40046.471    2851.0488    -42897.52     265.0456   0.98389122 
   90800    221.84617    181.49509    126897.32   -40065.844    2760.1882   -42826.032     265.4307   0.98420908 
   90900    220.30598    227.85934    126751.32   -40161.456    2741.0252   -42902.481    265.26462   0.98534272 
   91000    223.06526    582.49272    127126.85   -40180.923     2775.356   -42956.279    266.06418   0.98243205 
   91100    223.00982    160.49643    126990.65   -40179.317    2774.6662   -42953.983    266.38735   0.98348572 
   91200     221.1515    267.74036     127016.7   -40132.895    2751.5451    -42884.44    266.69567   0.98328405 
   91300    227.37036    461.97205    126957.83   -40033.255    2828.9196   -42862.174    266.31577   0.98373993 
   91400    226.26355    269.60773    127016.65   -40016.078    2815.1488   -42831.227    266.89938   0.98328444 
   91500     229.9935    446.98578    127106.14   -40034.615    2861.5564   -42896.171    267.26999   0.98259209 
   91600    227.11144    385.06405    127165.61   -40075.303     2825.698   -42901.001    267.16792   0.98213263 
   91700    224.36455    215.64941    127157.04   -40147.563    2791.5216   -42939.085    267.58109   0.98219882 
   91800    223.21689    152.13454    127059.36   -40112.863    2777.2424   -42890.106    267.85073   0.98295391 
   91900    223.39121    376.75614    126872.15   -40112.789    2779.4114   -42892.201    267.69887   0.98440429 
   92000    224.50781    287.83164    126761.47   -40119.234     2793.304   -42912.538    267.96827   0.98526387 
   92100    225.06954     227.9748    127037.74   -40168.606     2800.293   -42968.899    268.76577    0.9831212 
   92200    223.52116    372.85664    126986.25   -40103.323    2781.0281   -42884.352    268.65841   0.98351982 
   92300    228.90991    428.83003    126985.11   -40022.045    2848.0744    -42870.12    268.45211   0.98352859 
   92400    231.46929    438.77648    127125.88    -40034.53     2879.918   -42914.448    268.99526   0.98243958 
   92500    228.40933    274.07787    127397.71   -40083.958    2841.8463   -42925.804    269.30719   0.98034329 
   92600    221.82237     199.7816    127280.09   -40055.312     2759.892   -42815.204    269.77022    0.9812492 
   92700    225.56483    283.90358    127173.67   -40029.833    2806.4554   -42836.288    269.97747   0.98207036 
   92800    224.63188    155.06878    127011.65   -40067.403    2794.8476   -42862.251     270.1502   0.98332314 
   92900    228.45684    284.60819     126940.2    -40025.27    2842.4375   -42867.708    270.36836   0.98387662 
   93000    224.10147    41.724976     126972.9   -40055.189    2788.2484   -42843.437    270.90256    0.9836232 
   93100    222.89383    388.80883    126806.53   -39987.858     2773.223   -42761.081    270.87928   0.98491372 
   93200    226.94407     281.4625    126898.54   -39996.534    2823.6156    -42820.15    271.27479   0.98419962 
   93300    222.37966    330.91416    126777.97   -40018.795    2766.8258   -42785.621    271.40244   0.98513563 
   93400    224.51512    185.62196    126638.69   -40053.807     2793.395   -42847.202    271.55606   0.98621903 
   93500    224.04549    485.57632    126453.32   -40106.306    2787.5518   -42893.858    271.60406   0.98766479 
   93600    221.84847    192.10823    126663.79   -40182.926    2760.2167   -42943.142    272.56572   0.98602361 
   93700    223.83797    353.83226    126635.46   -40139.228    2784.9699   -42924.198    272.53839    0.9862442 
   93800    224.66805    300.27716    126909.62   -40090.712    2795.2977   -42886.009    273.14446   0.98411365 
   93900    226.04205   -8.7659298    126724.56   -40070.087    2812.3928    -42882.48     273.5021   0.98555083 
   94000    220.62419    233.97213    126653.72   -40070.039    2744.9843   -42815.023    273.75285   0.98610204 
   94100    224.98275    266.18459    126502.88   -40071.228    2799.2131   -42870.441    273.95125   0.98727788 
   94200    220.48434    491.99095    126345.27   -40062.444    2743.2444   -42805.688    274.42582   0.98850941 
   94300    224.91485    364.83046    126500.15   -40006.348    2798.3684   -42804.716    274.75726   0.98729919 
   94400    229.76019    244.75778    126391.34   -39989.491    2858.6536   -42848.145    274.62556   0.98814913 
   94500    226.40537    369.14964    126335.43   -39916.743    2816.9132   -42733.656    274.62467    0.9885864 
   94600    224.61796    269.19241    126455.14   -39949.898    2794.6745   -42744.573    275.37024   0.98765059 
   94700    223.60597    255.75495    126608.85   -39989.917    2782.0834       -42772    275.93675   0.98645154 
   94800    226.65163    195.68716    126590.45    -39997.99    2819.9772   -42817.967    276.05889   0.98659486 
   94900    223.67846    229.88534    126421.13    -39962.12    2782.9852   -42745.106    276.16305    0.9879163 
   95000    225.93867      47.3968    126474.59   -39951.221    2811.1066   -42762.328    276.60129   0.98749866 
   95100    227.30271    232.97714    126354.28   -39954.964    2828.0779   -42783.042    277.00701   0.98843898 
   95200    228.26762    439.35453    126488.01   -39992.327    2840.0831   -42832.411    277.44178    0.9873939 
   95300     232.6714     288.7964    126626.55   -39910.496    2894.8746   -42805.371    278.33989    0.9863136 
   95400     227.6637    330.30416    126580.95   -39972.886    2832.5692   -42805.455    278.55961   0.98666894 
   95500    221.32531    375.06386    126432.73   -39975.078    2753.7076   -42728.786    278.55291   0.98782563 
   95600    223.72545    475.78711    126285.44   -39952.484      2783.57   -42736.054    278.93659   0.98897775 
   95700    222.32792    173.22788    126256.34   -40009.727     2766.182   -42775.909    279.29511   0.98920572 
   95800    223.42807    353.26022    126100.01   -40044.443    2779.8699   -42824.313    279.85455   0.99043202 
   95900    226.47073    472.42933    126161.81   -39990.824    2817.7265   -42808.551    280.30182   0.98994687 
   96000    221.40678    276.12151     126146.3   -40073.085    2754.7212   -42827.807    280.18794    0.9900686 
   96100    220.62712    202.25334    125970.47   -40004.186    2745.0209   -42749.206    280.54999   0.99145054 
   96200    222.27947    177.73447    125835.02   -40020.181    2765.5792   -42785.761    280.62712   0.99251776 
   96300    226.35403    222.24837    125787.84   -39951.242    2816.2745   -42767.516    280.50403   0.99289002 
   96400    227.86775    415.37295    125611.09   -39925.097     2835.108   -42760.205    280.97847   0.99428712 
   96500    225.42878    356.30085    125588.69   -39972.311    2804.7626   -42777.074     281.4354   0.99446444 
   96600    227.49016    414.72197    125558.65   -39973.897    2830.4101   -42804.308    282.03658   0.99470244 
   96700    223.04227      474.548    125665.44   -40067.079    2775.0699   -42842.149    282.84224   0.99385708 
   96800    217.96743    372.62327    125880.79   -40110.349    2711.9292   -42822.278     283.8262   0.99215685 
   96900    223.21466    318.00064    125868.75    -40059.78    2777.2147   -42836.994    283.74148   0.99225176 
   97000    221.97907    483.53906    125847.06   -40076.693    2761.8416   -42838.535    283.67583   0.99242277 
   97100    222.18861    106.29993     126058.1   -40071.336    2764.4487   -42835.784    284.11617   0.99076132 
   97200    226.37559    226.31016    126023.82   -40076.271    2816.5427   -42892.813    284.34216   0.99103086 
   97300    224.63555    295.22537    126079.05   -40084.625    2794.8934   -42879.518    284.68534   0.99059668 
   97400    220.24873    266.49296    126146.04   -40102.601    2740.3129   -42842.914    285.09933   0.99007063 
   97500     227.2766    42.939426    126373.23   -40007.982     2827.753   -42835.735    285.43693   0.98829073 
   97600    224.05619    253.48639    126317.34   -40066.424    2787.6849   -42854.109    285.53546   0.98872798 
   97700    224.90152    470.46373    126230.95   -39991.793    2798.2025   -42789.995    286.23084   0.98940468 
   97800    222.03809    445.14485    126206.33   -39965.184    2762.5759    -42727.76    286.82779    0.9895977 
   97900    225.51089    320.94951    126191.95   -39931.671    2805.7842   -42737.455     287.3914   0.98971047 
   98000    227.22216    496.19383    126236.47   -39956.799    2827.0757   -42783.875    287.62288   0.98936139 
   98100    223.21009     346.4667    126450.32   -40032.153    2777.1579   -42809.311    288.25813   0.98768823 
   98200    225.25996     278.0026     126735.5   -40011.999    2802.6621   -42814.661    289.17418    0.9854657 
   98300    221.62626    206.15792     126521.1   -40025.477     2757.452   -42782.929    288.92468   0.98713568 
   98400    222.15434    25.937851    126464.43   -40032.994    2764.0224   -42797.017    289.00244   0.98757799 
   98500    223.84269    328.73685    126434.99   -40032.346    2785.0286   -42817.374     289.1265   0.98780798 
   98600     228.3725    302.48776    126281.19   -40080.832    2841.3881    -42922.22    289.49841   0.98901106 
   98700    216.76897    174.63494       126425   -40147.008    2697.0181   -42844.026    290.02113   0.98788601 
   98800    220.07862    304.47034    126312.39   -40105.559    2738.1964   -42843.756    290.65125   0.98876675 
   98900    228.40771    496.42984    126419.63   -40116.594    2841.8262    -42958.42     290.7789   0.98792798 
   99000    217.80022    325.47341     126466.3    -40165.93    2709.8488   -42875.779    290.40541   0.98756338 
   99100    222.46228     292.6695    126372.13   -40087.331    2767.8537   -42855.185    290.12636   0.98829929 
   99200    224.30159    177.93344    126410.72   -40084.507    2790.7382   -42875.245    289.85412   0.98799763 
   99300    224.93846    326.64279    126405.06   -40052.829    2798.6621   -42851.491    289.97022   0.98804188 
   99400    228.04739    358.12898    126433.57   -40018.621    2837.3431   -42855.964    289.91809   0.98781904 
   99500    231.98226    516.55633    126543.67   -39899.489    2886.3003   -42785.789    291.04075   0.98695963 
   99600    229.51901    223.78955    126540.49   -39932.095    2855.6529   -42787.748     291.2025   0.98698441 
   99700    227.64131    471.58962    126629.86   -39942.514    2832.2907   -42774.804    291.46315   0.98628781 
   99800     226.8113    327.89363     126604.7   -39950.942    2821.9637   -42772.905    291.77237   0.98648387 
   99900    225.59525    394.41912    126549.26   -39998.752    2806.8338   -42805.586     292.0541   0.98691604 
  100000    228.18125    48.990761    126472.89   -40002.982    2839.0085    -42841.99     292.4549   0.98751195 
  100100     225.7059    454.41951    126574.82   -39911.109    2808.2105    -42719.32    293.08617   0.98671668 
  100200     223.1022    250.78905    126725.84   -39906.903    2775.8156   -42682.719     293.6473   0.98554082 
  100300    232.15593    190.94337    126460.26   -39909.674    2888.4611   -42798.135    293.30918    0.9876106 
  100400    224.72931    330.38802    126318.69   -39948.323    2796.0598   -42744.383    293.03612   0.98871743 
  100500    226.28157    315.05797    126341.42   -39863.214    2815.3729   -42678.587    293.16775   0.98853957 
  100600    221.47539    358.99526    126227.66    -39947.54    2755.5749   -42703.115    293.33677   0.98943049 
  100630    224.89262    389.03787    126358.69   -39931.357    2798.0917   -42729.449    293.73015   0.98840443 
Loop time of 95.9725 on 6 procs for 100000 steps with 4175 atoms

Performance: 450.129 ns/day, 0.053 hours/ns, 1041.965 timesteps/s
98.8% CPU use with 6 MPI tasks x no OpenMP threads

MPI task timing breakdown:
Section |  min time  |  avg time  |  max time  |%varavg| %total
---------------------------------------------------------------
Pair    | 78.584     | 79.827     | 81.06      |   9.8 | 83.18
Neigh   | 5.2284     | 5.25       | 5.274      |   0.7 |  5.47
Comm    | 6.9857     | 8.2579     | 9.5258     |  31.1 |  8.60
Output  | 0.15929    | 0.16009    | 0.16357    |   0.4 |  0.17
Modify  | 1.7618     | 1.7833     | 1.7938     |   0.8 |  1.86
Other   |            | 0.6938     |            |       |  0.72

Nlocal:        695.833 ave         706 max         685 min
Histogram: 1 0 1 0 0 1 1 1 0 1
Nghost:        1492.50 ave        1511 max        1464 min
Histogram: 1 0 0 0 0 1 2 0 1 1
Neighs:        0.00000 ave           0 max           0 min
Histogram: 6 0 0 0 0 0 0 0 0 0
FullNghs:      19963.3 ave       20265 max       19525 min
Histogram: 1 0 0 1 0 0 2 0 0 2

Total # of neighbors = 119780
Ave neighs/atom = 28.689820
Neighbor list builds = 5696
Dangerous builds = 0

undump              1
unfix               2
unfix               3
unfix               4


################################################
#######         Run Simulation         #########
################################################

reset_timestep      0
log                 log.run_${NAME}
log                 log.run_liquid_density_MLmW
