
# Create simulation box of size 50 x 50 x 50 Angstrom
#
lattice	            sc 1
Lattice spacing in x,y,z = 1.0000000 1.0000000 1.0000000
region 	            all block 0 50 0 50 0 50 units box
create_box          1 all
Created orthogonal box = (0.0000000 0.0000000 0.0000000) to (50.000000 50.000000 50.000000)
  1 by 2 by 3 MPI processor grid

# fill box with 4175 randomly distributed atoms
#
create_atoms        1 random 4175 63782 all
Created 4175 atoms
  create_atoms CPU = 0.001 seconds
mass                1 18.015

# Define potential
#
pair_style          sw
pair_coeff          * * ML_mW.sw mW
Reading sw potential file ML_mW.sw with DATE: 2019-02-27

# Run minimization
#
minimize            1.0e-8 1.0e-8 10000 1000
WARNING: Using 'neigh_modify every 1 delay 0 check yes' setting during minimization (../min.cpp:187)
Neighbor list info ...
  update every 1 steps, delay 0 steps, check yes
  max neighbors/atom: 2000, page size: 100000
  master list distance cutoff = 6.0032907
  ghost atom cutoff = 6.0032907
  binsize = 3.0016454, bins = 17 17 17
  1 neighbor lists, perpetual/occasional/extra = 1 0 0
  (1) pair sw, perpetual
      attributes: full, newton on
      pair build: full/bin/atomonly
      stencil: full/bin/3d
      bin: standard
Per MPI rank memory allocation (min/avg/max) = 4.255 | 4.258 | 4.261 Mbytes
Step Temp E_pair E_mol TotEng Press 
       0            0    7792709.3            0    7792709.3    5898794.3 
     630            0   -45180.336            0   -45180.336   -154.07449 
Loop time of 1.1325 on 6 procs for 630 steps with 4175 atoms

98.8% CPU use with 6 MPI tasks x no OpenMP threads

Minimization stats:
  Stopping criterion = max force evaluations
  Energy initial, next-to-last, final = 
      7792709.32924461  -45180.0188663597   -45180.336116598
  Force two-norm initial, final = 2.0191930e+08 4.9721331
  Force max component initial, final = 1.0948746e+08 0.73126211
  Final line search alpha, max atom move = 0.053306038 0.038980685
  Iterations, force evaluations = 630 1000

MPI task timing breakdown:
Section |  min time  |  avg time  |  max time  |%varavg| %total
---------------------------------------------------------------
Pair    | 0.87814    | 0.98641    | 1.0418     |   5.6 | 87.10
Neigh   | 0.023758   | 0.024432   | 0.024698   |   0.2 |  2.16
Comm    | 0.0465     | 0.10214    | 0.21125    |  17.6 |  9.02
Output  | 0          | 0          | 0          |   0.0 |  0.00
Modify  | 0          | 0          | 0          |   0.0 |  0.00
Other   |            | 0.01951    |            |       |  1.72

Nlocal:        695.833 ave         704 max         685 min
Histogram: 1 1 0 0 1 0 0 1 0 2
Nghost:        1494.17 ave        1515 max        1468 min
Histogram: 1 1 0 0 0 0 1 1 1 1
Neighs:        0.00000 ave           0 max           0 min
Histogram: 6 0 0 0 0 0 0 0 0 0
FullNghs:      19997.0 ave       20462 max       19320 min
Histogram: 1 1 0 0 0 0 0 2 0 2

Total # of neighbors = 119982
Ave neighs/atom = 28.738204
Neighbor list builds = 26
Dangerous builds = 0

# Add velocity/set timestep
#
velocity            all create ${TEMP} 120598 rot yes dist gaussian
velocity            all create 220 120598 rot yes dist gaussian
timestep            5.0

# Define output
#
compute	            1 all msd
thermo	            100
thermo_style        custom step temp press vol etotal ke pe c_1[4] density

# Neighbor lists
#
neigh_modify        delay 0 every 1 check yes

# Set fixes
#
fix                 1 all momentum 10 linear 1 1 1 rescale
fix                 2 all nve
fix                 3 all temp/csvr ${TEMP} ${TEMP} 500.0 928347
fix                 3 all temp/csvr 220 ${TEMP} 500.0 928347
fix                 3 all temp/csvr 220 220 500.0 928347
fix                 4 all press/berendsen iso ${PRES} ${PRES} 1000.0 modulus 20000
fix                 4 all press/berendsen iso 200 ${PRES} 1000.0 modulus 20000
fix                 4 all press/berendsen iso 200 200 1000.0 modulus 20000

# Run 0.5 ns equilibration
#
dump                1 all custom 1000 eq.${NAME}.dump id type x y z vx vy vz
dump                1 all custom 1000 eq.liquid_density_MLmW.dump id type x y z vx vy vz
run                 100000
Per MPI rank memory allocation (min/avg/max) = 3.506 | 3.508 | 3.511 Mbytes
Step Temp Press Volume TotEng KinEng PotEng c_1[4] Density 
     630          220    846.92133       125000   -42443.118    2737.2183   -45180.336 2.7295415e-33   0.99914793 
     700    140.20311    125.60925    125302.39    -41603.04    1744.3932   -43347.433   0.25839674   0.99673668 
     800    174.07329    -72.44638    125220.48   -40840.443    2165.8026   -43006.245   0.60941849   0.99738873 
     900    192.37867    105.70391    125097.68   -40421.079    2393.5564   -42814.636    1.0569991   0.99836777 
    1000    203.86381    319.39878    125302.35   -40151.811    2536.4534   -42688.265    1.4490156   0.99673706 
    1100    211.02353    68.710023    125293.86   -39969.869    2625.5339   -42595.403    1.7594534   0.99680459 
    1200    211.05761    275.50823    124991.12   -40014.338    2625.9579   -42640.296    2.1368204   0.99921893 
    1300    212.50808    112.28066    124821.44   -39998.609    2644.0045   -42642.613    2.5916223    1.0005773 
    1400    217.10262    468.17062    124915.32   -40004.227    2701.1693   -42705.396    2.9764486   0.99982523 
    1500    216.98234    194.19297    125113.14   -39959.027    2699.6728     -42658.7     3.293723   0.99824437 
    1600    222.32576    173.47431    125401.04   -39866.546    2766.1551   -42632.701    3.6417398   0.99595261 
    1700    223.31903    172.00065    125533.96   -39915.892    2778.5133   -42694.405    3.9807745   0.99489807 
    1800    216.37385    292.10872       125741   -40020.982     2692.102   -42713.084    4.3726931   0.99325991 
    1900    222.38817    253.86663    125667.63    -40030.57    2766.9316   -42797.502     4.744997   0.99383981 
    2000    221.05161    77.166277    125653.74   -39995.086    2750.3023   -42745.388    5.0698666   0.99394966 
    2100     223.0871    319.65248    125576.48   -39951.967    2775.6276   -42727.594    5.4123085    0.9945612 
    2200    221.61088    333.36208    125764.28   -39973.379    2757.2606    -42730.64    5.6292287   0.99307604 
    2300    222.24069    66.283564    125567.66   -39961.107    2765.0966   -42726.203     5.877831   0.99463103 
    2400    224.09429     304.0177    125612.42   -39959.039     2788.159   -42747.198    6.1250485   0.99427665 
    2500     221.7189    160.52259    126028.33    -39924.05    2758.6046   -42682.654    6.5429241   0.99099536 
    2600    223.56727    121.56835    126163.27   -39883.115    2781.6019   -42664.717     6.967108   0.98993546 
    2700    225.46636    332.40455    126221.84   -39922.143    2805.2301   -42727.373    7.3108899   0.98947611 
    2800    225.54424    174.09174    126114.97   -39911.171    2806.1991   -42717.371    7.7080063   0.99031453 
    2900    217.05384     148.6389    126132.59   -39975.154    2700.5624   -42675.717    8.1234534   0.99017621 
    3000    220.56835    150.69544    126030.94   -40006.438    2744.2897   -42750.727    8.3863853   0.99097487 
    3100    221.36453    207.49335    126132.65   -39967.247    2754.1956   -42721.442    8.6453647   0.99017575 
    3200    217.82886    179.33983    126008.46   -40018.524    2710.2051   -42728.729    8.8732278   0.99115165 
    3300    223.80894    76.049769    126211.42   -40014.189    2784.6087   -42798.798    9.0860833    0.9895578 
    3400    222.25698    239.31585    125942.51   -40060.238    2765.2994   -42825.537    9.4535318   0.99167062 
    3500    219.46472    341.79001     126138.9   -40097.047    2730.5584   -42827.606    9.7277052   0.99012667 
    3600    212.33259    131.33682    126181.35   -40127.102    2641.8211   -42768.923    10.098421   0.98979356 
    3700     219.5277    34.633285    126442.62   -40181.729    2731.3419   -42913.071    10.408716   0.98774839 
    3800    218.08395    265.90158    126274.82   -40146.186    2713.3789   -42859.564    10.672098   0.98906091 
    3900     217.6882    159.68563       126099   -40175.613    2708.4551   -42884.068    10.940431   0.99043999 
    4000    211.78186    189.10369    126207.35    -40153.91    2634.9689   -42788.879    11.310596   0.98958971 
    4100    216.84938    236.54086    126224.83   -40138.182    2698.0186   -42836.201    11.606377   0.98945262 
    4200    218.17502    342.19344     126245.3   -40149.492     2714.512   -42864.004    11.820629   0.98929219 
    4300    222.42436     147.7172    125978.23   -40147.242    2767.3819   -42914.624    12.116693   0.99138946 
    4400    218.63061    191.51238    126030.81   -40139.126    2720.1804   -42859.306    12.457843   0.99097589 
    4500    219.07014    381.27182    126165.66   -40145.176     2725.649   -42870.825    12.703291   0.98991669 
    4600    216.67351    208.02668     126198.2   -40193.642    2695.8304   -42889.473    13.088297   0.98966144 
    4700    216.01293    357.43872    126337.78   -40101.691    2687.6116   -42789.302     13.23354   0.98856804 
    4800    216.64231     189.5504    126348.14   -40164.548    2695.4422   -42859.991     13.38554   0.98848696 
    4900    222.32319    132.50574    126293.69   -40046.719    2766.1231   -42812.842    13.734802   0.98891311 
    5000    223.87043    178.42772    126091.69   -40007.729    2785.3738   -42793.103    13.807166   0.99049736 
    5100    224.17633    219.11483    126352.99   -40088.988    2789.1798   -42878.168    14.050091   0.98844902 
    5200    221.14453    271.70843    126495.24   -40143.815    2751.4584   -42895.273    14.429991   0.98733745 
    5300    223.27637    71.663513    126521.37   -40112.226    2777.9826   -42890.209    14.600327   0.98713359 
    5400    216.55945    333.28339    126391.04   -40130.758    2694.4112   -42825.169     14.90258   0.98815146 
    5500    220.78761    152.56358    126291.83   -40129.877    2747.0176   -42876.895     15.19776    0.9889277 
    5600    215.54399    341.02005    126295.99   -40129.855     2681.777   -42811.632    15.549748   0.98889518 
    5700    219.64418    286.34771    126516.82   -40126.193    2732.7912   -42858.984    15.995338   0.98716907 
    5800    221.76002    58.256071     126439.7   -40168.355    2759.1162   -42927.472    16.309201   0.98777116 
    5900    217.74035    244.36769    126392.65    -40210.73    2709.1039   -42919.834    16.496778   0.98813889 
    6000    220.55644    313.32037    126446.32    -40210.62    2744.1414   -42954.761    16.695186   0.98771943 
    6100    221.92465    141.56075     126614.6   -40164.261    2761.1645   -42925.425    17.045817   0.98640669 
    6200    218.20978    427.36977    126753.75   -40234.589    2714.9445   -42949.533    17.280871    0.9853238 
    6300    220.22012    76.880778    126715.39   -40205.615     2739.957   -42945.572     17.58267   0.98562211 
    6400    217.07922    328.30657    126620.78    -40183.59    2700.8782   -42884.468    17.834382   0.98635857 
    6500    216.90114    259.50977    126706.71   -40121.644    2698.6626   -42820.307    18.205046   0.98568961 
    6600    217.05783    244.78996    126694.77    -40182.63     2700.612   -42883.243    18.406833   0.98578253 
    6700    216.86298    221.08852    127021.28   -40245.254    2698.1877   -42943.442    18.762444   0.98324858 
    6800    221.72918    270.60267    126950.51   -40176.464    2758.7326   -42935.197    18.976908   0.98379671 
    6900    225.02777    148.01754    126938.24   -40131.745    2799.7733   -42931.519    19.217598   0.98389178 
    7000    224.49291     71.69524    127027.96    -40124.32    2793.1186   -42917.439    19.326232   0.98319684 
    7100     218.6608    301.21345    127353.08   -40159.343    2720.5561   -42879.899    19.543568   0.98068682 
    7200    219.15624    304.79853    127441.52   -40219.477    2726.7203   -42946.197    19.814937   0.98000628 
    7300    220.82126     57.11525    127570.12   -40297.334    2747.4363   -43044.771    20.060559   0.97901837 
    7400    221.20268    247.47264    127437.69   -40339.379    2752.1818   -43091.561    20.274638   0.98003577 
    7500    217.16752    134.33089     127604.8   -40325.533    2701.9768    -43027.51     20.69352   0.97875233 
    7600     218.3497    194.04462    127477.68   -40419.138    2716.6854   -43135.824    20.940075   0.97972833 
    7700    219.17328    320.67821    127436.96   -40321.821    2726.9323   -43048.753    21.010266   0.98004138 
    7800    222.09943    46.784618    127491.98   -40293.952    2763.3391   -43057.292    21.196067   0.97961839 
    7900     213.7013     27.67189    127433.54   -40353.481    2658.8505   -43012.331    21.276077   0.98006765 
    8000    220.79568    171.86777    127400.75   -40321.125    2747.1181   -43068.243     21.38605   0.98031991 
    8100    220.61588    321.23508    127533.68   -40396.992     2744.881   -43141.873    21.773396   0.97929812 
    8200    217.82148    308.19527    127746.07   -40436.619    2710.1133   -43146.733    22.003442   0.97766991 
    8300    217.66905    145.56355    127804.55   -40442.718    2708.2168   -43150.935    22.213314   0.97722259 
    8400    220.07284    149.88675     127676.9   -40415.907    2738.1245   -43154.032    22.345017    0.9781996 
    8500    219.94019    113.16377    127609.36   -40338.865    2736.4741   -43075.339     22.36406   0.97871732 
    8600    221.27738    171.36062     127619.8   -40353.146    2753.1113   -43106.258    22.515886   0.97863727 
    8700    221.06426    360.22208    127590.83   -40346.039    2750.4596   -43096.498    22.666636   0.97885949 
    8800    217.41021    103.24259    127573.28   -40389.626    2704.9963   -43094.622    23.044593    0.9789941 
    8900    218.22037     210.3704    127666.79   -40477.591    2715.0763   -43192.667    23.089797   0.97827703 
    9000    221.63378    77.748972     127621.4   -40452.257    2757.5455   -43209.802    23.248534     0.978625 
    9100    215.02406    374.80413    127847.08   -40519.478    2675.3081   -43194.786    23.404163   0.97689745 
    9200     224.3174    145.44006    127876.37   -40434.962     2790.935   -43225.897     23.60861   0.97667375 
    9300    216.82364    144.56147    127804.96   -40486.834    2697.6983   -43184.532    24.072067   0.97721942 
    9400    217.49968    252.10711    128036.48   -40444.993    2706.1095   -43151.102    24.220292   0.97545238 
    9500    219.96996    63.551297    127923.39   -40464.353    2736.8445   -43201.198    24.247811   0.97631472 
    9600    219.86868     171.2374    127963.63   -40435.818    2735.5844   -43171.403    24.357987   0.97600771 
    9700    221.09747     365.8456    127956.74   -40365.555    2750.8729   -43116.428    24.554651   0.97606024 
    9800    219.10899    206.50925    128075.69    -40436.36    2726.1324   -43162.492    24.681317   0.97515376 
    9900    218.07616     43.58967    128070.37   -40505.698     2713.282    -43218.98    24.875697   0.97519425 
   10000    216.82845    359.93336    128032.19   -40497.979    2697.7581   -43195.737    24.963435   0.97548506 
   10100    216.49143    58.524738    128029.37   -40453.341    2693.5649   -43146.906    25.197817   0.97550653 
   10200    215.93605    279.64123    128191.46   -40497.717     2686.655   -43184.372    25.492807   0.97427313 
   10300    214.63443    67.652228    127951.65   -40476.943    2670.4604   -43147.404     25.81805   0.97609907 
   10400    219.06623    148.35446    128061.33   -40398.077    2725.6004   -43123.677    25.974542   0.97526314 
   10500    219.44776    388.38458    128154.76   -40383.688    2730.3474   -43114.036    26.087736   0.97455207 
   10600    222.59206    261.69341     128167.2   -40321.247    2769.4684   -43090.716    26.127102   0.97445754 
   10700     218.4241    246.71915    128248.68   -40308.569     2717.611    -43026.18    26.296372   0.97383841 
   10800    221.23339     16.52481    127763.63   -40288.628     2752.564   -43041.192    26.494108   0.97753554 
   10900    225.06333    114.85543    127765.29   -40320.599    2800.2157   -43120.815    26.665196   0.97752285 
   11000    221.24081    354.39601    127678.53    -40326.54    2752.6563   -43079.196    26.747259   0.97818712 
   11100     225.2737     73.35678       127751   -40385.256    2802.8331   -43188.089    26.927791    0.9776322 
   11200    218.23838     135.3023    127683.43   -40379.165    2715.3003   -43094.465    26.988437   0.97814954 
   11300    221.63637    289.62864    127782.24   -40377.855    2757.5778   -43135.433    27.101617   0.97739323 
   11400    223.14773    245.29476     127945.3   -40399.423     2776.382   -43175.805    27.223984   0.97614751 
   11500    220.10619    197.27542     127929.2   -40427.301    2738.5395    -43165.84    27.530428   0.97627037 
   11600    217.17159    282.11597    127883.24   -40435.295    2702.0274   -43137.322    27.617405   0.97662128 
   11700    223.86483    129.58438    127893.69   -40320.104    2785.3041   -43105.408    27.797241   0.97654143 
   11800    219.07931    280.57198    127719.04   -40396.268    2725.7631   -43122.031     28.05944   0.97787685 
   11900    221.62541    128.84072    127810.21   -40402.603    2757.4414   -43160.045    28.039144   0.97717928 
   12000    215.44873    53.704228    127666.37   -40406.556    2680.5918   -43087.147    28.340941   0.97828029 
   12100    220.59645    307.12354    127808.75   -40331.512    2744.6393   -43076.152    28.520919   0.97719047 
   12200     222.3902    15.488962    127918.71   -40337.484    2766.9569   -43104.441    28.805749   0.97635046 
   12300    222.10417    277.19888     127763.3    -40349.47    2763.3982   -43112.868    29.020779   0.97753808 
   12400    223.94084      194.557    127770.88   -40336.448    2786.2498   -43122.697    29.297963   0.97748009 
   12500    221.11263    164.98419    127734.85   -40427.271    2751.0615   -43178.332    29.494148   0.97775579 
   12600    220.59166    229.73359    127889.08   -40355.003    2744.5796   -43099.582    29.771863   0.97657664 
   12700    220.22312    312.08795    128041.69   -40338.431    2739.9943   -43078.425    29.858115   0.97541268 
   12800    225.00638    156.90719    128229.08   -40298.366    2799.5072   -43097.873    30.277865   0.97398729 
   12900    218.51599    140.00906    128309.88   -40343.243    2718.7543   -43061.997    30.512871   0.97337393 
   13000    220.54777    223.65847    128033.28   -40280.577    2744.0335    -43024.61    30.794896   0.97547679 
   13100     223.5048    203.09178    128152.83   -40288.044    2780.8246   -43068.869    31.107317   0.97456679 
   13200    230.23034    189.10102    128173.59   -40230.794    2864.5031   -43095.297    31.232031   0.97440893 
   13300    228.03049    92.614885    128078.07   -40300.088    2837.1329   -43137.221    31.357286   0.97513564 
   13400    219.36519    93.673848    128105.34    -40381.83      2729.32    -43111.15    31.488196   0.97492805 
   13500    221.21444    228.04288    128113.93   -40413.153    2752.3282   -43165.482    31.556077   0.97486267 
   13600    220.00414    153.31464    127985.09   -40444.209    2737.2697   -43181.479    31.622401   0.97584406 
   13700    218.62357    251.68821    128020.89   -40461.836    2720.0928   -43181.929    31.695502   0.97557115 
   13800    225.20157    319.90967    127831.08   -40389.166    2801.9356   -43191.101    31.910784   0.97701976 
   13900    224.49901    183.99644    128140.52   -40461.766    2793.1945    -43254.96    32.077681   0.97466044 
   14000    220.79242   -64.895577    128293.69   -40458.588    2747.0775   -43205.666    32.377742   0.97349678 
   14100    220.37971    194.66993    128270.74   -40466.798    2741.9426   -43208.741    32.556583   0.97367097 
   14200    220.45403    180.88311    128195.12   -40523.222    2742.8673   -43266.089    32.613352   0.97424528 
   14300    219.14077    196.84293    128282.98    -40575.12    2726.5278   -43301.648    32.698736     0.973578 
   14400    218.02133    109.80297    128372.44   -40538.872    2712.5998   -43251.471    33.045235   0.97289953 
   14500    220.32921    114.50827       128138   -40479.483    2741.3143   -43220.797     32.98291    0.9746796 
   14600    219.99575    334.12264    128268.49   -40470.731    2737.1654   -43207.896     33.13001     0.973688 
   14700    217.34722    335.42249    128530.29   -40498.174    2704.2126   -43202.386     33.37914    0.9717047 
   14800    218.31182    289.52582    128649.69    -40537.82    2716.2141   -43254.034    33.551473   0.97080291 
   14900    215.92495    314.80729    128735.85   -40611.981    2686.5169   -43298.498    33.758546   0.97015313 
   15000    217.12487    358.28827    128708.94    -40624.88    2701.4461   -43326.326    33.934908   0.97035599 
   15100    215.44935    288.77782    128623.81   -40664.903    2680.5995   -43345.502    33.870007   0.97099824 
   15200    217.93256    236.65804    128644.36   -40586.607    2711.4953   -43298.103    34.127177   0.97084315 
   15300    216.97994    278.76536    128714.58   -40595.413     2699.643   -43295.056    34.338586   0.97031345 
   15400    220.90282    155.16151    128670.99   -40590.843     2748.451   -43339.294    34.458952   0.97064216 
   15500    214.91397    364.10872     128609.6   -40570.105    2673.9384   -43244.044    34.554515   0.97110553 
   15600    220.19378    100.97795    128541.38   -40526.422    2739.6293   -43266.051    34.632399   0.97162092 
   15700    214.57588     127.1899    128541.77   -40598.397    2669.7319   -43268.129    34.584831   0.97161797 
   15800     218.3796    164.58578     128521.9   -40582.468    2717.0574   -43299.525    34.689598   0.97176815 
   15900    220.61139    304.43827    128399.22   -40613.295     2744.825    -43358.12    34.818223   0.97269663 
   16000    220.56458    132.69492    128660.21   -40554.952    2744.2427   -43299.194    35.315479   0.97072351 
   16100    217.82361    69.109146    128362.95   -40497.968    2710.1398   -43208.108    35.569015   0.97297148 
   16200    219.78223    290.31514     128569.7   -40541.645    2734.5088   -43276.153    35.725774    0.9714069 
   16300    219.60248    128.74718     128597.4     -40568.7    2732.2724   -43300.973    35.642538   0.97119766 
   16400    220.48136    389.84572    128624.83   -40466.209    2743.2073   -43209.416    35.938315    0.9709905 
   16500    223.16813    74.255004    128772.76   -40454.468    2776.6359   -43231.104    36.191166   0.96987505 
   16600    222.82201    415.47581    128907.51   -40446.718    2772.3294   -43219.047    36.546739   0.96886124 
   16700    218.82744    177.97767    129033.97   -40483.881    2722.6294    -43206.51    36.487592   0.96791173 
   16800    222.88809    297.37676    129067.09   -40478.131    2773.1515   -43251.283    36.387256   0.96766331 
   16900    222.71607    230.58208    129008.99   -40440.827    2771.0114   -43211.838     36.26532   0.96809909 
   17000    221.08153    72.974242     128747.2   -40460.911    2750.6745   -43211.585    36.663709   0.97006762 
   17100    225.82424    276.82141    128681.42   -40401.343    2809.6828   -43211.026    36.929246   0.97056354 
   17200     224.0321    230.72936    128643.61   -40420.028    2787.3853   -43207.414    37.220153   0.97084879 
   17300    219.89091    224.55831    128755.19   -40480.795    2735.8609   -43216.656    37.202141    0.9700074 
   17400    220.75054    151.89108    128739.38    -40511.55    2746.5564   -43258.107    37.487872   0.97012654 
   17500    222.13774    223.91085    128750.09   -40506.618    2763.8159   -43270.434    37.473505   0.97004583 
   17600    221.64444    64.740305    128868.95   -40498.471    2757.6782    -43256.15    37.595049   0.96915114 
   17700    219.40875    231.86673     129048.9   -40520.345    2729.8619   -43250.207    37.818353   0.96779974 
   17800    216.04179    222.33825    129042.13   -40519.549    2687.9706    -43207.52    38.103266    0.9678505 
   17900    218.89382    120.61593    129035.97   -40478.538    2723.4552   -43201.993    38.092789   0.96789675 
   18000    219.88941    223.54101    128942.89   -40426.971    2735.8423   -43162.813    38.163568   0.96859539 
   18100    221.29069    215.55961    128689.35   -40525.487    2753.2769   -43278.764    38.411223   0.97050368 
   18200    220.99011    236.75063    128667.63   -40524.188    2749.5371   -43273.725    38.449325   0.97066755 
   18300    225.16206    173.81726    128767.77    -40438.72    2801.4441   -43240.164    38.790493   0.96991268 
   18400    220.55344    357.28402    128684.02   -40493.879    2744.1041   -43237.983    38.762791    0.9705439 
   18500    223.09039    145.19627     128810.3   -40454.146    2775.6686   -43229.814    39.090801   0.96959244 
   18600    222.40537    104.08152    128787.79   -40516.105    2767.1456   -43283.251     39.18014   0.96976193 
   18700    225.89206   -47.594087    128716.41   -40478.233    2810.5266    -43288.76    39.514331   0.97029967 
   18800    220.99627    175.80825    128647.72   -40457.653    2749.6137   -43207.266    39.535113    0.9708178 
   18900    223.86073     170.8757    128771.59   -40501.723     2785.253   -43286.976    39.623558   0.96988391 
   19000    222.42962    408.09689    128815.59   -40475.555    2767.4474   -43243.002    39.699151   0.96955262 
   19100    221.02409    157.14351    128698.27   -40521.446    2749.9599   -43271.406    39.876157   0.97043643 
   19200    220.69456    240.89977    128781.71    -40491.58    2745.8599    -43237.44    39.864476   0.96980767 
   19300    222.88911    200.51279    128707.92   -40449.777    2773.1642   -43222.941    40.066826   0.97036368 
   19400    222.77764    217.48113    128787.86   -40461.925    2771.7774   -43233.702    40.184022   0.96976137 
   19500     222.9696    170.42334     128839.8   -40464.816    2774.1657   -43238.982    40.274619   0.96937044 
   19600     224.5834    136.45202    128724.73   -40506.374    2794.2445   -43300.619    40.355566   0.97023694 
   19700    220.63027    363.51671    128987.96   -40495.803      2745.06   -43240.863    40.751988   0.96825698 
   19800     223.9718    115.29658    128986.45   -40546.074     2786.635   -43332.709    40.654193   0.96826827 
   19900     225.2986    117.94087    129030.99   -40576.102    2803.1429   -43379.245    40.711064   0.96793409 
   20000    217.67007    189.78799     128975.7   -40625.755    2708.2295   -43333.984    40.894889   0.96834904 
   20100    217.57869    277.29335    128884.87   -40581.496    2707.0926   -43288.588    41.001398   0.96903144 
   20200      217.453    422.69367    129068.87   -40626.442    2705.5287    -43331.97    41.161623   0.96764998 
   20300    214.92394    285.29652    129127.59   -40655.494    2674.0624   -43329.556    41.367239   0.96720996 
   20400    217.56374    108.39743    129037.96   -40660.793    2706.9066     -43367.7    41.352714    0.9678818 
   20500    221.57063    228.78301    129238.93   -40626.527    2756.7599   -43383.287    41.508042   0.96637672 
   20600    217.13663    202.21674    129103.97    -40655.46    2701.5925   -43357.052    41.818036   0.96738694 
   20700    223.10978     181.4966    129063.43   -40585.154    2775.9098   -43361.064    41.629802    0.9676908 
   20800    218.10581    238.34244    128869.29   -40584.952     2713.651   -43298.603    42.188991    0.9691486 
   20900     217.0649    360.70068    129000.55   -40609.608    2700.7001   -43310.308     42.31392   0.96816243 
   21000    215.83166    156.54806       129044   -40705.103    2685.3561    -43390.46    42.259629   0.96783651 
   21100    211.29307    145.85575    128883.53   -40707.322    2628.8875   -43336.209    42.348146   0.96904155 
   21200    217.93469    134.52719    128792.25   -40679.964    2711.5219   -43391.486     42.23609   0.96972831 
   21300    216.71884    185.87362    129144.39   -40672.017    2696.3944   -43368.411    42.469477   0.96708416 
   21400    217.66798    210.53545    129081.85   -40646.827    2708.2035   -43355.031    42.724681   0.96755272 
   21500    218.04046    102.82068    128922.67   -40632.916    2712.8378   -43345.754    42.870786   0.96874736 
   21600    221.79605    249.64645    129064.96   -40584.049    2759.5645   -43343.614    42.931346   0.96767933 
   21700      220.618    91.969533    128924.54   -40572.199    2744.9074   -43317.106    43.052865   0.96873325 
   21800    221.58163     191.8984    128849.98   -40569.317    2756.8967   -43326.214    43.082689   0.96929385 
   21900    219.15061    242.40789    128731.13   -40584.642    2726.6502   -43311.293    43.194013   0.97018874 
   22000    217.51341    235.85878    128655.43   -40610.578    2706.2803   -43316.859    43.253565    0.9707596 
   22100     219.6121    275.12164    128763.23   -40534.268    2732.3921    -43266.66    43.326242   0.96994686 
   22200    221.07076     213.7861    128881.34   -40560.324    2750.5406   -43310.864    43.481559   0.96905798 
   22300    218.37544    304.66762       129028   -40537.221    2717.0056   -43254.227    43.698994   0.96795647 
   22400    219.01177    46.393832    129056.21   -40494.621    2724.9228   -43219.544    43.761885   0.96774488 
   22500    217.77073    229.35799    128923.44   -40501.158    2709.4819    -43210.64    43.858909   0.96874155 
   22600    218.45443    232.29568    128817.87   -40465.281    2717.9885   -43183.269    43.896865   0.96953545 
   22700    222.78473    243.35314    128762.71   -40448.113    2771.8656   -43219.979    44.161766   0.96995076 
   22800    223.51624    202.46813    128804.11   -40417.378    2780.9669   -43198.345    44.513391   0.96963901 
   22900    222.76813    201.59085    128830.48    -40471.75    2771.6591   -43243.409     44.65345   0.96944058 
   23000    224.76484    131.64796    128863.69   -40449.882    2796.5019   -43246.384    44.833455   0.96919068 
   23100    220.15386    322.52363    128604.79   -40545.249    2739.1325   -43284.381    44.995833   0.97114181 
   23200    220.47615    134.44612     128667.7   -40484.014    2743.1424   -43227.157    44.911486   0.97066697 
   23300    219.03422    120.90445    128645.83   -40516.271    2725.2021   -43241.473    45.348052   0.97083206 
   23400    219.74245    183.67345    128654.41   -40446.715    2734.0139   -43180.729    45.498287   0.97076727 
   23500    222.78708    124.19297    128551.97   -40488.635    2771.8949    -43260.53     45.60213   0.97154089 
   23600    221.34654    339.21803    128803.77    -40470.65    2753.9718   -43224.622    45.951159    0.9696416 
   23700    219.35241    275.98134    129040.27   -40512.914     2729.161   -43242.075    46.320804   0.96786446 
   23800    216.34119    40.591349    129073.23   -40588.725    2691.6957   -43280.421    46.607737   0.96761728 
   23900    214.54161    129.88709    128987.65   -40623.269    2669.3055   -43292.574    46.764295   0.96825928 
   24000    220.40541    340.07507    129065.54   -40542.358    2742.2623   -43284.621    46.991353   0.96767495 
   24100    222.30909    198.66524    128891.99   -40546.753    2765.9478     -43312.7    47.380792   0.96897792 
   24200     217.9828    182.77024    128889.58   -40622.325    2712.1204   -43334.445    47.305407   0.96899602 
   24300    221.23374    250.06459    128951.23    -40596.65    2752.5684   -43349.218    47.206598   0.96853273 
   24400    216.53439    203.56353     129066.7   -40653.941    2694.0994   -43348.041    47.485378   0.96766626 
   24500    216.76005    46.241354    129179.23   -40607.143    2696.9071   -43304.051    47.646812   0.96682332 
   24600    219.30401    227.03546    129049.64   -40602.628    2728.5588   -43331.186    47.828704   0.96779422 
   24700     217.4813    267.14405    129057.73   -40630.984    2705.8808   -43336.865    48.021022   0.96773349 
   24800      220.343    205.75604    129238.46   -40628.898    2741.4859   -43370.384    48.103442   0.96638023 
   24900    216.56193     178.7565    129217.65   -40563.111    2694.4422   -43257.554    48.156072   0.96653585 
   25000    216.97064    103.75558    129039.06    -40538.23    2699.5273   -43237.757    48.302925   0.96787352 
   25100    223.00618    325.25601    128980.23    -40542.63    2774.6209   -43317.251    48.128935   0.96831502 
   25200    220.60619    63.044184    128866.32   -40582.416    2744.7604   -43327.176    48.346029   0.96917095 
   25300    217.88225    351.04898    128846.86   -40568.634    2710.8694   -43279.504    48.471973   0.96931728 
   25400    215.81743    272.77268    128790.74   -40548.034    2685.1791   -43233.213    48.706502   0.96973971 
   25500    220.69813    208.70759    128811.09   -40491.639    2745.9043   -43237.543    48.719352    0.9695865 
   25600    214.96001    86.471207    128616.13   -40569.773    2674.5112   -43244.284    48.774672   0.97105624 
   25700    213.40243    241.09927    128514.56    -40580.62    2655.1319   -43235.752    48.833094   0.97182368 
   25800    218.91925    94.128221    128573.68   -40558.625    2723.7717   -43282.397     49.19364   0.97137678 
   25900     216.9115    131.63254    128400.77   -40512.631    2698.7914   -43211.423    49.135839    0.9726849 
   26000    224.59398    314.68862    128333.24   -40445.364    2794.3761    -43239.74    49.202222   0.97319671 
   26100    216.41763    382.44808     128426.3   -40530.132    2692.6468   -43222.779    49.315139   0.97249157 
   26200    218.72964    145.76892    128451.25   -40524.536    2721.4126   -43245.949    49.454883   0.97230269 
   26300    217.96337    374.00315    128527.01   -40498.324    2711.8787   -43210.202    49.659972   0.97172951 
   26400     221.5323    242.89058    128633.36    -40485.34     2756.283   -43241.623    49.815408   0.97092613 
   26500    219.01371    189.31846    128582.14   -40539.437    2724.9469   -43264.384    49.930475   0.97131288 
   26600    220.76594    242.35005    128703.77   -40587.866     2746.748   -43334.614    49.899608   0.97039496 
   26700    216.88883    100.49845    128785.97   -40619.333    2698.5094   -43317.843    50.069656   0.96977562 
   26800    226.43466    442.74133    128762.66   -40550.629    2817.2776   -43367.906    50.233548    0.9699512 
   26900    221.33091     105.9254    128845.61   -40562.217    2753.7773   -43315.995    50.444139   0.96932673 
   27000    217.71373    157.62317     128769.3   -40608.785    2708.7727   -43317.558    50.505954   0.96990113 
   27100    222.19795    212.49048    128765.46   -40609.358     2764.565   -43373.923    50.813704   0.96993004 
   27200    218.22841    354.66042    128818.36   -40647.994    2715.1763    -43363.17    50.918331   0.96953177 
   27300    213.91112    137.82223     128906.4   -40674.801     2661.461   -43336.262    50.898921   0.96886962 
   27400    216.15691    92.201128    128694.71   -40625.863    2689.4029   -43315.266    50.965324   0.97046329 
   27500    220.06244    353.39808    128750.13     -40559.1    2737.9951   -43297.095    51.408599   0.97004555 
   27600    224.17787    302.21839     128759.7   -40589.769     2789.199   -43378.968    51.616285   0.96997346 
   27700    214.57945    349.23805    128821.46    -40596.31    2669.7764   -43266.086    51.529368   0.96950841 
   27800    223.89718    383.67798    128961.51   -40525.015    2785.7066   -43310.721    51.793068   0.96845553 
   27900    221.72161    81.849873    128914.13    -40544.11    2758.6383   -43302.748     52.09611   0.96881153 
   28000    220.66112    124.84045    128797.71    -40577.65    2745.4438   -43323.093    52.498129   0.96968717 
   28100    222.70251    306.70093    128974.57   -40563.891    2770.8426   -43334.733    52.617597   0.96835751 
   28200    218.03324    53.883064     128773.7   -40603.505    2712.7481   -43316.253    52.630766   0.96986802 
   28300    220.74402    93.561784    128875.37   -40585.155    2746.4753   -43331.631    52.989043    0.9691029 
   28400    218.53696    84.228115    128805.67   -40618.809    2719.0153   -43337.824    53.143436   0.96962727 
   28500    215.00402    19.310577    128806.84   -40639.017    2675.0588   -43314.076    53.285432   0.96961844 
   28600    216.33301    99.737111    128743.87   -40585.322    2691.5939   -43276.916    53.368707   0.97009276 
   28700    221.81737    243.65859    128804.41   -40595.505    2759.8299   -43355.335    53.404748   0.96963679 
   28800    221.02799    275.53928    128779.33   -40569.247    2750.0084   -43319.256    53.643969   0.96982557 
   28900    223.54061    327.44705    128849.06   -40538.668    2781.2701   -43319.938    53.634864   0.96930073 
   29000    218.08442    86.263108    128849.84   -40620.978    2713.3848   -43334.363    53.751566   0.96929486 
   29100    218.89738    271.48397    129065.25   -40568.493    2723.4996   -43291.993    53.920204   0.96767713 
   29200     220.9219    77.623072    129137.59    -40531.63    2748.6884   -43280.319    54.184467   0.96713509 
   29300    223.36141    267.57919    129094.48   -40602.484    2779.0405   -43381.525    54.412398   0.96745806 
   29400    216.27123    140.91735    129081.55   -40662.861    2690.8253   -43353.686    54.398548   0.96755492 
   29500    217.47681    353.69046    129249.85   -40704.554     2705.825   -43410.379    54.577218   0.96629503 
   29600    222.91684    76.055681     129123.2   -40618.412    2773.5093   -43391.921    54.892504   0.96724286 
   29700    218.15897    291.36327    128999.74   -40657.412    2714.3123   -43371.724    54.970773   0.96816857 
   29800    223.44923    159.90873    129154.14   -40637.162    2780.1332   -43417.295    54.986109    0.9670111 
   29900      221.793    323.00565    129185.08   -40670.657    2759.5266   -43430.184    54.973531   0.96677954 
   30000    218.58768    200.66175    129058.42   -40646.605    2719.6463   -43366.252    55.169617   0.96772837 
   30100    225.30179     118.9611    129044.26    -40635.89    2803.1826   -43439.072    55.217035   0.96783456 
   30200    217.83603    275.55083    128888.62   -40636.329    2710.2943   -43346.623    55.457686   0.96900321 
   30300    216.51602    194.71667    129019.17   -40597.366    2693.8709   -43291.237    55.579515   0.96802277 
   30400    217.46033    253.48871    129032.86   -40568.834      2705.62   -43274.454    55.819053   0.96792001 
   30500    218.63958    392.05055    129024.86   -40560.073     2720.292   -43280.365    56.006221   0.96798009 
   30600    221.24206    175.31721    128915.57   -40539.744    2752.6719   -43292.416    56.342864   0.96880069 
   30700    221.81267     250.1955    128894.18    -40543.84    2759.7714   -43303.611    56.330848   0.96896142 
   30800    220.86226    293.37479    129059.62   -40466.728    2747.9464   -43214.675    56.337506   0.96771933 
   30900    218.12797    432.74156    128942.71   -40572.517    2713.9267   -43286.444    56.796546   0.96859672 
   31000    217.75908    131.79451    129139.43   -40618.296     2709.337   -43327.633    56.945252   0.96712129 
   31100    217.28195    298.33782    129031.59   -40611.736    2703.4005   -43315.137    57.278807    0.9679296 
   31200    212.94479     301.4174    129063.35   -40613.934     2649.438   -43263.372    57.661222   0.96769136 
   31300    220.50583    163.06409     129069.3   -40555.787    2743.5117   -43299.298    57.762056   0.96764676 
   31400      219.717    225.93114    129113.07    -40521.44    2733.6972   -43255.137    57.869845   0.96731872 
   31500    218.11735    253.21001    129161.78   -40571.552    2713.7945   -43285.347    57.810931   0.96695391 
   31600    219.05736   -79.879498     128945.6   -40514.592      2725.49   -43240.082    57.982133   0.96857503 
   31700    220.22371     199.6227    128964.43   -40548.634    2740.0016   -43288.636     57.98043    0.9684336 
   31800    221.59808    211.43649    128872.38   -40482.104    2757.1014   -43239.205    58.122427   0.96912538 
   31900    219.57207    118.26472    128844.88   -40467.517     2731.894   -43199.411    58.448307   0.96933222 
   32000    222.71963   -40.984006    128863.73   -40471.399    2771.0556   -43242.454    58.394454   0.96919043 
   32100    225.37216    256.26698    128830.31   -40484.228    2804.0582   -43288.287    58.543425   0.96944183 
   32200    224.72715    169.98618    128984.03   -40474.485     2796.033   -43270.518    58.969591   0.96828644 
   32300    221.40562    54.851072    129038.92   -40469.515    2754.7068   -43224.222    59.389129    0.9678746 
   32400    221.09014    9.4934613    128994.01   -40541.599    2750.7817   -43292.381    59.612803   0.96821156 
   32500    218.05615    285.04562    129046.01   -40560.288     2713.033   -43273.321    59.351795   0.96782138 
   32600    221.88142    141.89643    129195.66   -40512.766    2760.6267   -43273.393    59.402237   0.96670037 
   32700    219.03949    177.55218    129101.04   -40582.268    2725.2676   -43307.536    59.523003   0.96740889 
   32800    214.71442    148.28412    129053.22   -40615.455    2671.4556   -43286.911    59.556213   0.96776734 
   32900    218.25448    82.621588    128984.75   -40605.208    2715.5006   -43320.709    59.718247   0.96828107 
   33000    216.74452    311.69811    128935.12   -40660.972    2696.7139   -43357.686    59.977618   0.96865378 
   33100    215.55248    174.34988    129142.88   -40583.324    2681.8826   -43265.207    60.042688   0.96709544 
   33200    217.90747     15.84847    129108.55   -40615.782    2711.1832   -43326.965    60.602735   0.96735257 
   33300    220.83702    301.56044    129138.77   -40555.525    2747.6324   -43303.157    60.951507    0.9671262 
   33400    217.78317    60.159378     129040.4   -40638.457    2709.6367   -43348.093    61.020506    0.9678635 
   33500    220.40747    179.23943     129133.2   -40607.654    2742.2879   -43349.942    61.364833   0.96716797 
   33600    220.41089    163.81656    129038.33   -40578.864    2742.3305   -43321.194    61.615268   0.96787902 
   33700    221.44648    300.76748    129087.72   -40556.088    2755.2152   -43311.304    61.609399   0.96750871 
   33800    220.24046    329.17914    129124.63   -40563.652    2740.2101   -43303.862    62.031108   0.96723213 
   33900    218.38469    314.13013    129019.44   -40569.918    2717.1208   -43287.039    62.191692   0.96802071 
   34000    222.22373    274.93207    129069.46   -40534.559    2764.8857   -43299.445    62.296087   0.96764554 
   34100     218.7101    193.85602    129137.89   -40565.917    2721.1694   -43287.086    62.483187   0.96713281 
   34200    221.27683    126.85736    129378.11   -40568.706    2753.1045   -43321.811    62.525312   0.96533708 
   34300    217.91512    145.40273    129283.03    -40613.03    2711.2784   -43324.308    62.628859   0.96604704 
   34400     219.6637    176.54184     129247.2   -40538.219    2733.0341   -43271.253    62.770276   0.96631489 
   34500    219.56329    191.75354    129169.47   -40545.866    2731.7848   -43277.651    63.087737   0.96689639 
   34600    220.87464    265.80397    129083.67   -40543.073    2748.1005   -43291.173    63.381494   0.96753906 
   34700    216.04001    220.37643    128988.19   -40616.625    2687.9485   -43304.573    63.762238   0.96825524 
   34800    218.40019    229.01902    128951.32   -40608.029    2717.3136   -43325.343    63.771165    0.9685321 
   34900    221.97916    51.195729    129049.47   -40625.212    2761.8427   -43387.055    63.718507   0.96779544 
   35000     215.6753    94.006216       129038   -40687.556    2683.4108   -43370.967    63.751191   0.96788149 
   35100    218.01703    254.27677    129081.69    -40628.28    2712.5463   -43340.826    63.959514   0.96755389 
   35200    216.91376     268.8854    129187.83   -40640.019    2698.8195   -43338.838    63.949862   0.96675896 
   35300    222.76598    423.04229    129293.71   -40634.422    2771.6323   -43406.054    64.058742   0.96596723 
   35400    216.30628    223.09286    129267.74   -40655.699    2691.2613    -43346.96     64.22889   0.96616133 
   35500    218.28496    108.88618    129253.79   -40550.486    2715.8799   -43266.366    64.171781   0.96626559 
   35600    220.29979    101.15161    128969.66     -40599.6    2740.9482   -43340.548    63.819244   0.96839437 
   35700    220.44029    63.285028    128806.28   -40545.046    2742.6962   -43287.742    64.053391   0.96962267 
   35800    221.71004    170.90317    128911.43   -40567.514    2758.4944   -43326.008    64.373657    0.9688318 
   35900    223.52083    179.33715    129079.96   -40507.322    2781.0241   -43288.346    64.543784   0.96756683 
   36000    222.27191     102.0067    129279.73   -40478.157    2765.4852   -43243.642    64.540751    0.9660717 
   36100    221.41042    117.08755     129133.7   -40499.947    2754.7665   -43254.714    64.611796   0.96716419 
   36200    223.40677    123.62197    128912.68   -40533.352     2779.605   -43312.957    64.659725   0.96882237 
   36300    217.13914    59.577743    128778.58   -40593.024    2701.6238   -43294.648    64.986912   0.96983128 
   36400     218.9142    251.22239    128975.36   -40536.783    2723.7089   -43260.492    65.126441    0.9683516 
   36500    218.89405    203.94321    129026.54   -40523.021    2723.4581   -43246.479    65.164277   0.96796744 
   36600    213.69063    74.398061    128912.83   -40646.462    2658.7177    -43305.18    65.511249   0.96882129 
   36700     217.4928    204.23981    128930.67   -40587.694    2706.0239   -43293.718    65.706502   0.96868722 
   36800    220.08674    167.27204    128833.47   -40578.584    2738.2975   -43316.881     65.50249   0.96941804 
   36900    219.69198     332.5012    128857.62   -40612.851    2733.3859   -43346.237    65.709764   0.96923637 
   37000    220.63256    47.773989    129096.79   -40571.052    2745.0885   -43316.141    65.781287   0.96744069 
   37100    224.90708    210.57901    129042.59   -40580.519    2798.2717   -43378.791    66.033911   0.96784705 
   37200    216.86555    123.96506    128998.52   -40629.572    2698.2198   -43327.792    66.183012   0.96817771 
   37300    214.61707    216.38511    129045.36    -40631.93    2670.2443   -43302.174    66.343945   0.96782631 
   37400    215.09086    121.76404    129016.86   -40655.574    2676.1392   -43331.714    66.428218   0.96804005 
   37500    218.87742    333.49862    129117.86   -40664.861    2723.2512   -43388.112    66.734525   0.96728287 
   37600    221.97841    215.16769    129121.46   -40615.044    2761.8335   -43376.878    66.957454   0.96725586 
   37700    219.19701    111.15679    129279.24    -40623.96    2727.2275   -43351.187    67.187051   0.96607539 
   37800    217.67105    218.73865     129208.5   -40714.251    2708.2416   -43422.492    67.313742   0.96660433 
   37900    217.71595    211.84658    129230.63   -40680.928    2708.8003   -43389.728     67.55336   0.96643876 
   38000    217.44903    134.82036    129178.81    -40651.77    2705.4794    -43357.25    67.664762   0.96682642 
   38100    220.62594    11.707932    128941.35   -40604.497    2745.0061   -43349.503    67.622761   0.96860699 
   38200    220.32246    95.314934     128812.1   -40612.544    2741.2303   -43353.774    67.547864   0.96957885 
   38300    216.88756     323.8807    128794.22   -40540.335    2698.4935   -43238.829    67.563525   0.96971345 
   38400     218.6973     264.6255    128785.16   -40591.985    2721.0102   -43312.995    67.800812   0.96978171 
   38500    217.41742    389.11138    128926.02   -40603.861    2705.0861   -43308.947    67.987138   0.96872217 
   38600      217.529     174.6531    129131.12   -40561.346    2706.4743   -43267.821    68.287696   0.96718353 
   38700    218.72524    128.05903    128994.44   -40570.075    2721.3578   -43291.433    68.349567   0.96820835 
   38800    219.78965    273.55064    129010.18   -40605.683    2734.6011   -43340.285    68.622479   0.96809021 
   38900    219.68812    149.76082    129068.86    -40573.85    2733.3378   -43307.188    68.596438   0.96765006 
   39000    217.89441    257.86293    128991.67   -40626.973    2711.0207   -43337.994    68.789273    0.9682291 
   39100    218.18561    315.17026    128912.92   -40575.384    2714.6438   -43290.027    68.764098   0.96882062 
   39200    214.38022    161.19755    129092.29   -40600.595    2667.2975   -43267.893    68.958605   0.96747444 
   39300    218.30809    103.40938    129089.55   -40598.169    2716.1677   -43314.336    69.156435   0.96749501 
   39400    219.03965    157.60715     129048.8   -40548.809    2725.2697   -43274.079    69.417654   0.96780052 
   39500     221.8253    297.98833    129160.98   -40517.343    2759.9285   -43277.272    69.600748   0.96695989 
   39600    220.57685    168.45524    129143.12   -40554.844    2744.3953   -43299.239    69.523767   0.96709364 
   39700    220.66132    156.76836    128830.72   -40505.411    2745.4463   -43250.857    69.699974   0.96943874 
   39800    218.77162    256.75783    128971.01   -40544.654    2721.9349   -43266.589    69.757792    0.9683842 
   39900    219.19656    226.35033    128880.93    -40582.37    2727.2219   -43309.592    69.812225   0.96906105 
   40000    218.41689    290.15126    129076.64   -40608.542    2717.5214   -43326.063    70.183949   0.96759176 
   40100      218.015    235.09331    129085.26   -40508.336    2712.5211   -43220.857    70.255127   0.96752711 
   40200    221.81969    246.30299     129100.3   -40526.166    2759.8587   -43286.024    70.496982   0.96741444 
   40300    219.84708    220.23206    128940.19   -40499.506    2735.3157   -43234.822    70.325364    0.9686157 
   40400    222.84268    378.40652    129072.69   -40396.039    2772.5866   -43168.626    70.591043   0.96762139 
   40500    224.50628    297.16048    129151.11   -40428.472    2793.2849   -43221.757    70.740025   0.96703385 
   40600    224.18465    213.40365    129213.07   -40472.509    2789.2832   -43261.792    71.067778   0.96657008 
   40700    216.38905    150.65085     129197.2   -40509.821    2692.2911   -43202.112    71.230959   0.96668883 
   40800    220.38188    144.72162     129184.1   -40559.549    2741.9696   -43301.519    71.259828   0.96678689 
   40900    217.28635    111.13038    129289.31   -40601.299    2703.4553   -43304.754    71.331277   0.96600015 
   41000    221.36431    198.27133    129149.74   -40525.603    2754.1929   -43279.796    71.536442   0.96704406 
   41100    219.79383    79.796095    129152.95   -40511.506    2734.6531   -43246.159    71.719621   0.96702003 
   41200    219.25966     207.0105    128825.46   -40517.044    2728.0071   -43245.051    71.857879    0.9694783 
   41300    216.03033    352.82541    128759.88   -40673.386    2687.8281   -43361.214    71.928189    0.9699721 
   41400    218.30926     276.7569    128825.32   -40622.036    2716.1823   -43338.218    72.045315   0.96947941 
   41500    217.91215    283.02075    129035.02   -40631.884    2711.2414   -43343.125    72.038041   0.96790381 
   41600    220.62697    204.98439    128997.24   -40608.293     2745.019   -43353.312    72.020951   0.96818734 
   41700    215.05141    135.31042    129074.15   -40592.731    2675.6484    -43268.38    72.336276   0.96761037 
   41800    216.95132   -56.269353    128955.73   -40602.881    2699.2869   -43302.168    72.373811   0.96849897 
   41900    220.17715    389.31716     128992.3   -40572.603    2739.4223   -43312.025    72.636008   0.96822439 
   42000    221.64975    352.35301    129020.18   -40558.033    2757.7443   -43315.778    72.870964   0.96801515 
   42100    219.93488    106.45368    129236.33   -40559.734    2736.4081   -43296.142    73.101337   0.96639617 
   42200    220.01737    37.578431    129096.02   -40510.404    2737.4344   -43247.838    73.243738   0.96744647 
   42300    222.46989    10.148152    128903.27   -40480.534    2767.9484   -43248.483    73.497115   0.96889312 
   42400    221.58576    242.19227    128874.91   -40530.136    2756.9481   -43287.084    73.451911   0.96910632 
   42500    219.83876    294.81928     129061.4   -40535.326    2735.2121   -43270.538    73.536431   0.96770602 
   42600    219.30634     350.3638    129184.55   -40546.819    2728.5878   -43275.407    73.559201   0.96678351 
   42700    219.16916    134.34255    129167.32   -40570.819     2726.881     -43297.7    73.538036   0.96691249 
   42800    222.04074    65.108772    129212.05   -40522.688    2762.6089   -43285.296    73.689661   0.96657778 
   42900    221.56933    188.62719    129069.77   -40599.497    2756.7436   -43356.241    73.832289   0.96764324 
   43000    218.48892    203.74124    129190.52   -40628.684    2718.4175   -43347.102    74.235745   0.96673879 
   43100    218.51319    260.12163    129115.13   -40601.447    2718.7195   -43320.166    74.399901   0.96730333 
   43200    223.92286    121.30537    129065.62    -40558.71    2786.0261   -43344.736    74.254982   0.96767439 
   43300    221.56761    326.06554    129166.11   -40572.605    2756.7223   -43329.327    74.500154   0.96692152 
   43400    223.47065    271.37511    129122.92   -40530.638    2780.3998   -43311.038    74.794528   0.96724491 
   43500    225.26846    255.16879    129013.16   -40547.102    2802.7679    -43349.87     74.55088   0.96806782 
   43600    222.39119    149.42569    129003.45   -40460.037    2766.9692   -43227.006    74.569757   0.96814067 
   43700    224.92673    223.64323     128826.8   -40483.163    2798.5161   -43281.679    74.413661   0.96946821 
   43800    221.54725    217.81336    128639.57   -40491.264     2756.469   -43247.733    74.556941   0.97087923 
   43900    224.30648    175.25761    128740.64   -40525.837    2790.7991   -43316.636    75.124679   0.97011705 
   44000    220.04264    76.863081    128702.41   -40544.226    2737.7487   -43281.975    75.083769   0.97040524 
   44100    219.76848    193.34656    128693.17   -40557.576    2734.3377   -43291.914    75.277737   0.97047489 
   44200    219.27874    182.23576    128701.33   -40595.115    2728.2445   -43323.359     75.39436   0.97041336 
   44300    219.16578    344.95867    128667.74   -40601.088    2726.8389   -43327.927    75.724731   0.97066671 
   44400    216.16175    205.89856    128917.76   -40571.216    2689.4631   -43260.679    75.900316   0.96878425 
   44500    222.04735    192.86412    128794.47    -40616.77    2762.6911   -43379.461    76.016402    0.9697116 
   44600     215.3767    317.70067    128799.35   -40677.949    2679.6956   -43357.645    76.255579   0.96967486 
   44700    221.12237     188.2067    129038.35   -40658.632    2751.1827   -43409.814    76.495788   0.96787884 
   44800    215.04298    144.22574    128826.65   -40639.635    2675.5435   -43315.178    76.582148   0.96946939 
   44900    220.46808    374.80337    128837.92   -40580.601    2743.0421   -43323.643    76.837591   0.96938457 
   45000     221.0489    418.87312    128889.84   -40584.313    2750.2685   -43334.581      76.7625   0.96899408 
   45100     222.4233    198.13086    128977.36   -40532.097    2767.3687   -43299.466    76.848916   0.96833652 
   45200    219.92972    225.23877    129022.85   -40602.294    2736.3438   -43338.638    76.981393    0.9679951 
   45300    218.41883    144.74071     128998.1   -40621.028    2717.5454   -43338.573    77.114388   0.96818089 
   45400    223.14001    343.08044    129007.05   -40606.903    2776.2859   -43383.189    77.300718   0.96811368 
   45500    218.69866    390.34627    129155.02   -40616.109    2721.0271   -43337.136    77.401495   0.96700457 
   45600    222.63051    177.43346    129240.48   -40591.046    2769.9469   -43360.992    77.925296   0.96636513 
   45700    221.18224     237.6216    129292.47   -40602.905    2751.9276   -43354.832    78.100177   0.96597652 
   45800    224.78966    101.21981    129276.86   -40540.204    2796.8107   -43337.014    78.008796   0.96609319 
   45900    223.76144    157.57843    129342.06   -40479.743    2784.0178   -43263.761    78.436921   0.96560619 
   46000    222.86366    374.03576    129326.55   -40453.001    2772.8476   -43225.849    78.684416   0.96572198 
   46100     223.6424    255.55974    129261.23    -40406.61    2782.5367   -43189.147    78.883021   0.96620999 
   46200    224.71155      86.3793    129189.99   -40404.878    2795.8389   -43200.717    78.902241   0.96674281 
   46300    227.84846    117.69343    129046.24    -40448.68     2834.868   -43283.548    78.578408   0.96781966 
   46400    224.80794    111.92054     128967.5   -40488.632    2797.0381    -43285.67    78.684267    0.9684106 
   46500    221.94784    86.922528    128932.33   -40511.147    2761.4531     -43272.6    78.957818   0.96867472 
   46600    227.70651    300.40497    129040.34   -40492.218    2833.1019    -43325.32    79.184899   0.96786392 
   46700     217.8727    199.76602    128959.58   -40587.773    2710.7506   -43298.523    79.185281   0.96847007 
   46800    216.29163    163.30379    128891.58   -40623.952    2691.0791   -43315.031    79.272293   0.96898101 
   46900    221.70425    235.56648    128899.96   -40542.854    2758.4224   -43301.277    79.383292   0.96891803 
   47000     217.7954    384.67892    128788.19   -40512.661    2709.7888    -43222.45     79.53122   0.96975892 
   47100    220.04733    266.40328    128740.41   -40465.037    2737.8071   -43202.844    79.823426   0.97011877 
   47200    221.23739    116.40049    128491.12   -40507.912    2752.6138   -43260.526    80.079462   0.97200093 
   47300    219.99168    196.41374    128345.95   -40522.173    2737.1147   -43259.288    80.242389   0.97310035 
   47400     223.5909    162.00042    128330.14   -40479.866    2781.8959   -43261.762    80.169063   0.97322028 
   47500    224.72247    385.21523    128482.11   -40434.274    2795.9748   -43230.249    80.481536    0.9720691 
   47600    225.00691    322.78761    128651.31   -40377.741    2799.5137   -43177.255     80.63108   0.97079069 
   47700    221.33178    171.56683    128616.97   -40413.673    2753.7881   -43167.461    80.781423   0.97104984 
   47800    219.30897    109.93176    128861.49   -40414.185    2728.6205   -43142.805    81.043242   0.96920727 
   47900    215.68603    175.40449     128753.7   -40496.756    2683.5443     -43180.3     81.45358   0.97001869 
   48000    218.26154    120.33134    128759.77   -40513.193    2715.5885   -43228.781    81.407079   0.96997294 
   48100    220.65798    198.68443    128876.68   -40486.048    2745.4048   -43231.453    81.556613   0.96909302 
   48200    214.59296    243.13535    128853.92   -40524.178    2669.9444   -43194.123     81.78621   0.96926418 
   48300    219.99352    366.92743    128831.69   -40515.267    2737.1376   -43252.405    81.884733   0.96943148 
   48400    225.17224    179.89748    128932.58   -40437.231    2801.5707   -43238.802    82.066685   0.96867286 
   48500     222.6395    190.10668    128931.82   -40492.337    2770.0587   -43262.396    82.394513   0.96867855 
   48600    218.34932     247.6904    129005.75   -40490.834    2716.6807   -43207.515     82.34127   0.96812342 
   48700    225.17498    317.87222    129137.78   -40463.314    2801.6048   -43264.919    82.404159   0.96713365 
   48800    221.01246    385.61706    129054.43    -40503.98    2749.8151   -43253.795    82.737381   0.96775825 
   48900    221.55663    401.10259    129260.63   -40478.239    2756.5857   -43234.825    82.880949   0.96621446 
   49000    220.41838     251.9992    129188.05   -40531.818    2742.4237   -43274.242    83.135158    0.9667573 
   49100    219.85946    166.53476    129041.77   -40545.066    2735.4697   -43280.536    83.384274   0.96785323 
   49200     222.7994    1.1605954    129005.72   -40565.257    2772.0481   -43337.306    83.312802   0.96812366 
   49300     223.4759    349.82298    128754.83   -40502.091    2780.4651   -43282.556     83.44527   0.97001017 
   49400    220.59817    185.25574    128805.87   -40474.527    2744.6607   -43219.188    83.597184   0.96962574 
   49500     222.7647    161.84816    128913.49   -40498.126    2771.6164   -43269.742    83.595043   0.96881634 
   49600    221.30725    88.061488    128823.48   -40507.244    2753.4829   -43260.727    84.006928   0.96949325 
   49700    220.48313    191.94462     128647.6   -40511.302    2743.2294   -43254.531    83.962429    0.9708187 
   49800    214.80664    213.32013    128642.91   -40566.822     2672.603   -43239.425    83.906275   0.97085407 
   49900    224.26229    35.861511    128600.55   -40452.988    2790.2493   -43243.237    84.247144   0.97117383 
   50000    223.47656    304.54258    128734.62   -40491.059    2780.4733   -43271.532    84.441616    0.9701624 
   50100    222.52717     157.1449     128736.5    -40504.64     2768.661   -43273.301     84.77201   0.97014828 
   50200    218.60734    247.16047    128673.49   -40544.669    2719.8909    -43264.56    85.073446   0.97062334 
   50300    219.48047    206.73595    128485.21   -40521.657    2730.7543   -43252.411    84.965139   0.97204567 
   50400    219.80344    152.42992    128456.31   -40535.715    2734.7726   -43270.488    84.789549   0.97226436 
   50500    217.28221    330.14681    128376.84   -40568.731    2703.4038   -43272.135    84.908301   0.97286624 
   50600    216.36418    117.46748    128411.78   -40573.569    2691.9818   -43265.551     84.92528   0.97260151 
   50700    218.84419    214.67954    128726.16   -40585.144    2722.8378   -43307.982    85.679171   0.97022615 
   50800    215.47249     80.59355    128775.32   -40588.261    2680.8874   -43269.149    85.685696   0.96985583 
   50900    219.51087    225.60499    128784.42   -40512.431    2731.1326   -43243.563    85.930503   0.96978725 
   51000    222.96724    192.62239    128704.51   -40570.586    2774.1364   -43344.723    86.234144    0.9703894 
   51100    224.86035    187.83171    128805.18   -40600.717    2797.6902   -43398.408    86.398583   0.96963094 
   51200    215.53352     236.4031     128893.5   -40587.798    2681.6467   -43269.445    86.778095   0.96896657 
   51300    219.25601    234.05077    128885.41   -40640.546    2727.9616   -43368.507    86.825334   0.96902737 
   51400    217.94989    216.77798    128899.39   -40637.897     2711.711   -43349.608    87.139342   0.96892226 
   51500     218.9013    126.16934    128843.36   -40635.649    2723.5483   -43359.197     87.41421   0.96934363 
   51600    221.94551    310.80831    128983.08   -40586.128     2761.424   -43347.552     87.43755   0.96829357 
   51700    219.92177    186.89185    128958.44   -40593.428    2736.2449   -43329.673    87.279342   0.96847858 
   51800    218.25431    235.15112    128756.77   -40628.433    2715.4986   -43343.931    87.248636   0.96999552 
   51900    216.19726    181.86704    128867.81   -40663.343    2689.9049   -43353.248    87.528083   0.96915974 
   52000    218.05847    150.25228    128938.24   -40685.659     2713.062   -43398.721    87.799863   0.96863035 
   52100    220.20695    319.81421    129098.25   -40643.432    2739.7931   -43383.226    87.950086   0.96742976 
   52200    216.10119    116.39225    128928.52   -40678.707    2688.7096   -43367.416    87.756905   0.96870337 
   52300    217.26766    157.13971    128972.12   -40665.105    2703.2227   -43368.327    88.080484   0.96837588 
   52400    216.70882    155.14372    128916.56    -40597.26    2696.2697    -43293.53    88.348254   0.96879324 
   52500    221.25557    212.24218    128994.18   -40579.538    2752.8399   -43332.378    88.313469   0.96821027 
   52600    216.27894    156.31421    128986.51   -40608.612    2690.9212   -43299.533    88.209356   0.96826785 
   52700    218.24472    256.81779    128886.06   -40621.534    2715.3793   -43336.913    88.805389   0.96902251 
   52800    222.96975    137.48613    128599.75   -40570.193    2774.1676   -43344.361    88.697214   0.97117988 
   52900    222.41595     57.79518    128701.87   -40569.002    2767.2773   -43336.279    88.652602    0.9704093 
   53000    218.01741    69.101738    128489.85   -40547.523     2712.551   -43260.074    88.566326   0.97201053 
   53100    216.85252    217.17264     128517.8   -40581.543    2698.0576     -43279.6    88.787834   0.97179918 
   53200    219.89478    302.85107     128410.6   -40554.685    2735.9091   -43290.594    88.974722   0.97261044 
   53300    219.45346    338.20747    128653.77   -40550.756    2730.4182   -43281.174    88.974623   0.97077208 
   53400    215.71618    231.11295    128645.78   -40617.265    2683.9193   -43301.184    89.202868   0.97083239 
   53500    216.95908    104.69414    128581.86    -40623.41    2699.3835   -43322.794    89.283822   0.97131499 
   53600    218.27023    349.02482    128667.24    -40616.95    2715.6966   -43332.646    89.434852    0.9706705 
   53700    215.55333    393.96913    128733.55    -40645.12    2681.8933   -43327.014    89.804281   0.97017048 
   53800    224.55921    93.644824    128717.51   -40528.121    2793.9434   -43322.065    89.898658    0.9702914 
   53900    219.55671    188.92231    128691.59   -40579.187    2731.7028    -43310.89    89.900422   0.97048679 
   54000    218.08024    185.85328    128571.43   -40557.834    2713.3328   -43271.166    90.131211   0.97139383 
   54100    215.89645    275.82617    128552.31    -40570.81    2686.1623   -43256.972    90.025081   0.97153832 
   54200    219.15561    404.96615    128712.33   -40538.123    2726.7124   -43264.835    90.300319   0.97033041 
   54300    219.69226    170.39399    128724.41   -40512.825    2733.3894   -43246.215    90.439319   0.97023935 
   54400    221.20588    55.417049    128655.76   -40544.599    2752.2217    -43296.82    90.558495   0.97075705 
   54500    217.54549    384.17006    128663.79   -40542.035    2706.6795   -43248.715    90.705123   0.97069653 
   54600    222.85772    332.62819    128863.05   -40453.171    2772.7737   -43225.944    90.769857   0.96919553 
   54700    225.99476    229.19519    129002.01   -40480.085    2811.8044    -43291.89    90.903194    0.9681515 
   54800    217.93077   -6.4181645    129083.12   -40553.383    2711.4732   -43264.857    91.109833   0.96754318 
   54900    222.59813    314.40728    128909.66   -40594.172    2769.5439   -43363.715    91.002089   0.96884506 
   55000    216.98414    207.32985    128690.72   -40656.102    2699.6952   -43355.797    90.986824   0.97049338 
   55100    219.89441    229.17362    128729.63   -40626.056    2735.9045   -43361.961    91.058152   0.97020005 
   55200    215.21097    248.88147    128793.91    -40630.39    2677.6337   -43308.024    91.309972   0.96971581 
   55300    218.37008    321.90328    128806.29    -40569.14     2716.939   -43286.079    91.648177   0.96962261 
   55400    219.93779    88.859569     128923.8   -40543.319    2736.4443   -43279.763    91.806046   0.96873882 
   55500    221.14045  -0.89265038    128635.34   -40494.885    2751.4076   -43246.292    92.067779   0.97091116 
   55600    216.58633    269.61382    128385.08   -40518.739    2694.7457   -43213.484    92.154364    0.9728038 
   55700    219.57391    149.70071     128150.7   -40499.425    2731.9169   -43231.342    92.249231   0.97458298 
   55800    219.47622    224.77176    128129.11    -40499.19    2730.7014   -43229.891    92.437825   0.97474722 
   55900    219.36213    158.47713    128119.76   -40471.959    2729.2819    -43201.24    92.407732   0.97481833 
   56000    219.34892    263.84925    127981.64   -40451.926    2729.1176   -43181.043    92.360383   0.97587035 
   56100    221.17879    133.50962    128166.19    -40398.62    2751.8846   -43150.505    92.627442   0.97446523 
   56200    222.84729    225.74612     128220.4   -40396.083     2772.644   -43168.727     93.09778   0.97405322 
   56300    221.66491     58.95813    128104.44   -40426.514    2757.9329   -43184.447    93.379955    0.9749349 
   56400    218.32772    61.903705    127952.71   -40407.253    2716.4119   -43123.665    93.285164   0.97609102 
   56500    218.10326    172.09355     128067.8   -40479.344    2713.6191   -43192.963    93.149787   0.97521385 
   56600    218.23024    85.893257    127826.65   -40484.393    2715.1991   -43199.592    92.948965   0.97705362 
   56700    213.12032    33.903328    127746.14   -40503.964    2651.6219   -43155.586    93.235243   0.97766938 
   56800    220.78041    199.99988    127683.83   -40422.719    2746.9281   -43169.647    93.304693   0.97814647 
   56900    218.90114    81.778829     127664.1   -40391.505    2723.5463   -43115.052    93.758718   0.97829769 
   57000    223.83317     360.1875    127587.45     -40330.8    2784.9101    -43115.71    93.815961   0.97888543 
   57100    219.36077    257.99317    127578.64   -40387.688     2729.265   -43116.953    93.813089     0.978953 
   57200    217.50166    274.64836    127348.21   -40422.644    2706.1342   -43128.778    93.737381   0.98072439 
   57300    215.39058    163.48029    127427.48   -40450.631    2679.8683   -43130.499    93.809953   0.98011427 
   57400    216.24033    213.80236    127550.11    -40472.11    2690.4408   -43162.551     94.19739   0.97917195 
   57500    214.78047     242.2053    127534.04   -40510.653    2672.2773    -43182.93    94.733952   0.97929535 
   57600    215.95687    308.14675    127511.88   -40470.003     2686.914   -43156.918    94.688823   0.97946555 
   57700    217.00607    368.02233    127547.08   -40510.483    2699.9681   -43210.451    94.908143   0.97919522 
   57800    213.97962     141.0079    127653.58   -40529.217    2662.3133    -43191.53    95.031647   0.97837827 
   57900    215.86949    248.36512    127520.23    -40495.78    2685.8268   -43181.607    95.185136   0.97940141 
   58000     217.9791    301.51139     127682.5   -40501.657    2712.0744   -43213.732    95.685042   0.97815667 
   58100    219.18064     305.5837    127943.28   -40451.108    2727.0239   -43178.132    96.023617     0.976163 
   58200    217.63598    231.53125    127972.17   -40408.974    2707.8053   -43116.779    96.409348   0.97594257 
   58300    221.57945    220.72306    128102.24   -40345.348    2756.8697   -43102.218    96.763986   0.97495168 
   58400    223.30301    152.40676    127967.51    -40355.92     2778.314   -43134.234    96.646465   0.97597817 
   58500    220.59644    239.82541    128099.68    -40362.22    2744.6391   -43106.859    97.111839   0.97497114 
   58600    220.89419    65.994007    128062.16   -40324.024    2748.3436   -43072.367    97.338212   0.97525682 
   58700    222.72097   -61.321644    127727.14   -40335.837    2771.0723    -43106.91    97.506394   0.97781483 
   58800    221.09022    186.02194    127785.98   -40390.784    2750.7827   -43141.567    97.846667   0.97736455 
   58900    216.30293    208.65084    127801.65   -40431.935    2691.2197   -43123.154    98.086996   0.97724473 
   59000    217.18244    203.10103    127659.19   -40415.539    2702.1624   -43117.701    97.906954    0.9783353 
   59100     219.3776    93.528553    127488.04   -40421.654    2729.4744   -43151.128    98.100734   0.97964867 
   59200    217.82262    301.14538    127640.87   -40439.992    2710.1275   -43150.119    98.524063   0.97847573 
   59300    218.44214    259.55729    127750.57   -40450.265    2717.8355   -43168.101    98.855972   0.97763546 
   59400    219.03503   -29.841374    127917.41   -40512.948    2725.2122   -43238.161    99.053466   0.97636035 
   59500    217.94001    183.86468    127751.31   -40479.069    2711.5881   -43190.657    99.070306    0.9776298 
   59600    219.84213    173.06628    127982.77   -40469.064     2735.254   -43204.318    98.928756   0.97586178 
   59700    219.83105    205.25477    128074.71   -40488.806    2735.1161   -43223.922    99.578912   0.97516119 
   59800    218.43429    378.48791    128240.49   -40481.831    2717.7379   -43199.569    99.542908   0.97390058 
   59900    221.01625    345.55262    128284.31   -40461.751    2749.8624   -43211.613    99.846263   0.97356791 
   60000    216.11817    210.43454    128300.81   -40509.313     2688.921   -43198.234    99.863528   0.97344272 
   60100    220.78671    122.45273    128116.73    -40474.86    2747.0064   -43221.866    99.656152   0.97484139 
   60200     222.0982    217.53785    128045.76   -40461.711    2763.3238   -43225.035    99.796435   0.97538172 
   60300    222.91553    240.94834    128053.66   -40433.644     2773.493   -43207.137    99.886528   0.97532151 
   60400    220.91715    156.29131     128065.3   -40382.835    2748.6294   -43131.464    100.06467   0.97523288 
   60500    218.55297    99.543961    128263.21    -40402.97    2719.2144   -43122.184    100.38288   0.97372812 
   60600    220.16534    162.52561    128227.37    -40451.88    2739.2754   -43191.156    100.70747   0.97400023 
   60700    216.19182     166.8949    128214.11   -40470.268    2689.8372   -43160.105    100.93005   0.97410096 
   60800    221.81827    287.10844    128349.43   -40423.259    2759.8409     -43183.1    101.19316   0.97307397 
   60900    222.47406    211.89054    128092.63   -40421.325    2768.0003   -43189.325     101.1485    0.9750248 
   61000    221.95204    321.13605    127896.12     -40457.5    2761.5053   -43219.005    101.12784    0.9765229 
   61100    217.77982    167.62296    128082.93   -40476.484    2709.5949   -43186.079    101.54304   0.97509863 
   61200    216.25154    325.34085    128202.01   -40484.294    2690.5803   -43174.874     101.6842   0.97419296 
   61300    214.13651    266.59314     128243.7   -40463.727    2664.2653   -43127.992    101.93672   0.97387621 
   61400    221.73278    301.14406    128323.11   -40493.336    2758.7773   -43252.113    102.25496   0.97327358 
   61500    216.68706    94.313635    128138.73   -40496.237     2695.999   -43192.236    102.50457   0.97467404 
   61600    218.02122    107.49969    127983.85   -40452.788    2712.5984   -43165.386    102.50268    0.9758535 
   61700    217.14034    180.36305    127976.33    -40527.18    2701.6387   -43228.819    102.52014    0.9759109 
   61800    213.01389    168.01124    128099.34   -40602.508    2650.2978   -43252.805    102.68753   0.97497372 
   61900    215.56965    252.46827     128121.4   -40541.262    2682.0962   -43223.358    103.03252   0.97480582 
   62000    224.12872    247.04099    128090.27    -40493.15    2788.5874   -43281.737     103.4309   0.97504275 
   62100    219.24255    308.10575    128063.79   -40516.296    2727.7941    -43244.09    103.42793   0.97524435 
   62200    225.09385    212.01293     128181.8   -40467.392    2800.5955   -43267.988    103.44831   0.97434652 
   62300     217.5161    142.89089    128264.61   -40500.475    2706.3138   -43206.789    103.52155   0.97371745 
   62400    215.62678     234.5099    128151.73   -40438.705    2682.8071   -43121.512    103.42667   0.97457512 
   62500    220.07712    214.51294    128042.42   -40441.997    2738.1777   -43180.175    103.59303   0.97540713 
   62600    217.54516    68.944558     127843.7   -40456.019    2706.6754   -43162.695    103.57024   0.97692329 
   62700    218.70598    159.98286    127878.48    -40484.78    2721.1182   -43205.898    103.92631   0.97665758 
   62800    222.92915    73.166642    128049.23   -40450.356    2773.6625   -43224.018    104.40237   0.97535526 
   62900    218.62643    330.97922    128239.68   -40390.631    2720.1284   -43110.759    104.82358   0.97390678 
   63000    222.60334    115.93024    128142.08   -40345.608    2769.6087   -43115.217    104.84804   0.97464851 
   63100    221.93624    275.94095    128000.88   -40321.159    2761.3087   -43082.468    105.12381   0.97572366 
   63200    222.67678    126.17298    128069.82   -40359.874    2770.5225   -43130.396    105.38065   0.97519847 
   63300    219.36518    186.10365     127892.5    -40401.83    2729.3198    -43131.15    105.34442   0.97655053 
   63400    223.60761    284.52152    128061.69   -40309.263    2782.1038   -43091.367    105.77675   0.97526037 
   63500    220.76119     317.7159    127807.71   -40384.664    2746.6888   -43131.353    105.67729   0.97719843 
   63600    216.50521    284.14376    127716.62   -40395.263    2693.7364       -43089    105.78831   0.97789537 
   63700    219.08827    269.86106    127977.77   -40409.448    2725.8746   -43135.322     106.0062   0.97589988 
   63800    219.62175     160.2678    128149.13   -40520.331    2732.5121   -43252.843    106.47993   0.97459489 
   63900    215.89866    122.22514    128060.62   -40524.323    2686.1898   -43210.513    106.46633   0.97526855 
   64000    217.00163    212.16541    127921.35   -40515.709    2699.9129   -43215.622    106.64949   0.97633034 
   64100    221.32554    172.01436    128051.98    -40414.08    2753.7105   -43167.791    106.73221   0.97533436 
   64200    219.84038    196.88671    128065.58   -40413.098    2735.2323    -43148.33    107.02643   0.97523072 
   64300    223.97991    264.67043     128146.1   -40319.262    2786.7359   -43105.998    107.43998   0.97461799 
   64400     222.7774    418.66451    128134.82   -40338.525    2771.7744   -43110.299     107.5062   0.97470374 
   64500    226.25374    118.26283    128113.77   -40332.281    2815.0267   -43147.308    107.88697   0.97486388 
   64600    222.13551    203.95475    128228.21   -40384.823    2763.7881   -43148.611    108.41316   0.97399386 
   64700    222.16861    306.52089    128326.23   -40411.309    2764.1999   -43175.509    108.62305   0.97324989 
   64800    222.71749    119.72197    128360.47   -40428.436     2771.029   -43199.465     108.7913   0.97299029 
   64900    216.94442    219.40279    128262.68   -40413.677     2699.201   -43112.878     108.9106   0.97373214 
   65000    217.42347    229.87253    128212.28   -40371.939    2705.1613     -43077.1    109.13282   0.97411488 
   65100    222.45583    239.28634    128399.43   -40394.799    2767.7734   -43162.572    109.44892   0.97269505 
   65200    217.52328    119.32721    128304.19   -40389.022    2706.4031   -43095.426    109.39975   0.97341711 
   65300    221.28813    98.309834    128407.61   -40385.947     2753.245   -43139.192    109.85726    0.9726331 
   65400    222.19542    92.604699    128267.25   -40331.801    2764.5335   -43096.334    110.02719    0.9736974 
   65500    223.54644    215.17366    128270.17   -40391.638    2781.3427   -43172.981    110.15081   0.97367525 
   65600     219.4082    351.00101    128178.85   -40426.723    2729.8551   -43156.578    110.09243   0.97436896 
   65700    220.50899    402.31027    128260.82    -40473.22     2743.551   -43216.771    110.34536   0.97374626 
   65800    220.77312    348.65739    128398.61   -40485.406    2746.8373   -43232.243    110.80525   0.97270124 
   65900    215.94461    392.45455    128545.54   -40454.947    2686.7614   -43141.708    111.24097   0.97158948 
   66000    221.56065    62.023637    128514.21    -40357.78    2756.6357   -43114.415    111.29402   0.97182629 
   66100    221.57709    177.17636    128469.09   -40312.064    2756.8402   -43068.904    111.67418   0.97216764 
   66200    222.19417    205.80998     128476.5   -40285.838    2764.5179   -43050.356    111.77095   0.97211155 
   66300    223.75656    229.22632    128439.08   -40328.701     2783.957   -43112.658    111.77443   0.97239475 
   66400    221.14148    225.75794    128247.22   -40370.651    2751.4204   -43122.072    111.95128   0.97384951 
   66500    218.88879    223.57827    128199.27   -40389.292    2723.3927   -43112.685    112.25791   0.97421374 
   66600    220.14804    197.28297    128252.01   -40399.923    2739.0601   -43138.983    112.61964   0.97381313 
   66700    219.65927    270.19241    128213.05   -40423.143    2732.9789   -43156.122    112.87215   0.97410903 
   66800    222.97571    10.321481    128073.07   -40357.171    2774.2417   -43131.412    112.77714   0.97517368 
[...]
   84600    220.19483    179.19965    128378.51   -40522.672    2739.6423   -43262.314    147.20486   0.97285353 
   84700    215.78584    247.67386    128386.89   -40546.109    2684.7861   -43230.895     147.1429   0.97279006 
   84800     220.6738     411.4178    128335.83   -40514.386    2745.6016   -43259.988    147.30204   0.97317713 
   84900    220.47048    127.91468    128464.06   -40504.093    2743.0719   -43247.165    147.56725   0.97220566 
   85000    219.16049    302.48152     128248.7   -40453.694    2726.7732   -43180.467    147.01614   0.97383823 
   85100     223.1705    248.76841    128340.29   -40461.336    2776.6653   -43238.001    147.08173   0.97314326 
   85200    218.62364    218.94532    128689.08   -40483.321    2720.0937   -43203.415    147.72037   0.97050573 
   85300    215.29648    226.04421    128486.19   -40539.814    2678.6975   -43218.511    147.68694   0.97203827 
   85400    218.40768    185.57227    128493.15   -40522.065    2717.4068   -43239.472    148.11582   0.97198559 
   85500    219.94267    315.18829    128640.58   -40483.577    2736.5049   -43220.082    147.96384   0.97087164 
   85600    221.38422     72.60838    128541.89   -40458.895    2754.4405   -43213.336    148.44397   0.97161707 
   85700    219.50298    214.40091    128637.74    -40526.97    2731.0344   -43258.005    148.74241    0.9708931 
   85800    218.39654    250.20472    128619.06   -40543.802    2717.2682    -43261.07    149.08446    0.9710341 
   85900    221.38776     180.0119    128479.86   -40448.521    2754.4847   -43203.005    149.14602   0.97208614 
   86000    218.52572    133.10137    128534.44    -40502.41    2718.8754   -43221.286    149.19941   0.97167333 
   86100    221.53264    248.67346    128576.81   -40496.164    2756.2873   -43252.452     149.3622   0.97135316 
   86200    219.19984    210.63332    128639.58   -40461.652    2727.2627   -43188.915    149.35611   0.97087918 
   86300    221.03844    409.21422    128716.45   -40509.779    2750.1384   -43259.917    149.61823   0.97029937 
   86400    214.08915    194.89609    128804.79   -40541.757    2663.6761   -43205.433    149.75506   0.96963392 
   86500    220.23619    246.48492    128812.06   -40510.985    2740.1569   -43251.142    150.29022   0.96957921 
   86600    220.29926    11.062532     128820.6   -40445.562    2740.9416   -43186.504    150.83081   0.96951492 
   86700    222.32245    270.70967    128999.72   -40426.796    2766.1139    -43192.91    151.21501   0.96816869 
   86800    219.75096    161.68335    128873.81   -40492.681    2734.1197   -43226.801    151.28186   0.96911462 
   86900    222.70053     203.9983    128774.57   -40469.739     2770.818   -43240.557    151.54076   0.96986144 
   87000    221.95776    227.60422    128670.44   -40482.825    2761.5766   -43244.402    151.62873   0.97064637 
   87100    217.38544    50.127776    128731.81   -40528.312    2704.6882       -43233    151.74916   0.97018357 
   87200     221.7253    224.12132     128606.3   -40504.329    2758.6842   -43263.013    151.80758   0.97113045 
   87300    220.87594      372.267    128465.78   -40501.624    2748.1166   -43249.741     151.6783   0.97219264 
   87400    221.22808     176.7875    128625.65   -40515.718    2752.4978   -43268.216     152.5472   0.97098433 
   87500    217.96821     149.4969       128430   -40540.803    2711.9389   -43252.742    152.71552    0.9724635 
   87600    220.63905    165.61037    128529.04   -40545.159    2745.1692   -43290.328    152.77082   0.97171417 
   87700       216.17    318.00407    128518.63    -40553.55    2689.5658   -43243.116    152.90486   0.97179289 
   87800    220.36217    294.43258    128454.31   -40526.714    2741.7243   -43268.438    153.21852    0.9722795 
   87900      219.661    258.61786    128432.33   -40534.519    2733.0004   -43267.519    153.33235   0.97244587 
   88000    216.97582    98.071264    128572.82   -40553.896    2699.5917   -43253.487    153.68499   0.97138329 
   88100    217.15689    350.70998    128556.75   -40486.512    2701.8446   -43188.357    153.70649   0.97150475 
   88200    223.06457    132.99267    128486.59   -40448.092    2775.3473   -43223.439    153.93148   0.97203522 
   88300    218.37635    151.03993     128447.1   -40474.023     2717.017    -43191.04     154.1623    0.9723341 
   88400    213.87011    112.19262    128355.89    -40578.15    2660.9508   -43239.101    154.53706   0.97302504 
   88500    221.27019    285.55152    128239.16   -40474.737    2753.0218   -43227.759    154.56866   0.97391072 
   88600    222.83453    58.697541    128308.66   -40426.945    2772.4852    -43199.43    155.07299   0.97338318 
   88700    223.99534     76.29883    128397.87   -40417.673    2786.9279   -43204.601    155.31979   0.97270689 
   88800    225.42211    137.63815    128481.91   -40349.976    2804.6797   -43154.655    155.56329   0.97207062 
   88900    218.02627    192.97605    128569.32   -40395.107    2712.6612   -43107.769    155.23566   0.97140973 
   89000    223.04356    228.14384    128597.67   -40376.669     2775.086   -43151.755    155.32128   0.97119559 
   89100    221.52926    132.67064    128581.28   -40488.788    2756.2451   -43245.034    155.35737   0.97131942 
   89200    218.43965    114.23023    128567.63   -40522.714    2717.8045   -43240.519    155.26824   0.97142253 
   89300    218.25092    24.558612    128582.14   -40545.052    2715.4563   -43260.508    155.18276   0.97131288 
   89400    215.68457    -46.51856       128377   -40578.353    2683.5261   -43261.879    155.41969   0.97286497 
   89500    215.87892    124.03516     128236.2   -40601.079    2685.9442   -43287.023    155.37121   0.97393321 
   89600    213.64947    307.11899    128190.48   -40644.681    2658.2055   -43302.886    155.84294   0.97428053 
   89700    218.19286    183.20525    128137.57   -40611.944     2714.734   -43326.678    155.52561   0.97468283 
   89800     218.3585    327.76839    128206.55   -40579.449    2716.7949   -43296.243    155.79762    0.9741584 
   89900    215.41447    287.59469    128421.53   -40633.487    2680.1656   -43313.652    156.49099    0.9725277 
   90000     219.0917    273.99516    128567.92   -40555.196    2725.9173   -43281.113    156.57362   0.97142037 
   90100    219.10395    285.39699    128357.33   -40571.497    2726.0697   -43297.567    156.15698   0.97301407 
   90200     216.3694    211.10081    128345.09   -40591.433    2692.0467    -43283.48    156.17487   0.97310691 
   90300    218.62656    256.44477    128492.77   -40594.471    2720.1301   -43314.601    156.52812   0.97198847 
   90400    217.99271    281.58099    128552.18   -40579.335    2712.2437   -43291.579    156.72118   0.97153925 
   90500    214.46024     74.48809    128556.44   -40544.491    2668.2931   -43212.784    156.72833   0.97150706 
   90600    221.67557    37.543304     128547.6   -40445.668    2758.0656   -43203.734     156.8339    0.9715739 
   90700    222.55265    269.89937    128342.07   -40442.679     2768.978   -43211.657    156.89296   0.97312979 
   90800    218.46649    235.92244    128309.38   -40472.508    2718.1385   -43190.647    157.14797   0.97337772 
   90900    217.30672    187.82325    128217.17   -40560.482    2703.7088   -43264.191    157.21102   0.97407777 
   91000    216.12586    408.17469    128412.34   -40568.836    2689.0166   -43257.852    157.03646    0.9725973 
   91100    217.60977    218.78212    128445.79   -40568.992    2707.4792   -43276.472    157.44397   0.97234402 
   91200    218.92304    66.172638    128452.25   -40531.647    2723.8188   -43255.466     157.7888   0.97229506 
   91300    221.88513    272.84939    128453.07   -40424.393    2760.6728   -43185.066    157.91457   0.97228891 
   91400    223.17399    91.111161    128588.45   -40404.515    2776.7088   -43181.223    157.90317   0.97126526 
   91500    221.99523    199.05451    128505.44   -40419.236    2762.0427   -43181.279    157.98126    0.9718926 
   91600    217.74576    267.16803    128419.24   -40445.645    2709.1713   -43154.817    157.96724   0.97254501 
   91700    217.28892    119.00845    128434.84   -40513.535    2703.4872   -43217.023    158.13962    0.9724269 
   91800    216.77282     132.0904    128295.32   -40475.548     2697.066   -43172.614    158.18551   0.97348437 
   91900    218.68215    146.25318    128275.33   -40476.452    2720.8216   -43197.274    158.20939   0.97363607 
   92000     218.5597    290.83776    128270.84   -40485.109    2719.2982   -43204.407    158.66866   0.97367015 
   92100    216.47995    228.94259    128359.68   -40524.387    2693.4221   -43217.809    158.88483   0.97299628 
   92200    221.53274    251.73437    128260.96   -40470.671    2756.2885   -43226.959    158.67978    0.9737452 
   92300     221.4665    283.56306    128340.12     -40394.2    2755.4643   -43149.664    159.20211   0.97314454 
   92400     219.8413    244.86107    128450.04   -40386.971    2735.2437   -43122.215    159.92749   0.97231185 
   92500    216.65086   -23.139449    128424.95   -40429.956    2695.5486   -43125.504    160.18565   0.97250176 
   92600     225.3092    214.97868    128241.05   -40405.983    2803.2748   -43209.258    159.85482   0.97389632 
   92700    222.32577    88.755591    128091.17   -40395.615    2766.1553    -43161.77    159.70186   0.97503594 
   92800    216.71577    272.52128    128264.31   -40442.965    2696.3562   -43139.322    159.78203   0.97371977 
   92900    218.56405    237.55188    128100.64   -40400.188    2719.3523    -43119.54    159.61914   0.97496386 
   93000    219.65593    180.11241    128210.45   -40423.958    2732.9374   -43156.896    160.12462   0.97412883 
   93100    219.10317     273.8317    128231.12    -40359.34      2726.06     -43085.4    160.59767   0.97397176 
   93200    224.48919    132.85851    128464.39   -40370.679    2793.0724   -43163.751    161.13719   0.97220319 
   93300    219.71294    151.89086    128481.01   -40406.748    2733.6467   -43140.395    161.14136   0.97207744 
   93400    222.12789    237.24058     128555.9   -40446.869    2763.6933   -43210.563    161.90248   0.97151114 
   93500    220.65836    115.85986    128268.49   -40491.294    2745.4094   -43236.704    161.85379   0.97368799 
   93600    218.91694    160.24999     128357.9   -40562.035     2723.743   -43285.778     161.8591   0.97300975 
   93700    216.92711    245.00765    128371.88   -40532.453    2698.9856   -43231.439     161.7304   0.97290382 
   93800    222.98053    192.67177    128392.63   -40512.683    2774.3017   -43286.984    161.25952    0.9727466 
   93900    217.21417     215.0835    128535.04   -40530.485    2702.5572   -43233.042    161.54122   0.97166885 
   94000     219.4569    201.76466    128696.81    -40558.14     2730.461   -43288.601    161.81127   0.97044747 
   94100     223.9398    196.01549    128654.78   -40568.344    2786.2369   -43354.581    161.92415   0.97076446 
   94200    216.86482    499.11659     128814.9   -40564.599    2698.2107    -43262.81    162.23266   0.96955783 
   94300    222.38905    184.95733    128812.73   -40519.782    2766.9426   -43286.724    162.58428   0.96957415 
   94400    221.20865    64.371397    128649.64   -40504.866    2752.2561   -43257.122    162.83089   0.97080327 
   94500     221.3178    379.75718    128832.81   -40438.901    2753.6142   -43192.515    163.09561   0.96942298 
   94600    224.46273    201.94263    128721.56   -40480.226    2792.7431   -43272.969    162.79913   0.97026088 
   94700    219.72634    235.66183     128808.2   -40518.855    2733.8134   -43252.669    163.08684   0.96960826 
   94800    221.50101    230.83345    128798.31   -40533.207    2755.8936     -43289.1    163.12324   0.96968271 
   94900    218.97694   0.58698431    128702.91   -40501.509    2724.4895   -43225.999    163.11083   0.97040142 
   95000    223.48131    468.37534       128774   -40486.606    2780.5324   -43267.139    163.30561   0.96986575 
   95100    221.22344   -59.926741    128788.21   -40473.716    2752.4402   -43226.157     163.9324    0.9697587 
   95200     222.2443    337.98916    128827.12   -40496.941    2765.1416   -43262.082    164.23333   0.96946584 
   95300    227.93029    150.49146    129103.61   -40398.107    2835.8862   -43233.993    164.08333   0.96738958 
   95400    220.83622    285.43562     129225.6   -40463.379    2747.6224   -43211.001    163.84369    0.9664764 
   95500    215.37501    136.69518    129076.97   -40461.306    2679.6746    -43140.98    164.04526   0.96758929 
   95600    220.86259    253.68033    128898.44   -40433.914    2747.9505   -43181.864    164.41309   0.96892941 
   95700    217.54869    254.89489    128928.41   -40481.619    2706.7193   -43188.338    164.46218   0.96870419 
   95800    216.34614    247.20719    128753.06   -40533.788    2691.7573   -43225.545    164.52934   0.97002351 
   95900    224.66585    34.059972    128975.31   -40486.975    2795.2703   -43282.245    164.98316   0.96835194 
   96000    219.11149    339.98401     128920.9   -40564.781    2726.1635   -43290.945    164.85723   0.96876062 
   96100    214.10541    192.38496     128789.2   -40508.207    2663.8784   -43172.086     164.6886   0.96975126 
   96200    218.14305    168.02036    128687.59   -40527.913    2714.1142   -43242.027    164.80076   0.97051696 
   96300    217.38435    83.263116    128510.09   -40479.238    2704.6746   -43183.913    165.22156   0.97185751 
   96400    222.62727    39.388546    128324.07   -40454.194    2769.9065     -43224.1    165.70517    0.9732663 
   96500    216.79712    375.06933    128271.58   -40484.553    2697.3683   -43181.922    165.74853   0.97366455 
   96600    215.20241     198.9616    128488.36   -40475.707    2677.5271   -43153.234    166.40472   0.97202181 
   96700    220.33548    242.19115    128546.35   -40558.088    2741.3923    -43299.48    166.53196   0.97158331 
   96800    214.43269    105.29912    128656.23   -40614.173    2667.9503   -43282.124    167.18529   0.97075353 
   96900    217.48082    204.23901    128644.73   -40551.245    2705.8749    -43257.12    167.32099    0.9708403 
   97000    219.46558   -84.755408    128703.39   -40560.127     2730.569   -43290.696     167.3549   0.97039787 
   97100    217.77918    342.95565     128494.4   -40552.011     2709.587   -43261.598    167.40507   0.97197616 
   97200    216.79803    233.78986    128486.39   -40561.521    2697.3797     -43258.9    167.43745   0.97203673 
   97300    221.47477    360.97047    128576.99     -40550.7    2755.5672   -43306.267    167.37721   0.97135177 
   97400    218.49431    422.12699    128504.33   -40580.756    2718.4847   -43299.241    167.83224   0.97190104 
   97500    219.74707   -9.8032252     128636.5   -40500.951    2734.0713   -43235.022     168.3382   0.97090243 
   97600    218.93971    290.07748    128586.92   -40579.249    2724.0262   -43303.275    168.31588   0.97127679 
   97700    221.16932    189.01031    128575.41   -40508.594    2751.7668   -43260.361     168.1717   0.97136373 
   97800    216.91971    262.47162    128588.47    -40477.92    2698.8936   -43176.813    168.55764   0.97126509 
   97900    220.69186    296.78941    128700.97   -40447.055    2745.8263   -43192.881    168.74852   0.97041609 
   98000    220.43172     102.1534    128747.74   -40476.786    2742.5897   -43219.376     168.5709   0.97006358 
   98100    217.58948    151.54105    128630.07   -40554.904    2707.2268   -43262.131    169.08819   0.97095095 
   98200     221.6932    340.70241    128642.86   -40539.642    2758.2849   -43297.927    169.40724   0.97085441 
   98300    216.64458    216.74717    128727.85   -40559.644    2695.4705   -43255.114    169.20716   0.97021342 
   98400    217.99686     118.0519    128767.85   -40580.677    2712.2954   -43292.973    169.45877   0.96991209 
   98500    216.55198    166.34427     128691.6   -40594.563    2694.3183   -43288.881    169.61347   0.97048672 
   98600    223.74761    118.48479    128646.98   -40627.292    2783.8456   -43411.137    169.95772   0.97082331 
   98700    216.88092    275.97896    128787.41   -40676.047     2698.411   -43374.458    170.26447   0.96976475 
   98800     220.2048    271.67362    128761.57   -40651.999    2739.7663   -43391.765    170.15276    0.9699594 
   98900    217.46317    44.797897    128757.17   -40670.836    2705.6552   -43376.491    170.68706    0.9699925 
   99000    215.80111    223.41656    128581.26   -40705.238    2684.9761   -43390.214    170.41251   0.97131956 
   99100    215.62964    380.60242    128609.46   -40613.987    2682.8427   -43296.829    170.76749   0.97110656 
   99200    218.38932     93.16267    128829.29   -40585.263    2717.1783   -43302.441    170.75607   0.96944953 
   99300    216.61037    70.876495    128616.32   -40535.958    2695.0448   -43231.002     170.7919   0.97105477 
   99400    219.65362    340.07599    128813.04   -40499.589    2732.9086   -43232.498    171.20577   0.96957178 
   99500    222.93696    64.112832    128765.54    -40379.93    2773.7597    -43153.69    171.70045   0.96992947 
   99600    225.74646    134.39023     128535.4   -40392.116    2808.7152   -43200.831    171.47877   0.97166611 
   99700    223.99655    210.77136     128642.8    -40390.08     2786.943   -43177.023    171.63556   0.97085486 
   99800    220.31422     147.4456    128343.22   -40407.486    2741.1278   -43148.614    171.70865   0.97312105 
   99900    218.99106    251.91982    128395.07    -40462.85    2724.6651   -43187.515     171.2985   0.97272811 
  100000    219.05717    140.75984    128253.21   -40477.971    2725.4877   -43203.458     171.4624   0.97380404 
  100100     220.0611    237.03887    128320.85   -40402.156    2737.9785   -43140.135    171.45011   0.97329068 
  100200    222.29854    158.56002    128197.86   -40416.235    2765.8164   -43182.051    171.81712   0.97422446 
  100300    223.55079    295.00468    128106.59    -40410.41    2781.3968   -43191.807    171.77364   0.97491855 
  100400    224.77032    146.32661    128287.29   -40462.057    2796.5701   -43258.627    171.72413    0.9735453 
  100500    223.77698    244.19652    128105.87   -40395.114    2784.2111   -43179.325    172.02755   0.97492402 
  100600    218.37977    107.29315    128069.41     -40471.5    2717.0595    -43188.56    172.45851   0.97520155 
  100630    220.65114    194.96798    128069.34   -40448.551    2745.3196   -43193.871    172.49458   0.97520209 
Loop time of 90.5715 on 6 procs for 100000 steps with 4175 atoms

Performance: 476.971 ns/day, 0.050 hours/ns, 1104.100 timesteps/s
98.8% CPU use with 6 MPI tasks x no OpenMP threads

MPI task timing breakdown:
Section |  min time  |  avg time  |  max time  |%varavg| %total
---------------------------------------------------------------
Pair    | 72.135     | 73.97      | 77.963     |  21.7 | 81.67
Neigh   | 5.123      | 5.138      | 5.1536     |   0.5 |  5.67
Comm    | 4.8783     | 8.8945     | 10.721     |  62.9 |  9.82
Output  | 0.15974    | 0.16055    | 0.16408    |   0.4 |  0.18
Modify  | 1.7647     | 1.7789     | 1.7944     |   1.0 |  1.96
Other   |            | 0.6299     |            |       |  0.70

Nlocal:        695.833 ave         709 max         683 min
Histogram: 2 0 0 1 0 1 0 0 0 2
Nghost:        1494.17 ave        1503 max        1483 min
Histogram: 1 0 0 2 0 0 0 0 1 2
Neighs:        0.00000 ave           0 max           0 min
Histogram: 6 0 0 0 0 0 0 0 0 0
FullNghs:      19690.0 ave       20316 max       19208 min
Histogram: 1 0 2 1 0 0 0 1 0 1

Total # of neighbors = 118140
Ave neighs/atom = 28.297006
Neighbor list builds = 5546
Dangerous builds = 0

undump              1
unfix               2
unfix               3
unfix               4


################################################
#######         Run Simulation         #########
################################################

reset_timestep      0
log                 log.run_${NAME}
log                 log.run_liquid_density_MLmW
