LAMMPS data file via write_data, version 29 Oct 2020, timestep = 800000

4175 atoms
1 atom types

0.044427587482879005 49.95557241251431 xlo xhi
0.044427587482879005 49.95557241251431 ylo yhi
0.044427587482879005 49.95557241251431 zlo zhi

Masses

1 18.015

Atoms # atomic

1273 1 6.492402491211429 20.83917723892455 3.9881906083513687 0 0 0
2594 1 0.4138554127736728 2.7245686945095846 2.041138322940096 0 1 1
2375 1 21.054980104388545 13.738519100032226 0.7693155732137311 0 -1 0
3097 1 6.989055800560649 2.057470680796016 2.5820485880491435 0 1 1
3815 1 29.470615710838615 12.090497218012038 1.6558632667301283 0 2 1
747 1 38.592992367634814 1.926631158693781 11.553702344028524 -1 0 0
3086 1 33.559140145250296 24.665848221161227 15.704444785543567 1 0 -1
1050 1 20.95644727950206 0.39201130731169437 2.8105011230011723 1 0 1
2546 1 23.384706082493135 4.2855046301868995 0.9788393718549009 -1 2 -1
909 1 14.26643720092246 23.796528101482096 13.981624855938648 -1 -1 0
1141 1 18.927030296002897 0.24733043316499193 14.779621731884887 0 -1 0
749 1 45.05986714544299 24.45438010601353 0.8234809865619777 -1 0 0
609 1 39.901842567337816 1.334431668269756 2.5554778016864246 0 0 1
2935 1 42.730742889447306 3.006902801882826 2.05654300021589 1 1 1
3350 1 17.666795191886195 20.252400361805133 0.6036282884245491 0 1 1
113 1 44.6086563078365 13.206977642715415 2.0109457222381955 -1 0 0
507 1 6.320228138050732 0.1536682456011107 11.554618924075305 0 0 0
1788 1 32.86436576522939 23.971267962613943 2.0643971573523885 1 -1 0
52 1 3.363698120508495 7.740964828218581 0.2057300877655967 2 1 0
2951 1 7.993472446932398 6.603966576126003 3.106102435082893 1 1 0
3461 1 31.54282642240506 0.5299767596745235 4.88115411437967 1 1 0
3319 1 29.545969311674025 8.828994904178813 0.5164981678395897 0 1 -1
2789 1 11.025055627885925 5.395685157695432 2.192605870789628 -1 0 0
2402 1 13.088086347883245 3.3540079442564927 2.538395210729418 0 1 0
2756 1 10.922426600454337 1.3653589150740388 2.4423996236572316 1 1 0
3380 1 15.906900659199254 3.6927938596134964 1.8585641761779048 0 0 0
2696 1 18.241731632001883 2.7208230747950726 3.191099973217951 1 0 -2
1674 1 25.126297927797367 14.790107451453455 0.6817424162077531 1 0 2
4012 1 23.387516423411224 3.4422993778790634 6.064893452029263 -1 1 1
3160 1 25.54697932259546 5.2910757258623775 4.867746610524804 0 1 -1
3905 1 30.595596745379645 4.25902318609645 1.5678864169467583 1 0 0
2851 1 36.625406831119 5.624882628028841 4.410974696065537 1 1 1
1184 1 37.537435785534946 0.3615078148030551 15.810549416201303 0 1 1
1615 1 34.48868082212977 5.589028182065795 0.4244035281106033 -1 0 1
3821 1 37.65248754470792 3.8122554799650024 7.1871389193398105 2 0 1
192 1 40.38435163996032 7.517725540537685 2.0550781860689944 0 -1 1
3781 1 45.64213732198311 7.434175359779075 2.701471232653855 0 -1 2
550 1 46.90609247970052 3.9974315078377094 2.584285758064165 -1 0 1
980 1 46.05887952572503 1.1736800885011927 7.229144498350959 1 1 1
1477 1 24.83982865353336 8.8710544018368 0.20012486099756524 0 0 2
53 1 6.055622099535632 10.972676413172394 3.4610543894189183 0 0 1
2911 1 6.5399265161749796 24.15999577647293 6.434755560980768 0 1 -1
1259 1 19.19897777307559 4.702269384828645 14.489787262358716 0 0 0
496 1 15.827937628655748 9.693599603986804 3.516313953806177 0 0 1
545 1 46.25278700592239 0.7385760412636491 14.32755622160297 0 0 0
1820 1 21.469155611854983 6.961411060964488 2.7643528331557383 0 0 1
2459 1 24.244655713176073 6.42414505719779 2.6044056724608544 1 0 0
2310 1 32.11355479216632 7.107738966238442 1.0400908124344583 -1 0 1
2552 1 36.830634106544096 5.611039614596055 1.8097670325715451 -1 0 0
3679 1 12.302936905099111 24.74655794981815 3.0678485324717433 -1 0 0
3511 1 43.80994126929368 9.376984257827381 2.2640845092089563 0 -1 1
916 1 2.507732760098186 0.5691358892063931 5.376969009559342 0 1 0
3982 1 49.43301181697759 7.0679905427717005 0.9518716492204308 -1 0 1
1027 1 0.8261008273837597 10.972425866843217 0.6368385516076508 0 0 1
1119 1 24.598118420700096 1.2165024847408592 4.645668734462849 -1 0 2
1881 1 3.654887904903842 10.26201379497105 1.5947472559101195 0 1 1
3643 1 18.135755488120257 6.239069455175446 1.0595723043675067 -1 1 1
871 1 12.146047576641465 12.430422116650124 2.7190610727151694 1 0 0
1224 1 30.474811940429532 24.43704254179919 5.816765295334844 1 0 0
2955 1 22.524345745909837 11.593781151861858 1.8315345798545777 0 1 1
41 1 22.393501132168858 1.0540585948987347 9.29959237754863 -1 1 1
3836 1 25.26408183395763 9.057027333226978 3.138086852366162 -1 1 2
147 1 26.483943206086902 12.523177832320368 1.299890972624286 1 -1 0
1284 1 27.992009517785032 8.697908026221349 2.84658434577409 1 0 0
2457 1 29.372060433414127 10.591222199140592 4.21608380310676 -2 0 0
2122 1 31.59899442701666 8.95656735577621 4.704759059985488 -1 1 -1
1808 1 33.87139824210832 9.209653689268634 2.5752984657998272 0 -1 1
4138 1 37.13608821612251 1.912738257058832 0.7135324802964897 0 0 0
1066 1 39.01137345461053 9.614105603942686 3.0546665504686983 -2 0 1
509 1 41.34156039645634 10.781170840437317 1.5129649095620146 0 0 0
955 1 45.66462225983902 10.904277934610565 1.1715117031925286 0 0 0
672 1 41.588516658661 0.23982442511504345 11.253234130726737 -1 0 -1
3750 1 2.7021129699451927 13.686356435929259 2.177214010171524 0 0 1
184 1 7.466407618397425 12.434542838231108 0.3858220092311432 0 0 0
299 1 15.098694069422464 12.68635176293424 1.1717895013781532 0 1 0
1466 1 17.735834471549072 12.076973071797074 2.4426781466491154 1 -1 -1
2142 1 6.9027488239807715 5.912210887659918 0.6845038035398741 -1 0 0
17 1 26.170980736576922 14.239120353353371 4.499533359936586 -1 0 1
3631 1 31.255585070171517 14.399358542039925 2.6420762359372842 0 -1 1
3862 1 5.980999608246556 24.483789010421727 0.9163202159369607 1 0 1
771 1 33.16225563345217 12.347913404361995 2.778875966443007 0 -1 0
2657 1 37.29987147862309 15.081472304217318 1.7054711700966017 0 0 0
1993 1 37.27984755756063 12.284049523599906 1.8834284594628137 1 0 1
2813 1 41.762105033024454 13.348334467643415 2.318469347427458 0 1 1
141 1 48.10987295492497 12.01964436573438 2.5464496632183202 2 0 0
506 1 36.637492978466724 8.524146695104307 1.661202219639321 1 -1 0
3226 1 26.153175986604904 23.929266510272246 9.768987395668917 0 0 1
252 1 49.16135727238936 14.589862907216308 1.1326256378790858 1 0 -1
3367 1 3.739750665052403 16.332986378264334 2.076665728352882 1 0 0
858 1 20.53449877513429 4.368874682158692 1.935146531118993 0 0 1
1883 1 7.211777514797628 16.55868765214548 1.7097186116854668 1 -1 1
4028 1 34.673669703244414 13.345358834593986 0.7942476197470111 1 0 1
2591 1 13.891187897334824 14.88794651931599 2.8367488326062644 0 1 0
3320 1 19.985297379372 15.960980971412143 2.3485862499754555 0 0 0
3318 1 36.98585463774006 0.964121623702983 4.130747464114826 -1 1 0
3942 1 25.893290611993407 22.997793475185652 0.6604584717066007 -1 -1 0
175 1 22.2256706733032 17.719288387213904 2.1941796341591986 1 0 0
2683 1 26.554929166343374 17.186656923897146 1.0960885647816492 0 1 1
1297 1 40.093761776623985 15.431948519340406 2.741747543649004 0 0 1
935 1 41.79275166937333 18.006498596093557 2.289809489073763 -1 1 1
2875 1 45.97039280873062 12.93743679416969 4.435739404766528 -1 1 0
1006 1 29.923213894695618 1.3998106487154232 2.3932752164997484 0 1 2
1536 1 46.35468179981238 17.413024630460743 3.400322191582277 -2 0 0
2798 1 0.6632915090909621 18.849932933213072 0.9820086098839129 1 0 0
2853 1 4.320467775754882 19.37894909791627 2.766400376265292 -1 1 0
153 1 38.43011312659445 18.70719801188733 0.2468797107174311 0 0 -1
2582 1 8.741199984059875 19.212950608356994 7.043892300102102 0 0 -1
1121 1 10.412106716235309 20.77972863431942 5.154860164238949 0 -1 1
3305 1 12.337860331225729 19.06046834336833 4.153391164431066 1 1 1
1252 1 18.60822214231504 17.59143179004418 4.342776856770005 2 0 0
2864 1 26.78325062924482 1.2728689528228445 1.9832543756776724 0 1 0
2115 1 22.609146133140406 22.586812937065478 14.571710780136296 0 1 0
1453 1 29.46674982782529 20.69381113479608 2.303964510219218 0 -2 2
2645 1 31.576081377107762 16.027896484426304 0.300432558974472 0 0 1
3532 1 32.00205854006657 19.359283610633614 2.730047902580114 0 0 1
692 1 34.261427570804656 20.822082186344065 3.7616522647384105 0 -1 0
1492 1 36.673620022095065 21.284232851241278 2.047197306800093 0 -1 1
399 1 40.16471111164301 20.13360908246631 1.9056430499947825 0 0 0
610 1 43.78071531612608 18.828205078523897 3.6378808195408374 0 0 -1
2816 1 44.12647121599227 20.815629629717638 1.7332361120348534 -1 0 0
2537 1 48.77342712680927 21.276218626736128 1.6837076462189478 0 -1 0
431 1 42.30981211828915 24.537665658254042 1.4026366108549724 0 -1 0
2230 1 5.294214375258279 23.443578835087273 3.7496138282394096 0 1 0
392 1 46.920763875276386 6.168030858059427 0.71262565461851 0 1 0
3852 1 9.050691040983653 21.86109864219602 3.0817757520608238 1 0 1
2627 1 24.576686764843384 24.57823169732789 11.762031126703693 0 -1 -1
1528 1 39.376909946575445 3.8474673798492036 0.9843863182656604 1 0 2
3649 1 18.398867146623584 1.5498161530368588 9.43946454832556 0 1 0
3095 1 25.35527139330885 23.885235529751895 3.340678180382687 1 0 0
1412 1 30.067336052884635 23.43947622133493 1.2106276196693992 1 0 1
3848 1 20.606106542166057 24.841424625813495 5.918541331324174 -1 -1 1
1001 1 38.140613112080544 23.0501318230587 4.588607964610154 0 -1 0
2214 1 39.20284826944461 24.597715256754135 2.4039446800442996 -1 0 -1
3143 1 2.9034637055860224 1.9357102636818204 0.37701199993036727 2 0 0
115 1 9.857175181466939 1.4616936946514465 5.173227769924802 0 1 1
260 1 41.84225810658845 21.917077482124878 0.37903417446809 0 -1 1
149 1 34.985500085549795 22.87845666674344 0.6395950762132997 -1 0 1
1836 1 46.26284155744819 22.438127951168617 2.59053800192591 -1 1 0
2470 1 46.82584637983241 22.041192522619454 11.951533560663638 -1 -1 1
670 1 48.77366935016035 22.83388583115834 14.053559664878124 0 -1 1
280 1 7.987303117296574 3.39085030135601 4.686291599817974 0 0 0
3969 1 14.107300201810727 23.228502027985517 1.1402681967075126 0 0 2
2175 1 13.764072718240952 2.9164920392295772 5.150116370421606 1 1 1
3968 1 21.636727025846895 0.36115566443456476 6.587115302307522 0 1 -1
1138 1 19.361273453898722 3.9257836786166624 6.479062991177912 0 1 0
400 1 28.148208756825255 1.6870807002379837 7.59426433686971 -1 1 2
3702 1 27.368770384622852 6.787047600534467 16.281522250449207 1 1 0
2622 1 31.850233601983422 8.210197824934662 16.36415582939304 0 0 -1
1596 1 38.66609017082564 3.7938688250058705 4.669594448376341 0 1 1
2494 1 25.054023564279717 24.10367997412986 7.191634581730399 0 0 1
2493 1 40.79756160274295 1.5697054851364738 5.2830821370314505 0 0 -1
3480 1 45.05853360645138 3.2458689131473304 4.715833213018067 0 0 -1
3206 1 46.57439709764273 4.078947945603485 7.098662125876987 -1 1 1
1481 1 47.99588775318412 1.64094295139992 0.8520507282754576 -1 0 1
504 1 49.71456366265478 1.4164261336865445 4.676908088220755 0 0 1
3379 1 2.488032270096292 5.2567550336260025 4.325724657233138 1 1 0
4074 1 1.5835332141122076 3.5171459423927676 7.24670537828972 2 2 1
2614 1 3.930068373869683 3.1231436009499536 5.576162443991811 0 1 0
2699 1 6.317982403363894 2.962035087769308 6.9574031948396255 2 1 -1
2479 1 8.432528384857005 6.022876635820258 6.538536808824879 0 1 -1
1655 1 15.05649834670207 6.1009644518919535 5.021560635861311 0 0 0
960 1 15.476311585119428 6.885141866537914 2.3881680891168413 1 0 1
490 1 20.993062145792255 2.4378948192174867 4.792981818937376 1 1 0
3377 1 25.908461806060956 3.5836673298001775 8.138699547393404 0 1 1
1096 1 29.332640424344117 3.677606248434432 4.483278360572592 0 1 0
891 1 30.993754405725117 2.546978829771973 6.918417472652909 -1 1 0
782 1 35.592407867511824 1.8047707933439758 7.030052488576008 -1 0 1
2263 1 39.33592003599964 2.9411797605847565 9.22007018325862 1 0 0
327 1 40.83650307333859 5.269451612806692 3.55416409354944 0 0 0
2665 1 43.88639736600478 5.607889102395322 4.035318049400502 0 2 1
302 1 49.10563153351873 5.254326943561043 6.749913719291665 -1 0 0
1376 1 49.58070219578934 5.497953695278824 3.477484128689009 -1 -1 0
3563 1 3.8665171354410015 5.394471715030975 1.794775224317553 0 0 1
1940 1 2.6520551601725577 7.570020632143013 5.696541157397968 0 0 1
1621 1 5.671978599217141 5.415451800232588 4.5656947908555665 1 0 0
926 1 9.394494649583047 9.257924839716704 4.820261538782106 1 0 1
803 1 10.910105799146665 6.581652354201463 4.943058228409228 0 1 1
320 1 13.298431440669962 8.188689250451603 5.787197690573204 1 0 0
890 1 12.25693678356982 4.793205028027437 7.026988143540991 1 1 1
2954 1 18.92028512147625 8.200193228971214 3.176640412649373 0 2 0
1064 1 23.096321441591098 9.644884478240908 5.469561051332287 -1 0 2
2981 1 28.178253051611875 6.589015318150382 4.565745438281025 0 0 1
2201 1 28.355334922359113 7.559860305416661 7.043118806696772 0 1 1
3065 1 31.05729326263756 8.753203463160965 7.681281712802301 0 -1 0
1754 1 31.251808859007262 6.164050689665519 3.6285590470454787 -1 0 0
1652 1 38.32890738644433 7.716842967462702 5.231831427683122 1 0 1
1857 1 33.79518508695429 5.39874133348555 4.808161063065318 -2 1 0
4107 1 40.87461112126601 6.570611913006367 5.877796022757094 -1 1 1
1500 1 40.91617550273992 9.81895480932892 5.671255029635027 0 -1 1
1174 1 43.43539004935964 9.393942030857936 5.050854052557935 -1 0 0
2666 1 47.48772549383879 7.701572713940188 4.921478874393573 -1 1 1
2893 1 44.65185988080793 7.479240757421975 6.316067014880892 0 1 0
514 1 1.333939468684785 11.442794255224959 3.349698827095236 1 0 -1
1947 1 3.646626095357052 10.439194342156696 4.864793564067369 1 0 2
2185 1 7.146815722063862 9.60015060637253 5.8320228617829795 0 1 0
3232 1 9.996941414794023 10.84269422503439 1.3246432930261025 0 2 -1
2200 1 13.381807132825008 10.667196903124117 4.775805938716645 1 1 1
2685 1 20.028238462789812 10.780704188643648 3.1666062533536032 0 0 1
1082 1 18.266714227662153 11.372488275648134 5.751176699296981 1 -1 1
3742 1 24.792541737091035 11.960294789981745 3.369820756820897 1 0 1
1256 1 27.838691502896875 10.284028959267896 6.821603369499047 -1 0 -1
1846 1 31.423451319105407 11.420711616088148 7.491667987964952 1 0 2
361 1 33.401319143868214 11.25137457671256 5.382142317020983 0 -2 1
1510 1 36.03447597400327 10.101699061574244 4.840103916516795 0 0 0
333 1 37.684467400122955 12.436702924543894 4.6734173656276985 0 1 1
1443 1 40.41725531718798 12.339188208947855 4.504120296022236 -1 0 1
4079 1 43.73142376496877 12.000625652460307 6.077772429625929 0 0 2
1909 1 49.09625391494533 9.219594120708619 2.559724583362211 -1 1 1
398 1 0.4062096600672275 9.67513176365602 5.5388139868042074 0 1 -1
1593 1 0.7359804225774328 14.87752717705314 3.2763173491118134 0 0 1
258 1 4.472023880018575 14.212209151216259 4.460412317329887 1 -1 0
51 1 6.789558610617918 13.933033490945801 3.1307314265495436 0 0 0
1681 1 8.523836598504337 13.847548481155423 5.306663379736233 0 0 1
1780 1 11.341108640859867 14.61459745306157 4.933867619364106 1 0 0
741 1 14.322639038016693 15.542931547913023 5.800217375261916 0 -1 0
2018 1 18.27654566123559 14.425969055887842 4.469932083693877 0 -1 1
3929 1 16.860313441473632 14.024663613039857 6.66798403588263 0 1 1
729 1 21.032831550862056 14.327814451397616 4.990697970598162 0 0 1
1437 1 23.48184563522815 15.069109754900675 3.018110814880582 1 0 1
1137 1 25.170530523740393 11.460059193405073 6.376146144930146 0 0 1
2407 1 29.382287619890874 13.239841745506833 7.130735597719882 0 0 -1
468 1 33.59403719175449 13.90832269357595 6.978084358577051 -2 -1 0
4059 1 37.3707988854916 15.006621103765534 5.781969827521992 0 1 1
3020 1 41.77203406322848 13.739230233821132 6.678116518134475 0 1 1
1796 1 0.2857683110452467 14.105682432724834 5.882670002884123 2 0 1
2631 1 1.679396782449291 17.597913318107143 3.5053275821956253 0 0 1
2689 1 4.7235082515674565 16.370062930493322 6.237512381595195 1 0 1
4080 1 3.954392886172326 19.02661394844073 5.520906780894662 0 2 1
412 1 7.915946156081901 18.109387667221437 3.9298461083466742 1 0 -1
896 1 7.550126336570613 16.301398314493216 6.0118090613734205 1 -2 1
1687 1 10.536880843307614 17.087586785766355 3.4444732912199205 1 0 0
1939 1 13.37015088157009 18.041471095771662 6.623733313667841 1 0 1
2169 1 16.349758793880234 16.067882616681622 2.4336509952794074 1 0 0
2571 1 20.002424680159713 18.14149274774428 7.677494738109488 -1 -1 1
3825 1 21.303540822853048 19.09579594551555 5.067111895906955 0 0 1
2868 1 24.22768963494605 17.737094998809717 4.564956485763771 1 2 0
3395 1 26.591502935827062 16.93259550171605 3.9542116866711217 0 1 1
4111 1 28.96087571769381 13.549422472000945 4.511431202376376 1 1 1
860 1 33.426142739645385 15.311361599740328 4.637427424112131 -1 1 1
992 1 31.033134434511833 17.254555572829315 4.2740375573205105 1 0 0
3677 1 35.93183922746169 16.213248155919327 3.7918425251012304 1 1 1
3488 1 39.95670673857577 15.856091155264991 5.514995184054829 0 0 1
1483 1 45.333479474528055 15.547504434211623 5.078059390367429 -1 0 0
2264 1 48.28790357460048 16.3376046571361 6.201781883113112 0 0 0
2351 1 0.8868120676108201 17.835090587008064 6.11813608705021 0 1 1
2929 1 48.908530533973234 20.818221031446623 4.514581956078011 0 0 0
1832 1 1.5322785096710483 20.963331531282133 5.654402945571239 2 -1 2
3167 1 14.882522767287671 18.102585971205343 0.4874754091342425 1 -1 1
3188 1 14.25011589638513 20.670862998797105 7.95938169556165 0 0 0
2760 1 14.088966334970854 21.619801917016115 3.5139255475084283 1 1 0
1269 1 21.267677413096642 21.31026499952988 3.1809373461550368 0 0 0
1972 1 23.82060412451403 20.441191061509194 2.042358419043998 1 0 0
1178 1 25.158351810998 20.88472339307367 4.222017484781095 0 1 0
766 1 28.097142129860217 20.966691067836972 4.527231815919322 0 0 0
995 1 28.535832151204872 18.32218785819204 5.1440105132860765 1 -1 1
3408 1 36.25401958558886 18.788832470307497 4.830790603973439 0 1 0
3145 1 34.27371697894255 21.17893577464601 6.624046890166764 0 1 0
3306 1 38.49317222386892 20.40197975367091 4.210794202102199 -2 0 -1
1819 1 40.00228883171603 18.682856582058275 6.025972709841847 -2 0 1
1703 1 42.9946331635462 18.837248361402832 6.355565232051677 -1 0 1
309 1 45.44087147286028 20.02060603233166 6.66892729785102 -1 1 2
894 1 47.46066744998638 18.962812935173012 5.545432502423084 -1 -2 1
1799 1 16.630812950742165 24.379261037906517 5.275308728805602 0 0 0
1335 1 42.787089607887445 24.4650855406794 13.707554583592248 0 -1 0
2748 1 3.0190849660747188 21.77204526057435 3.3264461091219797 1 0 0
2356 1 5.649641282341247 21.207908029154403 6.8254380670665284 1 1 1
3476 1 9.46229636937015 24.503686015176434 2.924623621316634 2 0 1
2415 1 11.08884288114207 22.897669979931813 6.646507993808966 1 0 0
386 1 14.253926669261245 23.044041363878897 6.0908507401720335 1 0 1
2500 1 16.277198379958204 8.813202391838187 16.044738206119792 1 0 0
1065 1 7.999840562351288 9.381494879493705 2.313820411404439 1 1 0
2777 1 22.537341484229007 23.973411885735125 3.587592097800427 1 1 1
2490 1 27.862284427843505 22.13913364024019 7.170433078382844 0 -1 1
2411 1 18.2520635738973 17.44871989304822 0.7291971935838715 0 0 0
2548 1 32.735995144239766 23.1544802566474 4.704113535034047 1 0 -1
370 1 35.54842369278665 24.0527877021873 5.324393333679006 0 -1 0
1478 1 40.58241413175432 23.712474180121934 5.9619531110794615 0 1 1
3639 1 42.320608750646635 21.736848694755217 6.786412280727626 0 0 2
4040 1 45.23580544683063 23.111943980131645 5.189630910601877 0 1 0
236 1 15.679942645646008 0.8148204993127628 0.44523148153839787 0 1 1
2961 1 47.69728627880437 22.355289691246092 6.562464059996872 1 0 -1
1617 1 2.6076807045151416 1.4978648833596429 9.151290599068803 -1 1 0
2859 1 47.36686172508302 17.076064776379752 0.8387517565272923 0 1 0
1919 1 4.608050707831572 2.2694615141615366 10.955892780968796 0 0 0
1834 1 6.76535662290741 0.20351882411195332 7.486091993121837 2 1 1
673 1 8.547488418865328 0.4036229134921023 9.714237848592415 1 0 0
2539 1 1.006897238812586 23.207690584028065 1.324711593769888 0 1 0
3351 1 10.766355492680573 1.5407170126389735 8.01575112617887 1 1 0
25 1 9.573298901180312 4.520758645745384 8.436193402663836 1 0 0
817 1 14.444210970187696 3.7306207534240863 8.666124239173802 0 -1 1
2780 1 17.38470621121699 1.5207413348267982 16.553055795544793 1 0 0
3791 1 16.40540192398402 3.7802303200871887 5.485722052557353 0 1 1
1823 1 22.758840245078687 3.8665931585012663 8.924899483324284 0 1 1
1733 1 23.617278907724383 3.286205345941192 12.765581297092162 2 0 0
772 1 25.343018578725932 2.314560534491314 10.533662439046195 0 0 1
3819 1 31.933032071696335 2.5815261253773856 11.377696472842063 0 -1 -1
2421 1 35.162996998927646 0.7501786177785079 9.681599973396025 1 1 0
383 1 7.153444145031722 0.1961475963417072 14.456427043729564 1 0 1
1903 1 25.908798480147166 1.2995483491520854 13.996978559760866 -1 0 0
3777 1 34.004312531775255 0.4185364099269423 3.0486318034863302 0 -1 1
128 1 48.49773851737396 2.6162684936379486 11.322645699808895 -1 0 0
2932 1 6.091858120028532 4.533776453352657 9.299874988611464 1 0 0
2275 1 10.185764792722354 7.208567886126941 9.557304552858637 -1 0 0
1714 1 11.88717767301247 8.729559689587136 8.071535381351753 0 1 1
2646 1 14.316635776781979 9.747607711449982 8.945044528360292 0 2 1
87 1 24.010910195548238 6.463845013521699 8.879852769071377 0 0 0
2601 1 19.618455251084495 4.093586302757288 9.43940107784089 0 0 1
927 1 26.70910355167467 6.44187587835982 9.036175462942971 -1 1 -1
1296 1 28.1584863705152 2.3474753466820633 10.786790063282512 0 0 0
1523 1 33.51228714517395 3.753553140191369 7.066622034653424 1 -1 0
2371 1 37.55162914867045 6.628567540653205 7.945114332316254 -1 1 0
1581 1 41.83417785717218 2.9523762536330955 7.602612388105901 0 0 2
2869 1 42.84724664017006 5.606920156954741 7.81257983583582 -1 1 0
905 1 49.261808334457655 5.179181662218141 9.868194067851086 0 1 1
3678 1 1.7888206453282103 6.378981342341438 8.213987632760627 0 1 0
3285 1 45.137393348427864 4.935030400234808 9.28025717887305 0 1 0
968 1 0.05052581578822668 8.564035024102553 8.087420816242565 1 1 1
3755 1 3.59168526028545 5.988833912321449 10.109731200169804 0 1 1
2167 1 5.493510491740443 7.453746351137903 6.5780679031013785 -1 0 0
522 1 10.070906192811375 10.98820021999271 8.316396971183018 0 0 0
4165 1 20.0542718467711 6.5277409626444545 6.838901835900162 0 1 1
2803 1 19.801588161835454 7.3489247567100024 9.353767384993514 0 1 0
3520 1 23.183441841203955 6.822145534935029 6.238163944248573 1 1 -1
1051 1 27.268703915090654 8.173614318520315 11.37493038416525 0 1 0
3793 1 33.65645268749332 7.365606704655304 6.6723507329167075 0 1 0
1337 1 35.94977099656396 8.821313212019227 7.449133808982324 1 1 -1
4103 1 37.082579579484005 11.981857096989355 7.704590079850356 -1 0 1
2736 1 39.61442071122924 8.012263824126281 9.03487475847572 0 1 1
3301 1 46.24474506182866 10.250310627769364 12.04140344524516 -1 1 0
3993 1 47.048325661638515 8.063869359619476 7.766065737782582 1 1 2
4156 1 47.15607528533136 6.881212085300253 10.469833255935777 -2 1 2
1762 1 1.4598223794342546 9.787684685405774 10.358279520833365 0 -1 1
3459 1 2.98852015370111 12.946425340787798 6.394592471365704 1 0 0
744 1 7.494302843311722 12.080439551300708 7.178325640649045 -1 0 -1
4025 1 10.778905063464423 11.602060059707814 5.622390235939206 -1 1 2
2271 1 14.687612441590124 11.90242035245801 7.061645035284905 0 1 0
144 1 13.26845823762342 14.010083039183785 7.921387736348051 1 1 -1
994 1 17.869455222584012 7.20032601307782 5.4467141741167735 1 -1 1
2447 1 16.41122066815284 9.322052729150965 6.595065459939674 0 1 0
16 1 21.23771281883963 11.64791802848587 5.991440947556205 0 -1 0
2604 1 22.361841707148912 11.580370494745658 8.577340553377839 0 0 1
1897 1 23.88784083163248 9.378079493220408 8.577812368306093 0 1 1
3553 1 26.70201862643647 10.310637691691184 9.345753871143243 0 0 0
1071 1 32.88453205395372 8.552656303875713 10.012436518157473 1 -1 2
136 1 39.61518528097713 10.407128661364812 8.017491204610055 -1 0 -2
1545 1 41.34170899266099 12.040500611336764 9.177851895053776 -1 0 0
2395 1 44.699090422205934 11.72152450629786 8.463933247109248 0 1 -1
1172 1 47.51513678278428 10.986944542819273 8.46337734492031 0 -1 0
3717 1 2.2707385339368695 16.111137585641586 7.803690225255159 0 1 0
3900 1 5.052446805949896 13.087110701335778 8.565530930281232 1 1 2
4166 1 7.0621015855063565 15.357509077830157 11.798860105574697 0 0 0
642 1 7.8180042201940765 16.746285875347752 8.752358765917734 -1 0 0
1776 1 8.299091516298809 14.062298673389625 9.359591144634084 1 1 -1
3139 1 16.714178125605844 16.526131435263924 8.615444325124628 -1 1 0
4108 1 25.24641364328165 14.187346548276984 7.031208104673032 1 1 2
727 1 22.807183349359992 14.391356679890102 8.541072339040573 1 0 0
3991 1 27.1518120279605 13.26870071673267 8.910927937425226 0 -1 0
106 1 31.367848683829465 14.972750737198895 8.414234705894385 0 0 1
626 1 32.98324961173749 12.1683448873967 9.70703806856763 -2 -1 -1
502 1 38.17958991506746 14.533892333932194 10.248171251567546 -2 -1 0
2370 1 43.44052484973534 15.7905726722137 7.253417907001157 -1 -2 1
2761 1 45.276644843982154 14.619785664323965 8.90097425533796 0 1 0
984 1 48.420947605297634 11.944401108617628 5.770852661703006 0 0 1
1183 1 47.570501826856955 16.1482521908918 8.796167112864474 -1 0 0
69 1 3.1187110472031945 18.014987823045292 9.9959421107068 1 -1 0
235 1 5.164285778350684 15.827789248364539 9.19203656244705 1 1 1
289 1 10.911144383048697 18.14272371833857 7.97014720321271 0 0 -1
1324 1 10.671489441781178 15.053027038962181 8.069888509818902 0 -1 0
170 1 15.543099158442326 17.998663926306975 3.9838657842369574 0 0 1
3172 1 16.310220038645458 18.704187702258967 6.802366112324221 0 0 0
1261 1 20.522401081968393 15.664947031910986 7.5838292112653365 0 0 0
2158 1 22.552342255842433 18.55739305298405 8.324251617760263 -1 -1 2
895 1 24.86453455572047 17.109900347629768 7.200631923924702 0 1 1
4161 1 30.182974010326394 17.767292771224827 9.136334804660498 -1 1 1
516 1 36.21031746525874 14.861598137776783 8.222164125222616 -1 -1 1
3399 1 34.181906275565964 16.869898624397905 8.838843865286073 -1 1 1
2095 1 39.0791498593721 17.103184681197543 10.16698896476286 0 0 1
2039 1 41.883170068184704 17.259152036253745 8.987237767026523 0 0 1
3311 1 1.5741822639724667 19.78516225607297 8.507961468413898 1 -1 2
2979 1 5.554198067005548 21.38959402201519 10.506060673113202 0 1 0
1486 1 7.828084704978711 20.881793842711897 8.725661074069862 1 0 1
990 1 11.967539011263192 19.983845096303277 10.132236226385391 1 -2 1
4027 1 18.382978579911928 20.248869103174854 5.653357887428066 0 1 0
2161 1 20.77207768752274 21.68912789918152 6.836636665036955 0 1 0
3718 1 23.45563310692879 22.40583402377425 5.977208368600893 1 0 0
2328 1 27.595370796468252 17.977962541833154 7.883789230926341 0 0 1
2000 1 26.530419372855803 20.423073559489932 8.933518789166541 0 0 2
880 1 32.052398748443174 17.718187146363586 7.0535566046745535 0 -1 0
3310 1 32.02900852138116 20.49531743706463 7.947579646140753 0 0 1
3729 1 35.95798905812576 19.071149105408498 7.5325845584337845 0 0 1
1945 1 38.59253290374851 19.256164843421598 8.36081142742297 0 0 1
3493 1 40.43873346557015 21.536050152686872 9.044529652143169 0 0 0
3155 1 45.34371077026419 20.261856804737054 9.464346754074269 0 -1 1
263 1 47.37488825054322 22.49027657719271 9.177421058222961 -1 0 0
215 1 0.5036305672586625 23.768198205328467 6.1974017528098155 1 0 0
1260 1 3.649584446223565 21.982991105546894 8.559430645650894 0 0 0
1847 1 46.727219140851595 11.180737317025088 16.246453348617678 -1 0 -1
781 1 8.590358711740572 23.184801644610918 7.766971935749672 1 3 1
701 1 26.79364672529495 3.943958884286779 2.5092488577073597 -1 0 -1
3817 1 12.709071845567387 22.980045198581912 9.136600747670975 0 0 1
2948 1 18.173913256415375 23.132545492427894 7.292844334086788 1 0 0
2738 1 8.869882686561064 1.1659288538322152 0.6826262829282194 1 1 0
831 1 27.365738170147313 24.72966641698655 5.398853419759753 0 -1 0
1429 1 20.65853786459948 21.148247784752886 0.36357772764784546 -1 -1 2
1479 1 23.65112913633177 21.04507143014548 8.491903863577019 0 0 1
1844 1 30.21499356717915 22.65795549951393 8.300823124044816 -1 0 0
3117 1 35.50002905233172 23.28208257362899 8.024361392798399 1 0 0
2190 1 38.338324504089265 23.954562307132008 8.128736618651992 -1 2 -1
3556 1 44.317348510626275 23.069872886030897 8.25533746062442 -2 0 0
335 1 0.5100575057770866 0.7501800948680135 11.997841897020013 0 0 1
3774 1 32.714862403652276 13.533027892448844 15.649598676032893 0 0 1
1665 1 6.301494900683725 4.110962684926818 12.758908347383127 0 -1 0
3859 1 11.682087738128022 1.3965565231997963 10.56487262378111 0 1 0
426 1 14.266622603983144 1.0273012340893395 9.621036506879179 0 0 1
482 1 20.57359682639562 2.101637650818419 11.658091160122229 1 0 0
1895 1 22.083723496691682 5.624066833687355 11.754741556207685 0 -1 1
822 1 12.762045332445716 7.253747944280956 1.1847644849653725 0 0 0
1139 1 39.590325317632946 8.718899301631012 15.549060662202498 -1 1 1
1185 1 31.472915720212775 0.4797837245807108 13.2848872795419 1 1 0
3441 1 5.498058175213088 3.3578999940586955 0.8574853585488662 0 2 0
1616 1 35.469985465209625 0.24297875987991338 14.04818236751855 0 0 1
798 1 33.38549343532475 18.437376354915923 0.523934212607466 1 0 1
843 1 42.69205260174022 3.229658271132309 14.943009129655092 -1 1 0
4082 1 31.737696273730148 10.357130250118738 0.9163774453225586 0 0 1
899 1 46.35005141489866 3.094484439859455 12.983369847978064 1 0 0
3947 1 1.305960327863743 5.137790612614975 12.239213785878265 0 1 2
362 1 2.4532554926534313 2.5929402170371874 12.6120467418456 1 0 0
3669 1 8.113551390069539 3.1120336034652967 10.788152135197373 -1 0 0
4049 1 6.623988349984889 7.055078475838546 13.0370526055591 -1 1 -1
757 1 6.7246518425035715 7.392327787785869 8.908223530103067 2 -1 -1
3712 1 9.818494371470889 7.128207112552524 13.648060274322754 1 1 2
2337 1 9.21154570390523 4.43409012002837 13.686278114426514 -1 1 -1
3521 1 13.197226936094873 4.575982336656987 11.40759266932842 0 1 1