
# Create simulation box of size 50 x 50 x 50 Angstrom
#
lattice	            sc 1
Lattice spacing in x,y,z = 1.0000000 1.0000000 1.0000000
region 	            all block 0 50 0 50 0 50 units box
create_box          1 all
Created orthogonal box = (0.0000000 0.0000000 0.0000000) to (50.000000 50.000000 50.000000)
  1 by 2 by 3 MPI processor grid

# fill box with 4175 randomly distributed atoms
#
create_atoms        1 random 4175 63782 all
Created 4175 atoms
  create_atoms CPU = 0.001 seconds
mass                1 18.015

# Define potential
#
pair_style          sw
pair_coeff          * * ML_mW.sw mW
Reading sw potential file ML_mW.sw with DATE: 2019-02-27

# Run minimization
#
minimize            1.0e-8 1.0e-8 10000 1000
WARNING: Using 'neigh_modify every 1 delay 0 check yes' setting during minimization (../min.cpp:187)
Neighbor list info ...
  update every 1 steps, delay 0 steps, check yes
  max neighbors/atom: 2000, page size: 100000
  master list distance cutoff = 6.0032907
  ghost atom cutoff = 6.0032907
  binsize = 3.0016454, bins = 17 17 17
  1 neighbor lists, perpetual/occasional/extra = 1 0 0
  (1) pair sw, perpetual
      attributes: full, newton on
      pair build: full/bin/atomonly
      stencil: full/bin/3d
      bin: standard
Per MPI rank memory allocation (min/avg/max) = 4.255 | 4.258 | 4.261 Mbytes
Step Temp E_pair E_mol TotEng Press 
       0            0    7792709.3            0    7792709.3    5898794.3 
     630            0   -45180.336            0   -45180.336   -154.07449 
Loop time of 1.15376 on 6 procs for 630 steps with 4175 atoms

99.3% CPU use with 6 MPI tasks x no OpenMP threads

Minimization stats:
  Stopping criterion = max force evaluations
  Energy initial, next-to-last, final = 
      7792709.32924461  -45180.0188663597   -45180.336116598
  Force two-norm initial, final = 2.0191930e+08 4.9721331
  Force max component initial, final = 1.0948746e+08 0.73126211
  Final line search alpha, max atom move = 0.053306038 0.038980685
  Iterations, force evaluations = 630 1000

MPI task timing breakdown:
Section |  min time  |  avg time  |  max time  |%varavg| %total
---------------------------------------------------------------
Pair    | 0.89278    | 0.99144    | 1.0386     |   5.2 | 85.93
Neigh   | 0.024317   | 0.024723   | 0.025187   |   0.2 |  2.14
Comm    | 0.070025   | 0.1169     | 0.21668    |  15.1 | 10.13
Output  | 0          | 0          | 0          |   0.0 |  0.00
Modify  | 0          | 0          | 0          |   0.0 |  0.00
Other   |            | 0.02069    |            |       |  1.79

Nlocal:        695.833 ave         704 max         685 min
Histogram: 1 1 0 0 1 0 0 1 0 2
Nghost:        1494.17 ave        1515 max        1468 min
Histogram: 1 1 0 0 0 0 1 1 1 1
Neighs:        0.00000 ave           0 max           0 min
Histogram: 6 0 0 0 0 0 0 0 0 0
FullNghs:      19997.0 ave       20462 max       19320 min
Histogram: 1 1 0 0 0 0 0 2 0 2

Total # of neighbors = 119982
Ave neighs/atom = 28.738204
Neighbor list builds = 26
Dangerous builds = 0

# Add velocity/set timestep
#
velocity            all create ${TEMP} 120598 rot yes dist gaussian
velocity            all create 230 120598 rot yes dist gaussian
timestep            5.0

# Define output
#
compute	            1 all msd
thermo	            100
thermo_style        custom step temp press vol etotal ke pe c_1[4] density

# Neighbor lists
#
neigh_modify        delay 0 every 1 check yes

# Set fixes
#
fix                 1 all momentum 10 linear 1 1 1 rescale
fix                 2 all nve
fix                 3 all temp/csvr ${TEMP} ${TEMP} 500.0 928347
fix                 3 all temp/csvr 230 ${TEMP} 500.0 928347
fix                 3 all temp/csvr 230 230 500.0 928347
fix                 4 all press/berendsen iso ${PRES} ${PRES} 1000.0 modulus 20000
fix                 4 all press/berendsen iso 400 ${PRES} 1000.0 modulus 20000
fix                 4 all press/berendsen iso 400 400 1000.0 modulus 20000

# Run 0.5 ns equilibration
#
dump                1 all custom 1000 eq.${NAME}.dump id type x y z vx vy vz
dump                1 all custom 1000 eq.liquid_density_MLmW.dump id type x y z vx vy vz
run                 100000
Per MPI rank memory allocation (min/avg/max) = 3.506 | 3.508 | 3.511 Mbytes
Step Temp Press Volume TotEng KinEng PotEng c_1[4] Density 
     630          230    892.42114       125000   -42318.699    2861.6373   -45180.336 2.7295415e-33   0.99914793 
     700    146.23996    261.03641     125140.7   -41439.975    1819.5031   -43259.478   0.27477757   0.99802458 
     800    180.36172    132.83007    124782.42   -40643.259    2244.0427   -42887.302   0.66064899    1.0008901 
     900    202.35513    186.74564    124214.77   -40196.941    2517.6825   -42714.624    1.1187197    1.0054641 
    1000    212.30999    221.91126    124209.34   -39897.098    2641.5399   -42538.638    1.4859559    1.0055081 
    1100    220.10928    395.57747    124257.74   -39694.618    2738.5779   -42433.196    2.0231796    1.0051164 
    1200    217.22774    452.27688    124125.63   -39712.057     2702.726   -42414.783    2.4453967    1.0061861 
    1300    222.17188    433.20258    124134.12    -39676.96    2764.2406   -42441.201     2.936844    1.0061174 
    1400    221.96196    224.51692    124212.72   -39669.202    2761.6288   -42430.831    3.3233139    1.0054807 
    1500    226.58046    440.44418    124325.91   -39613.151    2819.0917   -42432.243    3.8034313    1.0045652 
    1600    233.92867    394.01024    124490.84   -39507.474    2910.5174   -42417.991     4.424763    1.0032344 
    1700     227.4142    553.51581    124611.19    -39530.02     2829.465   -42359.485    4.7643558    1.0022654 
    1800     227.1959    371.71979     124512.1   -39605.116    2826.7489   -42431.865    5.3263585    1.0030631 
    1900    225.82841    495.74593    124438.55   -39589.862    2809.7347   -42399.597    5.7144619    1.0036559 
    2000    234.34143    398.92178    124636.64   -39536.013    2915.6529   -42451.666     6.121934    1.0020608 
    2100      229.799    450.44842     124636.1   -39472.755    2859.1364   -42331.891    6.6136569    1.0020651 
    2200    226.18717    450.52277    124556.97   -39501.767    2814.1984   -42315.965    7.2130542    1.0027017 
    2300    232.92117    254.30472    124604.02   -39483.859    2897.9822   -42381.841    7.5969517    1.0023231 
    2400    233.74909    487.14657    124464.06   -39487.343    2908.2831   -42395.626    8.1443902    1.0034502 
    2500    232.97597    338.41073    124581.62   -39459.758     2898.664   -42358.422    8.4965445    1.0025034 
    2600    236.20639    300.75369    124576.23   -39423.803    2938.8566   -42362.659     8.879806    1.0025467 
    2700    235.76582    369.46765    124338.38   -39447.909    2933.3751   -42381.284    9.3837296    1.0044645 
    2800    231.21601    389.04938    124553.33   -39429.859    2876.7667   -42306.625    9.7110354     1.002731 
    2900    233.00993    393.79039    124453.36   -39495.963    2899.0865    -42395.05    9.9761843    1.0035365 
    3000    230.56021    363.26956    124416.33    -39522.79    2868.6074   -42391.397    10.347883    1.0038352 
    3100     229.7278    130.55167    124494.17   -39491.891    2858.2506   -42350.142    10.834454    1.0032076 
    3200    231.84048    507.33425     124430.5    -39532.24    2884.5363   -42416.776    11.276997    1.0037209 
    3300     225.3155    609.81038    124476.98   -39519.646    2803.3532   -42322.999    11.776011    1.0033461 
    3400    232.66121    343.72644    124421.18   -39551.766    2894.7478   -42446.514    12.082976    1.0037961 
    3500    228.50679    248.32108    124665.85   -39583.161    2843.0589    -42426.22    12.450711     1.001826 
    3600    228.25194    520.78416    124520.87   -39623.756    2839.8881   -42463.644    12.991362    1.0029924 
    3700    222.18334    511.25521    124621.71   -39674.612    2764.3831   -42438.995    13.397807    1.0021809 
    3800    231.03293    256.71194    124576.12   -39606.312    2874.4889   -42480.801    13.881053    1.0025476 
    3900    228.89526    558.72483    124498.81    -39624.38    2847.8921   -42472.272     14.27315    1.0031702 
    4000    229.88143    155.72114    124382.67   -39597.959     2860.162   -42458.121     14.82772    1.0041069 
    4100    229.01179    368.24455    124113.31   -39570.948     2849.342    -42420.29    15.221647     1.006286 
    4200    227.53282    432.22924       124401   -39582.904    2830.9409   -42413.845    15.792904    1.0039589 
    4300    232.89683    583.11837    124448.81   -39586.134    2897.6794   -42483.813    16.121905    1.0035732 
    4400    230.88191    557.01313    124666.66   -39590.163    2872.6099   -42462.773    16.612661    1.0018195 
    4500    227.57776    378.45611    124791.93   -39594.051       2831.5   -42425.551    17.075192    1.0008138 
    4600    222.68405    369.17679    124583.99   -39633.331     2770.613   -42403.944    17.510535    1.0024843 
    4700    229.50215     407.1538    124720.94   -39550.596     2855.443   -42406.039    17.941774    1.0013835 
    4800    229.20962    495.26287    124789.16   -39625.685    2851.8035   -42477.489    18.243048     1.000836 
    4900    230.12491    256.31713     124873.3   -39487.015    2863.1913   -42350.206    18.587538    1.0001617 
    5000    234.82015    389.39308    124947.84   -39429.637    2921.6091   -42351.246    18.954603   0.99956503 
    5100    233.66591     309.4811    124879.36   -39509.002    2907.2482    -42416.25    19.486745    1.0001131 
    5200    228.38253      349.326       124789   -39577.115    2841.5128   -42418.627     19.98162    1.0008373 
    5300    229.30131    539.75356    124915.48   -39551.704    2852.9442   -42404.648    20.458305   0.99982393 
    5400     229.1898    303.54629    124859.74   -39604.983    2851.5568   -42456.539    20.976485    1.0002703 
    5500    228.82882    422.42948    124862.34   -39603.494    2847.0656    -42450.56    21.328164    1.0002495 
    5600    229.55683    385.75739    124835.71   -39611.442    2856.1233   -42467.565    21.591309    1.0004628 
    5700    231.16743    511.37343     125022.2   -39612.929    2876.1623   -42489.092    22.059072   0.99897049 
    5800    227.69475     516.7691    125169.27   -39652.772    2832.9556   -42485.728    22.409835   0.99779675 
    5900    225.74155    220.16147    125279.18   -39675.621     2808.654   -42484.275    22.923132   0.99692135 
    6000    227.26207    341.04039    125259.84   -39663.387    2827.5722   -42490.959    23.293093   0.99707528 
    6100    232.25331    310.54433    124952.83   -39611.528    2889.6727     -42501.2    23.545445   0.99952509 
    6200    227.03467    322.57769    124879.94   -39677.873    2824.7429   -42502.616    23.943087    1.0001085 
    6300    231.26713    446.42455    125139.06   -39635.609    2877.4027   -42513.012    24.285549   0.99803761 
    6400    230.40738    582.20504    125020.89   -39619.826    2866.7058   -42486.532    24.883528   0.99898096 
    6500    234.15246    548.90635    125100.47    -39565.02    2913.3017   -42478.322    25.374618   0.99834547 
    6600    227.29141    276.30041    124949.13   -39656.715    2827.9373   -42484.652    25.651201    0.9995547 
    6700    229.01247    608.50442    124961.85   -39737.492    2849.3505   -42586.842    26.098864   0.99945296 
    6800    231.47126    502.67441    124932.28   -39667.089    2879.9426   -42547.032    26.566306    0.9996895 
    6900    236.12016    475.17328    125007.05   -39626.856    2937.7837    -42564.64    26.953849   0.99909157 
    7000    232.22821    612.95041    125032.22   -39616.754    2889.3604   -42506.115    27.365041   0.99889044 
    7100    232.80046    345.43765    125196.54   -39645.586    2896.4803   -42542.066    27.745774    0.9975794 
    7200    226.50387    491.87666    124930.32   -39716.152    2818.1387   -42534.291    28.249145   0.99970524 
    7300    227.21353    439.75333    124992.27   -39781.066    2826.9683   -42608.034    28.594811   0.99920972 
    7400    223.30848    447.11425    124954.21   -39802.084     2778.382   -42580.466    29.052492   0.99951409 
    7500     225.1483    421.09492    125020.98   -39760.727    2801.2729       -42562    29.061729   0.99898024 
    7600    224.99507    402.60699     124934.8   -39817.007    2799.3664   -42616.373    29.247401   0.99966939 
    7700    230.46519    559.80951    124965.64   -39708.741    2867.4251   -42576.166    29.702653   0.99942265 
    7800    231.19238    360.43171    125093.45   -39690.202    2876.4727   -42566.674    29.988807   0.99840156 
    7900      229.968    500.03989    124970.62   -39752.468    2861.2391   -42613.707    30.338787   0.99938279 
    8000    229.84504    582.89425    124897.12   -39743.056    2859.7092   -42602.766    30.721659   0.99997093 
    8100    230.57209    460.11476    125182.57   -39819.413    2868.7551   -42688.168    31.081531   0.99769077 
    8200    224.37592     544.4946    125388.24   -39825.402     2791.663   -42617.065    31.406363   0.99605424 
    8300     228.1676    476.27927    125480.26   -39805.057    2838.8387   -42643.896    31.946625   0.99532379 
    8400    226.35698    393.83013    125649.04   -39775.986    2816.3112   -42592.297     32.13444   0.99398684 
    8500    229.29127    424.76702    125857.08   -39721.896    2852.8193   -42574.716    32.626847   0.99234382 
    8600    232.76115    386.40898    125678.37   -39739.677    2895.9912   -42635.669    32.980086   0.99375484 
    8700    232.28261    397.60693    125889.95   -39705.711    2890.0373   -42595.748    33.453319   0.99208468 
    8800    226.57936    283.22954    125837.05   -39738.562    2819.0781    -42557.64    33.840628   0.99250176 
    8900    229.47008    492.50471    125437.32    -39824.19     2855.044   -42679.234     34.12947   0.99566454 
    9000    231.93741    453.56989    125541.46   -39759.851    2885.7424   -42645.593    34.302542   0.99483857 
    9100    221.33212    41.879314     125553.9   -39831.129    2753.7923   -42584.921    34.738747   0.99474002 
    9200    230.47698    288.94634    125485.89   -39740.748    2867.5718    -42608.32    35.490249   0.99527912 
    9300    225.39623    556.99963    125476.85   -39798.705    2804.3576   -42603.063    35.821858   0.99535085 
    9400    231.88366    571.10916    125363.58   -39756.905    2885.0736   -42641.978    36.153064    0.9962502 
    9500    228.06835    528.70322    125370.43    -39774.39    2837.6038   -42611.993    36.364217    0.9961958 
    9600    228.23837    349.30882    125370.46   -39735.056    2839.7192   -42574.775    36.708597   0.99619553 
    9700    235.38976    408.44622    125284.51     -39678.5    2928.6961   -42607.196    36.922645   0.99687892 
    9800    228.71671      402.596    125285.75   -39743.395    2845.6707   -42589.066     37.30404   0.99686905 
    9900    222.83218    338.35209    125380.05   -39799.954     2772.456    -42572.41    37.722373   0.99611932 
   10000    228.62077    588.27021    125351.82    -39802.32     2844.477   -42646.797    37.956189   0.99634365 
   10100    229.54899    109.82557    125332.31   -39763.976    2856.0258   -42620.002    38.373266   0.99649874 
   10200     223.9786    281.41998    125379.94   -39809.026    2786.7196   -42595.746    38.612479   0.99612017 
   10300    230.44143    276.04436    125176.08   -39807.444    2867.1295   -42674.573    38.725774   0.99774247 
   10400    232.63606    482.96853    125377.98   -39748.026    2894.4348   -42642.461    38.987595   0.99613575 
   10500    227.55035    582.80046    125445.32    -39717.47     2831.159   -42548.629    39.407859   0.99560104 
   10600    233.21541     340.7951    125489.06   -39664.792    2901.6431   -42566.435    39.884728     0.995254 
   10700    231.03358    439.48256    125556.49   -39649.379    2874.4969   -42523.876    40.341557   0.99471949 
   10800    234.78183    407.57856    125432.82   -39641.805    2921.1323   -42562.938    40.592815   0.99570029 
   10900    232.24348    441.71635    125409.69    -39681.73    2889.5504    -42571.28    40.914417   0.99588392 
   11000    230.52328    394.09299    125468.23   -39657.734    2868.1478   -42525.881    41.143786   0.99541921 
   11100    229.35311    335.16506    125727.35   -39704.834    2853.5887   -42558.423    41.258222   0.99336771 
   11200     230.5731    454.52305    125888.77   -39707.003    2868.7677   -42575.771    41.445702   0.99209396 
   11300     229.2749    394.44829    125836.65   -39721.485    2852.6157     -42574.1    41.648551   0.99250486 
   11400    228.13604    546.52366    125806.09   -39746.381    2838.4461   -42584.827    41.921913   0.99274596 
   11500    227.91684    493.86333     125714.4    -39774.64    2835.7188   -42610.359    42.225711   0.99347007 
   11600    227.42564    319.56873    125684.38   -39771.365    2829.6073   -42600.972    42.685775    0.9937073 
   11700    230.00268     521.6748    125516.19   -39644.098    2861.6706   -42505.769    42.812471    0.9950389 
   11800    223.49006    255.18785    125613.27   -39690.081    2780.6412   -42470.722    43.085828   0.99426985 
   11900    229.55394    368.87404    125406.56   -39701.024    2856.0875   -42557.111    43.749965   0.99590878 
   12000     228.2593     323.4485    125339.23   -39702.175    2839.9796   -42542.154    44.029222   0.99644377 
   12100    231.77015    587.69945     125389.6   -39653.838    2883.6613     -42537.5    44.292171   0.99604349 
   12200    230.91464    343.92149       125576   -39666.871    2873.0171   -42539.888     44.65283     0.994565 
   12300    232.01241    418.41887    125676.97   -39687.792    2886.6755   -42574.468    45.132356   0.99376593 
   12400    232.58442    504.58312    125571.44   -39660.118    2893.7923    -42553.91    45.510866   0.99460106 
   12500    227.87118    251.88094    125437.24   -39766.174    2835.1507   -42601.325    45.605351   0.99566521 
   12600    225.74916    243.10341    125301.61   -39680.112    2808.7488   -42488.861    45.529017   0.99674292 
   12700    233.31607    412.97106    125091.41    -39658.04    2902.8955   -42560.935    45.841578   0.99841778 
   12800    232.82025    482.98903    125217.98   -39638.262    2896.7265   -42534.988    46.404963   0.99740862 
   12900    232.33776    319.11152    125480.93   -39697.122    2890.7235   -42587.845    47.145315   0.99531852 
   13000    234.22894    421.49352    125262.43   -39630.428    2914.2533   -42544.681    47.602644   0.99705469 
   13100    232.79566    348.11213    125468.09   -39644.669    2896.4206   -42541.089     47.74721   0.99542034 
   13200    235.31013    373.30651    125459.05   -39574.635    2927.7054   -42502.341    47.911529   0.99549207 
   13300    232.95012    140.44151    125275.81   -39626.573    2898.3424   -42524.915    48.041999   0.99694815 
   13400    231.15402     250.4516    125109.79   -39702.276    2875.9955   -42578.271    48.412961   0.99827116 
   13500    228.16066    400.05841    125141.48   -39721.564    2838.7524   -42560.316    48.853654   0.99801833 
   13600    226.85703    536.20553    125155.21   -39721.676    2822.5328   -42544.209    49.304764   0.99790883 
   13700    229.78142    421.29737     125309.4    -39726.08    2858.9178   -42584.997    49.588102   0.99668096 
   13800    234.69142     225.4923     125389.7   -39632.539    2920.0075   -42552.547    49.892787   0.99604265 
   13900    229.11045    425.38649    125455.81   -39671.271    2850.5696    -42521.84    50.363802   0.99551782 
   14000     229.2115    251.61624    125235.86   -39656.378    2851.8268   -42508.205    50.468573   0.99726624 
   14100    229.05026    466.99229     125432.9    -39662.74    2849.8207   -42512.561    50.482468   0.99569965 
   14200    230.37088    499.01233    125548.39   -39710.981    2866.2517   -42577.232    50.949974   0.99478372 
   14300    229.04147    287.74532    125539.73   -39772.725    2849.7113   -42622.436    51.377878   0.99485234 
   14400    227.25752    467.60838    125710.07   -39749.092    2827.5155   -42576.607    51.963168   0.99350429 
   14500    233.88448    462.83869    125855.06   -39683.034    2909.9676   -42593.002    52.476021   0.99235971 
   14600    230.62913     399.4147    125760.29   -39683.557    2869.4648   -42553.021    52.993746   0.99310756 
   14700    230.55986    578.93328    125908.67   -39734.293     2868.603   -42602.896    53.273195   0.99193716 
   14800     229.2783    339.02999    125958.52   -39790.636     2852.658   -42643.294    53.458249    0.9915446 
   14900    224.48627    490.82917    125836.03   -39880.826     2793.036   -42673.862    53.661671   0.99250977 
   15000    222.81449    337.28034    125633.64   -39882.326    2772.2359   -42654.562     53.82163   0.99410866 
   15100    222.97156    194.02119    125473.13   -39907.796    2774.1901   -42681.986     53.89352    0.9953804 
   15200    228.65384    297.78528    125531.49   -39832.643    2844.8885   -42677.532    54.043383   0.99491761 
   15300    225.62957    417.45365    125504.95   -39843.441    2807.2608   -42650.702    54.182807   0.99512798 
   15400    223.49295    298.61114    125616.35   -39822.438    2780.6772   -42603.115    54.529849   0.99424553 
   15500    226.93913    460.09592    125702.99   -39804.659    2823.5543   -42628.214    55.069452   0.99356025 
   15600    229.75449    349.31237    125889.74   -39733.714    2858.5826   -42592.297    55.556499   0.99208634 
   15700    228.49386    517.39949    125820.52   -39832.235     2842.898   -42675.133    55.894371   0.99263216 
   15800     226.0914    390.07182    125797.13   -39834.444    2813.0068   -42647.451    56.216022    0.9928167 
   15900    227.04063    344.73475    125694.28   -39861.157     2824.817   -42685.974    56.719138   0.99362905 
   16000    225.51341    436.38517    125680.45   -39778.667    2805.8156   -42584.483    56.978435   0.99373839 
   16100     232.7213     356.7833    125705.86   -39720.025    2895.4955    -42615.52    57.341723   0.99353755 
   16200    230.75675    496.41275    125979.35   -39780.015    2871.0526   -42651.068    57.616668    0.9913807 
   16300    226.23366    478.22536    125868.46   -39787.037    2814.7768   -42601.814    58.205109   0.99225405 
   16400    232.52911    325.17353    125808.27   -39678.721    2893.1042   -42571.825    58.344453   0.99272875 
   16500    231.82499    231.77167    125782.32   -39670.807    2884.3436   -42555.151    58.613597   0.99293361 
   16600    233.63073    384.90711    125552.71    -39658.67    2906.8105   -42565.481    58.854892   0.99474945 
   16700    231.64866    506.42709     125493.7   -39691.436    2882.1498   -42573.585    59.329667   0.99521722 
   16800    233.49667    329.73962    125401.15   -39694.947    2905.1424    -42600.09    59.983084   0.99595169 
   16900    229.02553    217.94398    125221.68   -39654.374     2849.513   -42503.887    60.143562   0.99737914 
   17000    231.79029     363.2279    125336.61   -39663.647    2883.9118   -42547.559    60.340459    0.9964646 
   17100    235.77874    308.03462    125341.44   -39577.494    2933.5358    -42511.03    60.763899   0.99642615 
   17200    231.09667     289.7447    125588.42   -39579.733    2875.2819   -42455.015    61.297626   0.99446665 
   17300    227.84564    315.18868    125207.58   -39636.197    2834.8329   -42471.029      61.3799   0.99749144 
   17400    229.72163     537.2921    124950.08   -39655.559    2858.1739   -42513.733    61.422769    0.9995471 
   17500    234.14747    462.12794    125007.26   -39653.568    2913.2396   -42566.807    62.042411   0.99908991 
   17600    230.79392     558.4031    125343.25   -39643.135    2871.5152    -42514.65    62.146256   0.99641181 
   17700    230.35784    544.89903    125517.27    -39675.13    2866.0894    -42541.22    62.373317   0.99503035 
   17800    231.71244    577.27299     125592.9   -39687.819    2882.9433   -42570.762    62.605316   0.99443116 
   17900     230.9199    413.41896    125430.29   -39636.816    2873.0826   -42509.898    63.122606   0.99572031 
   18000    228.97913    300.75562    125365.43   -39577.123    2848.9358   -42426.059    63.462871   0.99623553 
   18100    231.56066    276.57121     125093.9   -39667.362    2881.0548   -42548.417    64.127894   0.99839794 
   18200     227.9952    329.99648    125135.19   -39681.238    2836.6937   -42517.931    64.390125   0.99806852 
   18300    229.34282    484.16493    125128.67   -39573.071    2853.4607   -42426.531    64.787739   0.99812054 
   18400     229.8624    277.60671    125310.04   -39641.803    2859.9253   -42501.728    65.152615   0.99667589 
   18500    229.53239    597.29438       125342    -39615.42    2855.8193   -42471.239    65.454438   0.99642173 
   18600    230.18384    297.21763    125271.25   -39678.923    2863.9246   -42542.847     65.79565   0.99698448 
   18700    231.90841    519.24031    125156.04   -39648.538    2885.3815   -42533.919    65.883037   0.99790224 
   18800    236.72193    376.83883    125340.21    -39624.13    2945.2708   -42569.401     66.69141   0.99643597 
   18900    224.67036    491.19007    125316.23   -39670.048    2795.3265   -42465.375    67.125177   0.99662661 
   19000    231.26265     156.9854    125036.69   -39641.855    2877.3471   -42519.202    67.492172   0.99885473 
   19100    227.84191      435.578    125244.04   -39675.519    2834.7865   -42510.306    67.967737   0.99720106 
   19200    231.54612    394.63506    125375.11   -39660.108     2880.874   -42540.982    68.420913   0.99615854 
   19300    237.00388    297.13435    125254.46   -39619.036    2948.7788   -42567.815     68.55706   0.99711809 
   19400    232.29937    174.69294     125272.2   -39626.671    2890.2458   -42516.917    68.763316   0.99697695 
   19500    232.08865    437.95662    125294.29   -39619.792     2887.624   -42507.416    69.093894   0.99680113 
   19600     227.0938    412.61152    125517.49   -39640.831    2825.4787   -42466.309    69.673565   0.99502857 
   19700    230.82411    395.39595    125738.55   -39622.452    2871.8907   -42494.343     70.20684   0.99327922 
   19800    234.29019    399.20947    125576.92   -39661.936    2915.0154   -42576.951    70.413205   0.99455772 
   19900    230.67001    341.62038    125402.91   -39673.483    2869.9734   -42543.456    70.756991   0.99593778 
   20000    226.48653    288.94202    125368.04   -39715.951     2817.923   -42533.874     71.12021   0.99621478 
   20100    230.18671    446.18966    125608.59   -39670.818    2863.9603   -42534.778     71.67056   0.99430691 
   20200    226.37041    285.47118    125495.71   -39720.179    2816.4782   -42536.657    72.198753   0.99520126 
   20300    227.93029    381.32053    125534.42   -39748.396    2835.8861   -42584.282    72.244965   0.99489441 
   20400    226.95382    447.73929    125740.82   -39739.991     2823.737   -42563.728    72.337327   0.99326128 
   20500    227.33729    421.91341    125650.42   -39708.917    2828.5081   -42537.425    72.846325   0.99397593 
   20600    228.09892    227.53995    125553.47   -39743.581    2837.9842   -42581.565    73.187816   0.99474342 
   20700    228.71598    357.32612    125236.52   -39666.282    2845.6616   -42511.944    73.441205   0.99726094 
   20800    227.61932    350.75837    125304.29   -39658.369    2832.0171   -42490.386    73.786924   0.99672161 
   20900    228.55144     417.3819    125418.39   -39702.385    2843.6144   -42545.999    74.113904   0.99581483 
   21000     224.4173    560.63794    125460.65    -39789.68    2792.1779   -42581.857    74.613199   0.99547936 
   21100    225.99883    408.13455    125858.97   -39822.124    2811.8551   -42633.979    75.317118   0.99232886 
   21200    226.01761     206.8336    125763.51   -39803.787    2812.0887   -42615.876    75.595765    0.9930821 
   21300    229.07581    383.58499     125602.2   -39813.808    2850.1386   -42663.946    75.786913   0.99435749 
   21400    223.56026    319.29609    125467.79   -39766.886    2781.5146   -42548.401    75.989848   0.99542276 
   21500    227.27112    267.41858    125277.63   -39742.949    2827.6848   -42570.634    76.445031   0.99693367 
   21600    229.94502    547.60668    125540.71   -39696.846    2860.9532     -42557.8    77.074402   0.99484458 
   21700    232.27501    366.49541    125577.49   -39658.393    2889.9428   -42548.336     77.54325   0.99455318 
   21800    229.78952    402.47587    125411.08   -39634.341    2859.0184   -42493.359    77.536144   0.99587286 
   21900    230.09147    549.89872    125563.05   -39657.268    2862.7753   -42520.044    77.951841   0.99466753 
   22000    229.28541    151.58066    125300.03   -39705.968    2852.7464   -42558.714    78.283362   0.99675552 
   22100    232.60814    310.97927    125391.43   -39652.748    2894.0875   -42546.835    78.711925   0.99602895 
   22200    227.76178    169.36695    125332.23   -39700.231    2833.7895    -42534.02    78.879622   0.99649938 
   22300     232.8528    310.13373     125270.2   -39692.993    2897.1315   -42590.124    79.508438   0.99699283 
   22400    229.27583    305.68056    125176.01   -39664.015    2852.6273   -42516.642    79.973339   0.99774306 
   22500    229.83433    498.46928    125424.13    -39665.92     2859.576   -42525.496    80.424831   0.99576923 
   22600    233.70038    286.57532    125484.81   -39630.444    2907.6771   -42538.121    81.214383   0.99528771 
   22700    230.38576    473.34221    125601.55   -39629.638    2866.4369   -42496.075    81.575613   0.99436263 
   22800    234.97952    356.25121    125829.01   -39616.203     2923.592   -42539.795    81.911952   0.99256514 
   22900    232.21131     492.8395    125568.63   -39664.926    2889.1501   -42554.076     82.43955   0.99462331 
   23000    231.23647    322.58882    125733.74   -39655.627    2877.0213   -42532.649    82.916416   0.99331725 
   23100    228.05957    407.80925    125755.14   -39762.208    2837.4946   -42599.702     83.27672   0.99314824 
   23200    226.76821    489.27957    125535.54   -39677.816    2821.4277   -42499.243    83.690958   0.99488549 
   23300    225.73122     242.8347       125319    -39710.82    2808.5255   -42519.346    83.975143   0.99660462 
   23400    230.96693    397.58994     125225.4   -39625.251    2873.6677   -42498.918    84.380144   0.99734947 
   23500    227.95026    339.15586    125234.21   -39664.173    2836.1345   -42500.307    84.798778   0.99727934 
   23600    228.45149    319.58201    125066.24   -39632.172    2842.3709   -42474.543    85.075291   0.99861876 
   23700    225.30719    581.94712    125214.85   -39673.597    2803.2498   -42476.847     85.59271   0.99743351 
   23800    230.72867    404.89125    125295.77   -39738.625    2870.7033   -42609.328    86.083902   0.99678937 
   23900    228.61939    268.65957    125198.75   -39751.184    2844.4598   -42595.644     86.42517   0.99756181 
   24000    229.10159    467.82028    125177.88   -39678.222    2850.4593   -42528.681    86.291972   0.99772812 
   24100    232.02773    375.32349    125126.61   -39675.582    2886.8661   -42562.448    86.528006   0.99813697 
   24200    229.79418    449.42344    124941.22   -39728.549    2859.0765   -42587.626    86.922117   0.99961801 
   24300    224.83114    514.56689    125019.06   -39700.121    2797.3268   -42497.448    86.990394   0.99899561 
   24400    222.77042    499.36906     124992.8   -39736.628    2771.6876   -42508.316      87.1431   0.99920551 
   24500    227.00165    587.85344    125054.78   -39677.355     2824.332   -42501.687    87.741034   0.99871024 
   24600    228.54603    252.30194    125077.78   -39666.506    2843.5471   -42510.053    88.416546   0.99852658 
   24700    229.14897    357.07361    125330.67    -39689.17    2851.0488   -42540.219    88.756533   0.99651181 
   24800    227.55459    256.56358    125148.35    -39690.87    2831.2117   -42522.081    89.094256   0.99796355 
   24900    229.40732    261.21524    125083.88   -39634.974    2854.2632   -42489.237    89.390682   0.99847791 
   25000    230.61865    382.48132    125084.53   -39604.946    2869.3344   -42474.281    89.785848   0.99847276 
   25100    229.76622    409.20703    125251.97   -39599.254    2858.7286   -42457.982    90.388675   0.99713796 
   25200    229.49466    501.49483    125267.21   -39647.827    2855.3499   -42503.177    90.709494   0.99701661 
   25300    226.87008    438.67905    125125.78   -39639.634    2822.6951   -42462.329    90.891387   0.99814354 
   25400    228.95005    500.68824    125140.49   -39636.872    2848.5739   -42485.446    91.108824   0.99802623 
   25500    235.48979     642.0472    125326.61   -39600.052    2929.9407   -42529.992      91.7431   0.99654408 
   25600    225.70261    430.12139    125232.22     -39685.6    2808.1696   -42493.769    92.088401   0.99729521 
   25700    228.99992    301.38176    125320.42   -39706.196    2849.1944    -42555.39    92.794461   0.99659332 
   25800    230.74916    307.28803    125135.52   -39689.397    2870.9583   -42560.355    93.158793   0.99806588 
   25900    228.62875    378.37864    125123.25   -39629.571    2844.5763   -42474.147    93.763093   0.99816372 
   26000    234.49762    310.66515    125349.18   -39559.972    2917.5962   -42477.569    94.798303   0.99636462 
   26100    227.55272    358.88563    125416.71   -39649.019    2831.1885   -42480.208    95.092407   0.99582817 
   26200    229.27717    421.20963    125318.03   -39650.741    2852.6439   -42503.385     95.52879   0.99661228 
   26300    233.01439    376.62523    125496.13    -39624.86    2899.1419   -42524.002    95.864604   0.99519799 
   26400    233.24944    336.85245    125693.53   -39613.731    2902.0664   -42515.797    95.840493     0.993635 
   26500    229.52123    404.72872     125791.3   -39678.572    2855.6804   -42534.252    96.124196    0.9928627 
   26600    229.27172    615.18222    125753.29   -39719.407    2852.5761   -42571.983    96.660321   0.99316279 
   26700    227.90689    318.30694    125603.58   -39763.408     2835.595   -42599.003    96.942359   0.99434659 
   26800    228.82246    368.59093    125739.13   -39690.564    2846.9865    -42537.55    97.276379   0.99327465 
   26900    230.18478    400.06701    125839.68   -39687.287    2863.9362   -42551.223    97.704296   0.99248099 
   27000    227.28976    571.98502    125698.27   -39745.012    2827.9167   -42572.928    98.336685   0.99359754 
   27100    231.18174    310.22705    125771.56   -39766.586    2876.3403   -42642.926    98.459006   0.99301851 
   27200    224.83961    479.84809    125697.74   -39785.742    2797.4323   -42583.174    98.692967   0.99360176 
   27300    221.31969     305.5446    125659.26   -39805.817    2753.6377   -42559.455    98.925058   0.99390596 
   27400    228.89695    575.29512    125490.86   -39746.309    2847.9133   -42594.222    99.333331   0.99523977 
   27500    231.64696    235.54819    125482.17   -39669.773    2882.1286   -42551.901    100.03814   0.99530865 
   27600    228.20428    275.08014    125383.61   -39706.081    2839.2951   -42545.376    100.34801   0.99609108 
   27700     230.3751     306.7878    125300.42   -39704.902    2866.3042   -42571.206    100.66362   0.99675235 
   27800    232.29617     745.7462    125324.29   -39630.624     2890.206    -42520.83    100.97669   0.99656249 
   27900    232.39778    650.83471    125584.28   -39648.511    2891.4701   -42539.981    101.44797   0.99449943 
   28000    231.39312    443.25486    125392.78    -39693.03    2878.9703   -42572.001    101.70663   0.99601822 
   28100     229.8989    212.35293    125458.29   -39667.606    2860.3794   -42527.986    102.14397   0.99549812 
   28200    231.19156    223.82112    125200.38   -39710.477    2876.4626   -42586.939    102.26671    0.9975488 
   28300    228.61059    399.36657    125302.74   -39696.738    2844.3503   -42541.089    102.77784   0.99673393 
   28400    225.21394    608.28748    125498.68   -39741.525    2802.0896   -42543.615    103.41984   0.99517771 
   28500    233.53492    137.65764     125427.9   -39760.437    2905.6184   -42666.055    103.72987   0.99573933 
   28600    229.28029    323.50028     125604.3   -39726.453    2852.6828   -42579.136     104.2089   0.99434085 
   28700    229.00665    411.59381    125724.31   -39739.152    2849.2781    -42588.43    104.24858   0.99339171 
   28800    233.01392    521.30112    125755.29    -39711.04    2899.1362   -42610.176     104.6818   0.99314701 
   28900    230.43288    362.16537    125686.23   -39677.915    2867.0232   -42544.938    105.16678   0.99369275 
   29000    233.50188    257.46362    125762.95   -39745.619    2905.2073   -42650.826    105.50281   0.99308651 
   29100    234.42099     301.7383    125792.91   -39710.375    2916.6428   -42627.018    105.78012      0.99285 
   29200    227.66581     584.9952    125662.75   -39657.013    2832.5955   -42489.609    106.03549   0.99387837 
   29300    230.72773    406.35042    125731.66    -39722.05    2870.6916   -42592.742      106.521   0.99333366 
   29400    225.60687     323.8466    125451.65   -39762.046    2806.9783   -42569.024    106.73907   0.99555079 
   29500    229.05108    207.04829    125301.73   -39789.992    2849.8309   -42639.823    106.63006   0.99674194 
   29600    228.55502    455.17045    125409.04   -39700.356     2843.659   -42544.015     107.1443   0.99588906 
   29700    225.64166    319.25963    125286.66   -39734.673    2807.4113   -42542.084    107.61204   0.99686181 
   29800    230.05769    265.77345    125060.49   -39692.943     2862.355   -42555.298    108.02341   0.99866465 
   29900    225.51455    508.82243    125054.25   -39702.668    2805.8298   -42508.498    108.39293   0.99871446 
   30000    229.61035    246.62527    124961.66   -39672.752    2856.7893   -42529.541    109.00982   0.99945446 
   30100    229.98678    143.59716     124767.8   -39685.843    2861.4728   -42547.316    109.33308    1.0010074 
   30200    228.98807    247.10997    124839.79   -39694.441     2849.047   -42543.488    109.71913    1.0004301 
   30300    231.77614    652.25738    124911.88    -39659.63    2883.7359   -42543.366    110.32829   0.99985281 
   30400    233.11045    670.11307    124959.53    -39650.52    2900.3372   -42550.857    110.56097    0.9994715 
   30500    226.94811    430.63446    124921.24    -39641.45     2823.666   -42465.116    110.73095   0.99977785 
   30600    230.81731    351.65957    124954.78   -39626.264    2871.8062   -42498.071     110.6003   0.99950952 
   30700    228.77429    461.81987    124804.38   -39650.178    2846.3871   -42496.566    110.74735     1.000714 
   30800    234.31393    491.93599    124911.43   -39576.184    2915.3107   -42491.494    111.37184   0.99985641 
   30900    228.32006    665.39286    124868.05   -39682.965    2840.7356     -42523.7    112.06747    1.0002037 
   31000    230.31836    425.08809    124947.81   -39733.981    2865.5983   -42599.579    112.52957   0.99956527 
   31100    225.70812    225.10566    125061.65   -39737.974    2808.2381   -42546.212    113.25606   0.99865539 
   31200    226.11545    335.83194    124985.65   -39748.322    2813.3061   -42561.628    113.68239   0.99926265 
   31300    228.73118    590.20211    125081.24   -39711.657    2845.8508   -42557.508    113.95443   0.99849899 
   31400    228.00769    344.82004    125194.02   -39677.767    2836.8491   -42514.616    114.43694   0.99759952 
   31500     228.4098    531.52932    125330.81   -39733.986    2841.8521   -42575.839    114.85469   0.99651065 
   31600    230.27513    430.78136    125284.66   -39664.359    2865.0604    -42529.42    115.10535   0.99687775 
   31700    230.17762    552.48031    125067.33   -39703.134    2863.8472   -42566.981    115.41829   0.99861001 
   31800    233.54776    392.03128    125263.16   -39617.894    2905.7781   -42523.672    115.99103   0.99704885 
   31900     230.6142    214.15148    125051.93   -39607.227    2869.2791   -42476.506    116.36537   0.99873304 
   32000    232.33306    229.97013    125165.72   -39595.952     2890.665   -42486.617    116.82935   0.99782505 
   32100    232.12359    584.27776    125140.97   -39605.617    2888.0588   -42493.675    117.22119   0.99802236 
   32200    233.67046    442.57795    125166.85   -39603.485    2907.3048    -42510.79    118.01189   0.99781606 
   32300    232.57935    317.61469    125226.19   -39586.457    2893.7293   -42480.187    118.48987   0.99734324 
   32400    228.96829    506.74551    125078.47   -39647.617    2848.8008   -42496.418    118.83987   0.99852106 
   32500    227.00958    310.20129    125424.42   -39657.543    2824.4308   -42481.973    119.19332   0.99576695 
   32600    231.43983    622.15015    125219.53   -39604.991    2879.5515   -42484.542    119.49277   0.99739626 
   32700    226.03643    438.67071     125311.2   -39683.049     2812.323   -42495.372    119.57133   0.99666663 
   32800     227.8103    366.98768    125118.13   -39719.136    2834.3933    -42553.53    119.81847   0.99820457 
   32900    230.03247    556.22701     125239.2    -39710.19    2862.0412   -42572.232    120.21498   0.99723962 
   33000    228.83227    552.78025     125334.1   -39763.132    2847.1084    -42610.24    120.34787   0.99648453 
   33100    235.61664    458.24251    125306.91   -39691.056    2931.5189   -42622.575    121.04189   0.99670077 
   33200    226.80289    415.52752    125449.27   -39720.045    2821.8591   -42541.904    121.63594   0.99556971 
   33300    231.58067    529.11476    125493.81   -39652.284    2881.3039   -42533.587    122.24833   0.99521638 
   33400    231.12786    464.33381    125342.14   -39738.569      2875.67   -42614.239    122.68047   0.99642063 
   33500    228.37029    283.08653    125452.96   -39703.031    2841.3606   -42544.392    123.20386   0.99554044 
   33600    228.06857    309.78166    125359.93   -39675.011    2837.6067   -42512.617    123.74499   0.99627917 
   33700    228.17157    301.79502    125422.15   -39670.431    2838.8881   -42509.319    124.12452     0.995785 
   33800    231.04731    228.47786    125530.56   -39655.441    2874.6678   -42530.109    124.53619   0.99492496 
   33900    227.74593    389.99887    125363.41   -39657.203    2833.5924   -42490.795    125.15764   0.99625156 
   34000    232.56509    404.37732    125420.77   -39611.581    2893.5519   -42505.133    125.71201   0.99579589 
   34100    233.08065    347.00823    125478.26   -39642.772    2899.9664   -42542.738     126.0547   0.99533971 
   34200    230.57627     550.7679    125208.64   -39645.283    2868.8072    -42514.09    126.55247   0.99748303 
   34300    228.61405    423.23416    125200.37   -39707.558    2844.3934   -42551.951    126.97663   0.99754886 
   34400    228.70502     226.3707    125325.93   -39643.739    2845.5253   -42489.264    127.72008   0.99654946 
   34500    230.68142    591.12473    125353.17   -39665.253    2870.1155   -42535.369    127.95881   0.99633294 
   34600    234.13347    323.27386    125405.09   -39658.939    2913.0654   -42572.004    128.32555   0.99592043 
   34700    230.38258    252.62977    125336.69   -39743.132    2866.3973   -42609.529    128.31947   0.99646392 
   34800    230.11038    244.11908    125227.39   -39735.606    2863.0105   -42598.616    128.24849   0.99733367 
   34900    227.75112    604.44812    125286.18   -39745.119    2833.6569   -42578.775    128.36542   0.99686567 
   35000    223.61024    478.85436    125273.14   -39833.816    2782.1365   -42615.952    128.71338   0.99696941 
   35100    230.16904    204.10453    125266.09   -39780.695    2863.7405   -42644.435    129.44198   0.99702556 
   35200     225.3766    505.04535    125280.29    -39777.78    2804.1134   -42581.894    130.05778   0.99691256 
   35300    224.70248    414.03308    125009.64   -39770.975    2795.7261   -42566.701    129.95406    0.9990709 
   35400    224.21312    394.15714    125076.66   -39803.012    2789.6374   -42592.649    130.32385   0.99853555 
   35500    230.67537    523.14118    125068.78   -39686.349    2870.0401    -42556.39    130.90139   0.99859849 
   35600    231.69412    314.48812    125183.51   -39735.664    2882.7154    -42618.38     131.7008   0.99768327 
   35700    232.20924    309.31201    125109.06   -39696.429    2889.1245   -42585.554    132.38965   0.99827695 
   35800    227.35216    337.84437    125128.08   -39725.198     2828.693   -42553.891    132.67367   0.99812524 
   35900    230.22026    441.94714    124922.69   -39674.984    2864.3777   -42539.362    132.66259   0.99976626 
   36000     231.8304     423.6036    124881.24   -39631.355     2884.411   -42515.766    132.46327    1.0000981 
   36100    229.57775    446.04359    124761.07   -39643.066    2856.3836   -42499.449    132.34129    1.0010614 
   36200    229.51311    325.37254    124450.78   -39669.643    2855.5794   -42525.222    132.50668    1.0035573 
   36300     225.7735    279.22891     124377.7   -39714.457    2809.0516   -42523.509    132.73365     1.004147 
   36400    228.81877    291.76304    124413.44   -39640.209    2846.9406    -42487.15    133.46081    1.0038586 
   36500    230.34098    461.51732    124267.74   -39618.431    2865.8796   -42484.311    133.78263    1.0050355 
   36600    225.66414    299.92216    124546.87   -39729.386    2807.6909   -42537.077    134.58518    1.0027831 
   36700    230.76871    285.53335    124479.94   -39647.245    2871.2014   -42518.447    134.63593    1.0033222 
   36800    229.93107    197.70472    124319.82   -39632.797    2860.7797   -42493.577    134.60542    1.0046145 
   36900    226.35859    288.48378    124306.98   -39655.995    2816.3312   -42472.326    135.21028    1.0047182 
   37000     232.3697    597.97764    124458.46   -39593.161    2891.1208   -42484.281    135.72257    1.0034954 
   37100    230.92022    393.00965    124735.42   -39580.692    2873.0865   -42453.778    136.44744    1.0012673 
   37200    231.88892    471.97297    124987.11   -39653.217     2885.139   -42538.356    137.16374   0.99925097 
   37300    226.24608    442.43263     125152.5   -39684.656    2814.9314   -42499.588    137.59059   0.99793048 
   37400    225.38699    390.05114    125293.45   -39728.633    2804.2426   -42532.876    138.31472    0.9968078 
   37500    230.47016    386.21833    125240.12   -39750.673    2867.4869    -42618.16    138.70555   0.99723232 
   37600    229.99706    458.24457    125370.88   -39710.331    2861.6007   -42571.932    138.78281   0.99619221 
   37700     229.9293     316.9674    125396.69   -39742.261    2860.7576   -42603.018    139.24654   0.99598716 
   37800    224.54617    318.72294    125437.23   -39838.671    2793.7812   -42632.453    139.56156   0.99566524 
   37900    226.41976    535.81826    125447.08   -39784.468    2817.0923    -42601.56    139.88944   0.99558705 
   38000    229.80804    409.24878    125280.84    -39767.81    2859.2489   -42627.059    139.72862   0.99690814 
   38100    232.54505    347.24844    125376.01   -39730.947    2893.3025   -42624.249    139.94333   0.99615146 
   38200     229.8785    494.46615    125650.49    -39736.35    2860.1256   -42596.476    140.57839   0.99397533 
   38300     233.5963    398.15915    125731.43   -39695.644     2906.382   -42602.026    141.10278   0.99333551 
   38400    228.24462     419.8956    125827.85   -39756.693     2839.797    -42596.49    141.65461   0.99257428 
   38500    225.20436    360.49012    125544.95   -39773.079    2801.9704   -42575.049    142.25455   0.99481092 
   38600    230.90114    326.60208    125362.16   -39728.812    2872.8491   -42601.661    142.71403    0.9962615 
   38700    224.67772    287.82833    125441.85   -39732.675    2795.4179   -42528.093    143.21797   0.99562861 
   38800      229.383    560.66402    125600.07   -39742.079    2853.9607    -42596.04    143.36993   0.99437439 
   38900    228.17637    264.01715    125449.07    -39691.15    2838.9479   -42530.098    143.68266   0.99557132 
   39000    230.62111    219.57646    125190.01   -39719.988    2869.3651   -42589.353    143.89754   0.99763149 
   39100    229.85867     570.5773     125036.8   -39661.985    2859.8788   -42521.864    144.21487   0.99885389 
   39200    230.90339    506.05558    125058.62   -39687.656    2872.8771   -42560.533    144.49807   0.99867959 
   39300    226.16393     370.2372    125174.59   -39673.475    2813.9093   -42487.384    144.97346   0.99775436 
   39400    232.68325    365.75939    125095.42   -39623.464     2895.022   -42518.486    145.05864   0.99838579 
   39500    231.95734    507.74288    125016.39   -39597.622    2885.9903   -42483.612    145.16676    0.9990169 
   39600    234.04901    521.41799    125122.51   -39645.837    2912.0146   -42557.852    145.32847   0.99816967 
   39700    231.11466    304.43275     125024.5   -39587.069    2875.5057   -42462.575    145.84339   0.99895215 
   39800    230.49923    654.06603    124945.18   -39638.142    2867.8487   -42505.991    146.21528   0.99958631 
   39900    228.00308    360.60029    124836.08   -39687.385    2836.7918   -42524.176    146.76803    1.0004599 
   40000     223.4621    78.537381    124608.57   -39704.318    2780.2934   -42484.611    146.97393    1.0022865 
   40100    231.74064    318.66984    124654.95   -39584.281    2883.2941   -42467.575    147.15954    1.0019136 
   40200    231.83987    430.91305    124781.27   -39600.793    2884.5288   -42485.321    147.92949    1.0008993 
   40300    229.68108    373.86613    124676.49   -39580.517    2857.6693   -42438.186    148.55713    1.0017406 
   40400    234.41041    423.84917    124947.72    -39490.31    2916.5111   -42406.821    149.09073   0.99956599 
   40500    230.37587    420.45943     124951.8   -39492.746    2866.3138    -42359.06    149.61687   0.99953331 
   40600    234.31058    274.79876    124929.13   -39529.183     2915.269   -42444.452    150.12795   0.99971476 
   40700    231.97268    409.99362     125011.2   -39581.128    2886.1812   -42467.309     150.7107   0.99905844 
   40800    228.01903    386.35881    125034.93   -39646.383    2836.9902   -42483.373    151.03641   0.99886883 
   40900    225.84927    408.84329    125016.18   -39686.685    2809.9943   -42496.679    151.48525   0.99901862 
   41000    231.15629    353.32975     124934.1   -39607.269    2876.0237   -42483.293    152.14113   0.99967497 
   41100     232.5772    281.19681    125101.26   -39600.343    2893.7026   -42494.045    152.59726    0.9983392 
   41200    227.56361    484.24167    124942.46    -39619.39    2831.3239   -42450.714    152.85582   0.99960804 
   41300    227.36578    447.43566    124832.81   -39772.715    2828.8626   -42601.578    153.22545    1.0004861 
   41400    223.94346    483.77602    124883.09   -39727.362    2786.2824   -42513.645    153.71124    1.0000833 
   41500    227.86323    515.61874    125025.16   -39721.456    2835.0518   -42556.507    154.06197   0.99894683 
   41600    224.97949    435.97248    125157.25   -39681.918    2799.1726    -42481.09    154.37339   0.99789261 
   41700    225.99764    298.42175    124938.53   -39643.687    2811.8403   -42455.527    154.24845   0.99963951 
   41800    227.21419     381.9414    124885.91   -39648.192    2826.9764   -42475.168    154.78712    1.0000607 
   41900    230.83874    235.53391    125054.83    -39625.48    2872.0728   -42497.553    155.31616   0.99870989 
   42000    232.48544    379.17921    124907.54   -39602.793    2892.5609   -42495.354    155.52725   0.99988753 
   42100    227.55693    729.73481    124874.78   -39599.092    2831.2409   -42430.332    156.14117    1.0001499 
   42200    230.38121    450.12608    124829.26   -39557.918    2866.3803   -42424.298    156.76441    1.0005146 
   42300    230.57352    600.95271    124804.24   -39522.117    2868.7729    -42390.89    157.22997    1.0007151 
   42400    228.72707    420.31516    124793.62   -39560.468    2845.7996   -42406.268    157.58434    1.0008003 
   42500    233.07674    432.24306    124621.06   -39565.901    2899.9178   -42465.819    157.55227    1.0021861 
   42600    229.08726    399.93138    124848.32   -39593.846     2850.281   -42444.127    158.13102    1.0003618 
   42700    230.75761    402.91235    124800.36   -39607.799    2871.0634   -42478.862    158.69972    1.0007462 
   42800    229.73737    418.27295    124815.26   -39556.002    2858.3697   -42414.372    159.32135    1.0006268 
   42900    228.65047    433.90811     124718.4    -39642.02    2844.8465   -42486.866    160.03255    1.0014039 
   43000     234.2156    505.39938    124775.01    -39663.16    2914.0873   -42577.248    160.20303    1.0009496 
   43100    228.56704    441.52542    124690.72   -39637.485    2843.8085   -42481.294    160.99966    1.0016262 
   43200    233.84777    373.65505     124611.5   -39599.274    2909.5108   -42508.785    161.29634    1.0022629 
   43300    233.62861    491.71501    124705.31   -39618.119     2906.784   -42524.904    161.27001     1.001509 
   43400     231.9142    646.76891    124810.85     -39564.5    2885.4535   -42449.953     161.1674    1.0006621 
   43500    232.14929    401.29602    124891.28   -39570.749    2888.3786   -42459.128    161.50759    1.0000177 
   43600    233.89403    294.96449    124886.48   -39452.421    2910.0864   -42362.508     161.6795    1.0000561 
   43700    233.33888    355.81664    124766.01   -39483.051    2903.1793    -42386.23    161.95194    1.0010218 
   43800    231.34292    359.71077    124867.57   -39482.595    2878.3458    -42360.94    162.27692    1.0002076 
   43900    228.85445    547.60935    124564.78   -39513.722    2847.3844   -42361.106    162.45432    1.0026388 
   44000    228.12244    395.15804    124483.95   -39539.167    2838.2768   -42377.444    163.06408    1.0032899 
   44100    231.32711    167.50677    124616.14   -39561.178     2878.149   -42439.327    163.71988    1.0022256 
   44200     231.9026    380.86561     124622.5   -39596.674    2885.3092   -42481.983     164.4698    1.0021745 
   44300    224.39861     203.5049    124654.45   -39604.505    2791.9453    -42396.45     164.6866    1.0019176 
   44400    229.51517    613.22248     124666.7    -39570.76     2855.605   -42426.365     165.0003    1.0018192 
   44500     229.4083    435.15608    124379.28   -39603.198    2854.2754   -42457.473    164.83502    1.0041342 
   44600    224.04415    449.34432    124346.21   -39669.522    2787.5352   -42457.057     165.0281    1.0044013 
   44700     228.9135    389.80714    124405.48   -39647.987    2848.1191   -42496.106    165.70445    1.0039227 
   44800    232.30087    469.07382    124462.86   -39628.553    2890.2644   -42518.818    166.08455      1.00346 
   44900    233.45345    548.13864    124609.06   -39596.296    2904.6048   -42500.901    166.49568    1.0022826 
   45000     234.6191    418.70549    124569.72   -39594.058    2919.1076   -42513.166    167.18792    1.0025991 
   45100    238.52696    525.97065    124580.54   -39529.578    2967.7289   -42497.307    167.75967     1.002512 
   45200    229.77438    496.54204    124788.12   -39589.814    2858.8301   -42448.644    168.08768    1.0008444 
   45300    227.75462    297.37248    124806.18   -39605.771    2833.7004   -42439.472    168.79398    1.0006996 
   45400     233.2905    390.63658     124880.1   -39588.529    2902.5774   -42491.106      169.494    1.0001072 
   45500    231.49854    254.68453    124958.96   -39602.149     2880.282   -42482.431    170.07767   0.99947607 
   45600    232.38228    514.18074    124880.58   -39607.247    2891.2773   -42498.524    170.42761    1.0001034 
   45700    232.45454    443.83887    124860.73   -39627.794    2892.1764    -42519.97    170.34452    1.0002624 
   45800    234.19478    603.04247    124725.04   -39571.334    2913.8283   -42485.162    170.40135    1.0013506 
   45900    233.67418    372.85837     124931.7   -39512.341    2907.3511   -42419.692    171.33329   0.99969417 
   46000    231.41054    440.90956    125035.67   -39489.486    2879.1871   -42368.673    172.44009   0.99886291 
   46100    231.32925    552.90203    125122.59   -39423.362    2878.1757   -42301.537     172.7373     0.998169 
   46200     239.5949    266.11102       124926   -39398.262     2981.016   -42379.278    173.42217   0.99973978 
   46300    235.18418      518.407    124878.43   -39431.686    2926.1383   -42357.825    173.76056    1.0001206 
   46400    228.74322    368.12714    124654.15   -39465.069    2846.0005    -42311.07    174.02321      1.00192 
   46500    234.03724    477.27657    124325.04   -39460.374    2911.8682   -42372.242    174.42624    1.0045723 
   46600      233.866    543.62093    124562.78   -39449.377    2909.7377   -42359.115    174.85038     1.002655 
   46700    228.91953    403.64047    124731.98   -39543.264    2848.1942   -42391.459    175.19503    1.0012948 
   46800    229.43244    490.22571    124903.07   -39601.559    2854.5758   -42456.135    175.49475   0.99992328 
   46900    234.27029    467.93872    124648.27   -39541.093    2914.7677   -42455.861    175.94242    1.0019673 
   47000    230.72231    488.68847    124435.11   -39533.255    2870.6242   -42403.879    176.27593    1.0036837 
   47100    234.60933    265.02201    124381.77   -39527.649    2918.9861   -42446.635    176.34422    1.0041141 
   47200    227.57276    307.72867     124332.6   -39575.488    2831.4378   -42406.926    177.00225    1.0045112 
   47300    228.22533    435.39157    124279.83   -39583.239     2839.557   -42422.796    177.79568    1.0049377 
   47400    232.54235    546.94884    124304.27   -39533.858    2893.2689   -42427.127     178.0826    1.0047401 
   47500    237.82755    405.61543    124413.83   -39481.614    2959.0268   -42440.641    178.69618    1.0038554 
   47600    232.15004    551.32689    124359.74   -39455.296    2888.3878   -42343.684    179.11512     1.004292 
   47700    234.90425     387.9154    124313.52   -39516.309    2922.6555   -42438.965    179.94051    1.0046654 
   47800    232.70598     536.5415    124285.15   -39517.459    2895.3048   -42412.764    180.10815    1.0048947 
   47900    229.92934     241.6777    124391.56   -39608.798    2860.7581   -42469.556    180.64683    1.0040351 
   48000     229.0513    446.36883    124240.29   -39629.919    2849.8337   -42479.753    180.77489    1.0052576 
   48100    232.39987    486.28641    124109.84   -39597.982    2891.4963   -42489.478    181.11989    1.0063142 
   48200    225.89143    634.91653    124016.64    -39624.79    2810.5189   -42435.309    181.20723    1.0070704 
   48300    229.51396     296.8712    124163.07    -39595.02      2855.59    -42450.61    181.83072    1.0058828 
   48400    235.10416    376.47638    124208.63   -39510.264    2925.1427   -42435.406    182.32934    1.0055138 
   48500    229.67054    485.95911    124092.33   -39574.196    2857.5382   -42431.734    182.73817    1.0064562 
   48600     235.4497    453.55387    124508.61   -39579.586    2929.4419   -42509.028    183.55394    1.0030912 
   48700     232.4265    485.45621    124505.87   -39540.026    2891.8276   -42431.854    184.33013    1.0031133 
   48800    233.34536    315.79231    124585.27   -39567.012    2903.2599   -42470.272     184.7546     1.002474 
   48900    233.01371    406.85686    124714.86   -39568.539    2899.1336   -42467.673    185.00288    1.0014323 
   49000     232.2091    626.22721    124606.88   -39605.705    2889.1227   -42494.828    185.34832    1.0023001 
   49100    226.27324      459.577    124651.19   -39610.807    2815.2692   -42426.076    186.05134    1.0019438 
   49200    227.27111     406.4195    124677.64   -39632.601    2827.6846   -42460.286    186.65942    1.0017313 
   49300    230.70464     484.8485    124932.52   -39593.483    2870.4044   -42463.887     187.2961   0.99968764 
   49400    232.93705    71.160222    124763.87   -39563.576    2898.1798   -42461.755    187.63103    1.0010389 
   49500    230.10696    434.15495    124807.39   -39577.461     2862.968   -42440.429    188.03974    1.0006899 
   49600    229.15157    191.45334    124724.95    -39582.68    2851.0811   -42433.761    188.72357    1.0013513 
   49700    229.12307    456.84657    124653.97   -39594.177    2850.7266   -42444.903     188.6121    1.0019215 
   49800    227.87061    499.11956    124735.49    -39629.28    2835.1437   -42464.423    189.39801    1.0012667 
   49900    234.81349    413.69664    124689.91   -39511.286    2921.5263   -42432.812    189.10171    1.0016327 
   50000    231.73935    446.01874    124929.01   -39560.167    2883.2781   -42443.445     190.1223   0.99971566 
   50100    233.83347    459.12536    124911.48   -39576.638    2909.3329   -42485.971    190.29092   0.99985596 
   50200    228.02992    426.84335    124977.06    -39613.09    2837.1257   -42450.215    190.86386   0.99933135 
   50300    225.69578    457.86835    125090.72   -39584.919    2808.0846   -42393.004     191.5486   0.99842329 
   50400    228.48472    182.97432    124949.77   -39584.226    2842.7843    -42427.01     192.0082   0.99954963 
   50500    227.49403    378.70617    124817.92    -39625.21    2830.4582   -42455.668    192.09797    1.0006055 
   50600    227.02747    327.86274    124728.84   -39634.045    2824.6533   -42458.699    192.27307      1.00132 
   50700    226.47664    289.53683    124561.12   -39639.707       2817.8   -42457.507    192.35109    1.0026683 
   50800     224.1366    205.96878    124466.35   -39640.979    2788.6854   -42429.664    192.55754    1.0034318 
   50900     227.0003    403.94463    124718.68   -39555.079    2824.3153   -42379.394    193.24146    1.0014016 
   51000    228.17663    494.33316    124744.13    -39594.02    2838.9511   -42432.971    193.43846    1.0011973 
   51100    225.87872    351.08325    124608.62   -39601.018    2810.3607   -42411.378    193.21709    1.0022861 
   51200    225.07401    396.59932    124716.99   -39592.627    2800.3486   -42392.976     194.0871    1.0014152 
   51300    228.48971    464.79262    124767.56    -39669.37    2842.8463   -42512.216    195.00091    1.0010093 
   51400    226.39317    343.46553    124566.32     -39669.9    2816.7615   -42486.661    194.97705    1.0026265 
   51500    225.28856    376.56774    124425.93   -39667.163     2803.018   -42470.181    195.19468    1.0037577 
   51600    226.14229    544.41572    124184.17   -39617.026    2813.6401   -42430.666    195.51752    1.0057119 
   51700    226.80426    415.30101     124226.2   -39595.738    2821.8762   -42417.614    196.04389    1.0053716 
   51800     228.3213    275.05184    124397.06   -39621.469     2840.751    -42462.22    196.73993    1.0039907 
   51900      226.015    190.95702    124445.14   -39666.377    2812.0563   -42478.433    197.50877    1.0036028 
   52000    226.37083    410.33804    124565.14    -39696.22    2816.4835   -42512.703    198.11056     1.002636 
   52100    232.11342    408.28428    124525.35   -39646.706    2887.9322   -42534.639    198.49587    1.0029563 
   52200    227.16028    359.03433    124540.55   -39687.709    2826.3058   -42514.015     199.1024     1.002834 
   52300    231.20372    599.21501    124753.91   -39672.794    2876.6138   -42549.408    199.70127    1.0011189 
   52400    226.76307    133.89946    124902.32    -39632.43    2821.3638   -42453.794    199.76848   0.99992934 
   52500    230.94266    254.16551    124747.73   -39633.656    2873.3658   -42507.021    200.08655    1.0011684 
   52600     227.9835    491.25915     124751.2   -39656.723    2836.5482   -42493.271    200.36082    1.0011406 
   52700    230.63065    295.63978    124839.62    -39682.59    2869.4837   -42552.074     200.3579    1.0004315 
   52800    228.29889    407.12171    124865.91   -39635.499    2840.4723   -42475.971    200.92278    1.0002209 
   52900    231.18411    373.28808    124841.84   -39626.456    2876.3699   -42502.826    201.46731    1.0004138 
   53000    230.96663    138.94199    125054.43   -39599.129     2873.664   -42472.792    202.02184   0.99871303 
   53100    231.39853    373.46237    124718.44   -39652.229    2879.0376   -42531.267    201.79861    1.0014036 
   53200    228.34397    425.30193    124870.38   -39641.307    2841.0331    -42482.34    202.53885    1.0001851 
   53300    228.29647    443.40185     124976.9   -39624.854    2840.4421   -42465.296    203.26488   0.99933263 
   53400    226.67413    414.68733    125150.54   -39708.058    2820.2571   -42528.315    203.54934   0.99794611 
   53500    226.93745    415.48567    125159.95    -39710.21    2823.5333   -42533.743    204.37467   0.99787107 
   53600    227.20773    392.67648    125102.57   -39726.436    2826.8961   -42553.332    204.47014   0.99832873 
   53700    225.84145    270.24257    125273.72   -39763.086     2809.897   -42572.983    204.81394   0.99696483 
   53800    231.32445    363.31134    125186.78   -39653.919     2878.116   -42532.035    204.76618   0.99765716 
   53900    230.39165    306.31293    125343.63   -39713.049    2866.5101    -42579.56    205.42423   0.99640879 
   54000    232.70467    330.66742     125247.4   -39685.628    2895.2885   -42580.917    205.56906   0.99717435 
   54100     224.9695    478.70774    125228.06   -39696.858    2799.0483   -42495.906    205.95329   0.99732832 
   54200    227.15889    415.61218    125265.57   -39663.405    2826.2885   -42489.694     206.5274   0.99702969 
   54300    233.44293    115.12174    125053.12   -39625.116    2904.4739    -42529.59    206.06996   0.99872352 
   54400    230.28986    434.79182    124982.46   -39661.892    2865.2437   -42527.136    206.34754   0.99928813 
   54500    229.21262    312.00403    124951.02   -39641.735    2851.8408   -42493.576    206.50439   0.99953961 
   54600    231.18558    511.94889    125152.09   -39536.764    2876.3881   -42413.152    207.07316   0.99793374 
   54700    234.77458    454.98833    125172.53   -39552.726    2921.0421   -42473.769     207.1993   0.99777074 
   54800    231.21892    476.06643    125342.83   -39627.265    2876.8029   -42504.068     207.8786   0.99641512 
   54900    226.95389    285.43113    125223.36   -39695.574    2823.7379   -42519.312    208.07153   0.99736576 
   55000    224.03575     370.3571     125173.8   -39770.283    2787.4306   -42557.714    208.49306   0.99776062 
   55100    227.18167    552.08833     125193.5   -39731.954    2826.5719   -42558.526    208.63384   0.99760364 
   55200    227.25184    549.08548    125196.89   -39724.286    2827.4449   -42551.731    209.25317   0.99757662 
   55300    229.37471      428.777    125224.61   -39670.729    2853.8575   -42524.587    209.38211   0.99735582 
   55400    225.91575    266.33648    125210.18   -39641.386    2810.8214   -42452.207    209.52524   0.99747071 
   55500    232.06342    501.00163    124991.76   -39601.445    2887.3102   -42488.755    209.70434   0.99921378 
   55600    231.09188    538.28124    124983.83   -39631.048    2875.2223    -42506.27    210.58749   0.99927721 
   55700    232.42297    382.06333    124932.46   -39640.921    2891.7837   -42532.704     210.3281   0.99968806 
   55800    229.76224    338.23169    124830.05    -39645.03    2858.6791   -42503.709    210.56185    1.0005082 
   55900    229.97165    384.12067    124775.19   -39595.636    2861.2845   -42456.921    211.10302    1.0009481 
   56000    234.52147    465.71668    125009.14   -39579.256     2917.893   -42497.149    211.93227   0.99907491 
   56100    233.14164    271.71622    125224.18   -39559.582    2900.7253   -42460.308    212.80369    0.9973592 
   56200    231.64843    412.65419    125235.74   -39540.601    2882.1469   -42422.748    213.17013   0.99726717 
   56300    230.02834    336.77565    125021.74    -39560.73    2861.9899    -42422.72    212.90064   0.99897418 
   56400    234.53805    494.38977    125143.55    -39540.87    2918.0992    -42458.97    213.23494   0.99800181 
   56500    224.99973    315.78211    125167.91   -39637.477    2799.4243   -42436.902    213.44877   0.99780757 
   56600    226.73754    322.56777    124980.39   -39670.155     2821.046   -42491.201    213.35665   0.99930471 
   56700    225.05852    416.01738    124931.74   -39676.142    2800.1559   -42476.298    213.91998   0.99969383 
   56800    232.00651    414.12541    124943.05   -39596.059     2886.602   -42482.661    214.18734   0.99960334 
   56900    229.14762    407.85818    124926.05   -39607.894    2851.0321   -42458.926    214.61294    0.9997394 
   57000    232.62242    272.46506    124631.18   -39539.911    2894.2651   -42434.176    214.77963    1.0021047 
   57100    229.91435    493.14336    124890.12   -39591.211    2860.5716   -42451.783    215.65382     1.000027 
   57200    228.87437    441.42823    124688.13   -39622.713    2847.6323   -42470.345    215.75426     1.001647 
   57300    227.39661    283.40278    124530.95   -39673.823    2829.2461   -42503.069    215.94772    1.0029113 
   57400    230.85898    600.97424    124704.44   -39692.207    2872.3246   -42564.531    216.23807     1.001516 
   57500    224.53618     450.6565    124763.26   -39735.348    2793.6569   -42529.004    216.41705    1.0010439 
   57600    228.86845    268.58354    124848.72   -39684.587    2847.5587   -42532.146    216.43522    1.0003586 
   57700    225.60551    263.86316    124694.85   -39714.345    2806.9614   -42521.306    216.44748     1.001593 
   57800    224.95657    527.70829    124745.73   -39748.945    2798.8874   -42547.833    216.71662    1.0011845 
   57900    226.85301    176.75093    124754.79   -39724.699    2822.4827   -42547.182    216.99667    1.0011118 
   58000    228.04857    418.81427    124859.43   -39729.212    2837.3578    -42566.57    217.72266    1.0002728 
   58100    228.45814     308.7662    124784.07   -39665.787    2842.4536   -42508.241    217.95397    1.0008769 
   58200    228.77527    455.76348    124898.94   -39625.788    2846.3993   -42472.188    218.35952   0.99995636 
   58300    240.11742    301.43853    124730.96   -39572.476    2987.5172   -42559.993    218.86139     1.001303 
   58400    233.73389    501.30968    124966.07   -39598.651     2908.094   -42506.745    219.60969    0.9994192 
   58500    231.48143    330.26395    125098.91   -39618.664    2880.0691   -42498.733    220.30651   0.99835792 
   58600    227.92297    422.32463    125488.73   -39581.667    2835.7951   -42417.463      221.169   0.99525661 
   58700    234.74374    303.54839     125419.3   -39579.639    2920.6584   -42500.297    221.42898   0.99580759 
   58800    227.07745    443.87494    125190.44   -39627.094    2825.2752    -42452.37    221.36142   0.99762804 
   58900    231.05004    152.25926    125072.75   -39679.923    2874.7017   -42554.625    221.70546   0.99856679 
   59000    228.78749    680.22988    125251.17    -39669.23    2846.5513   -42515.782    222.22821    0.9971443 
   59100    232.80394    262.11256    125532.53   -39670.685    2896.5236   -42567.208    222.62544   0.99490938 
   59200    230.88501    488.06022    125394.92   -39707.672    2872.6485   -42580.321    222.39815   0.99600117 
   59300    227.26231    308.60756    125201.98   -39703.806    2827.5752   -42531.381    222.75713   0.99753611 
   59400    225.25247    509.37951    125119.59   -39747.085     2802.569   -42549.654    222.54125   0.99819292 
   59500    229.79765     540.5646    125430.19     -39684.1    2859.1197    -42543.22    223.56045   0.99572113 
   59600    230.22098    340.58041    125174.69    -39673.01    2864.3867   -42537.396    223.27054   0.99775357 
   59700    229.31976    555.77082    125226.65   -39694.177    2853.1737   -42547.351    223.63877   0.99733957 
   59800    227.35413    311.68697    125261.08   -39669.512    2828.7176   -42498.229    224.50999   0.99706542 
   59900    226.46076    515.37202    125170.88   -39635.168    2817.6024   -42452.771    224.70819   0.99778391 
   60000    230.34834    651.52021    125405.14   -39687.707    2865.9713   -42553.679    225.43804      0.99592 
   60100    232.09279    432.58004    125479.82   -39647.205    2887.6755    -42534.88    225.98555   0.99532731 
   60200    231.34793    244.02452    125392.07   -39637.349    2878.4081   -42515.757    226.66583   0.99602387 
   60300    230.57189    394.28785    125324.72   -39584.931    2868.7527   -42453.683    227.49626   0.99655912 
   60400    233.76722    418.79357    125404.15   -39532.385    2908.5087   -42440.894    227.94854   0.99592787 
   60500    232.14911    362.26833    125638.22    -39574.67    2888.3763   -42463.046    228.85779   0.99407241 
   60600    233.52896    410.97393    125545.99   -39642.932    2905.5442   -42548.476    229.21459   0.99480268 
   60700    227.91843    177.52107    125489.92   -39667.064    2835.7385   -42502.802    229.27978   0.99524722 
   60800    228.65725     505.5325    125435.04   -39616.741    2844.9309   -42461.671    229.99432   0.99568262 
   60900    233.36316    454.37904    125369.68   -39608.029    2903.4814    -42511.51    230.29234    0.9962017 
   61000    233.36839    172.78012    125480.23   -39649.315    2903.5465   -42552.861    230.47771   0.99532405 
   61100     230.1187    478.16784    125234.86   -39704.029    2863.1141   -42567.143    230.39435   0.99727416 
   61200     223.2791    486.76773    125532.29   -39695.189    2778.0165   -42473.206    230.89534   0.99491129 
   61300    230.68365    429.15852    125558.44   -39679.623    2870.1432   -42549.766     231.4364   0.99470409 
   61400    228.87597    233.86341    125508.62   -39731.485    2847.6523   -42579.137    231.77378   0.99509892 
   61500    227.93472    352.35636    125539.91    -39724.28    2835.9413   -42560.221    232.00531    0.9948509 
   61600    229.55066    430.15361    125442.84   -39691.757    2856.0466   -42547.803    232.23583   0.99562069 
   61700    222.86273    382.56666    125446.08   -39742.147     2772.836   -42514.983    232.26392   0.99559498 
   61800    221.08713    364.58293    125319.79   -39811.003    2750.7443   -42561.748    232.31615   0.99659834 
   61900    229.41866    589.26119    125259.26   -39751.837    2854.4043   -42606.241    232.82034   0.99707995 
   62000    231.67431    376.67357    125569.74   -39709.322    2882.4689   -42591.791    233.76544   0.99461459 
   62100    232.30325    391.95604     125497.5   -39731.767     2890.294   -42622.061     234.1408   0.99518711 
   62200    232.70605    399.97741    125574.77   -39691.263    2895.3056   -42586.568    234.37558   0.99457468 
   62300    226.62922    274.11342    125358.88   -39712.073    2819.6983   -42531.771    234.31644   0.99628754 
   62400    228.20605    410.33585    125152.24   -39650.302    2839.3171    -42489.62       234.62   0.99793252 
   62500    229.57649    404.38938    125280.88   -39658.643     2856.368   -42515.011     234.8397   0.99690781 
   62600    229.17686    334.50797    125225.46   -39654.068    2851.3958   -42505.464    235.41512   0.99734902 
   62700     229.3184    555.75831    125571.54   -39676.566    2853.1569   -42529.722    236.63196    0.9946003 
   62800    226.42571    507.82828    125436.94   -39667.519    2817.1663   -42484.686    236.68894   0.99566755 
   62900    230.16833      175.006    125463.52   -39630.416    2863.7316   -42494.148    237.32974   0.99545662 
   63000    231.04594    497.02883    125131.21   -39587.212    2874.6507   -42461.863    237.45948   0.99810023 
   63100    229.67644    385.00364    125035.48   -39551.116    2857.6115   -42408.727    237.59766   0.99886441 
   63200    230.28354    422.42191    124766.39   -39573.961    2865.1651   -42439.126    237.69689    1.0010187 
   63300    233.11425    331.11433    124824.12   -39625.837    2900.3845   -42526.221    238.27239    1.0005557 
   63400    232.38803    313.70818    124635.22   -39548.384    2891.3489   -42439.733    238.24939    1.0020722 
   63500    228.66378      426.964    124475.83   -39633.778    2845.0121    -42478.79    239.05669    1.0033553 
   63600    229.45155    549.83783    124704.77   -39623.726    2854.8135    -42478.54    240.04528    1.0015133 
   63700    228.86197     226.2977    124942.08   -39639.358     2847.478   -42486.836    241.07338   0.99961113 
   63800     226.4443    579.61478    125046.47   -39754.916    2817.3976   -42572.313    241.45627   0.99877659 
   63900    227.86225    213.41352    124865.29   -39748.973    2835.0396   -42584.013     241.8972    1.0002258 
   64000    227.32151    465.92641    124895.44   -39747.355    2828.3117   -42575.667     242.3874    0.9999844 
   64100    232.16058    318.41692    124937.81   -39674.231     2888.519    -42562.75    242.76764   0.99964531 
   64200     226.6433    301.83782    124819.66   -39670.504    2819.8736   -42490.378    242.78869    1.0005915 
   64300    232.71342    471.99244    124718.88   -39563.197    2895.3973   -42458.595    242.47101    1.0014001 
   64400    236.52223    526.39024     124873.7   -39580.202    2942.7862   -42522.989    243.08444    1.0001585 
   64500    233.54368    383.67174    125090.01   -39563.488    2905.7274   -42469.215    244.14135   0.99842899 
   64600    232.22177    277.27412    124951.79   -39607.688    2889.2803   -42496.969    244.30112   0.99953347 
   64700    232.69708    492.36907    124878.16   -39638.307     2895.194   -42533.502    244.46202    1.0001228 
   64800    228.78658    388.35664    124646.19   -39661.428    2846.5401   -42507.968    244.27465     1.001984 
   64900    228.13838    509.99364    124603.67   -39639.628    2838.4752   -42478.103    244.52591    1.0023259 
   65000    226.36161     403.5772     124647.5   -39595.248    2816.3688   -42411.617    244.89309    1.0019735 
   65100    229.26882    389.87542    124965.51   -39599.877    2852.5401   -42452.417    245.47056   0.99942371 
   65200    230.83224    285.54825    124783.54    -39581.42     2871.992   -42453.412    244.93255    1.0008812 
   65300    226.79689    425.52049    124830.74   -39566.022    2821.7844   -42387.807    245.97723    1.0005027 
   65400    233.26036    595.02357    124966.59   -39495.574    2902.2023   -42397.776    246.88904   0.99941506 
   65500    227.57069    292.83909    124883.53   -39568.528    2831.4121    -42399.94    247.67103    1.0000797 
   65600    227.45295    413.88792     124921.4   -39593.642    2829.9471    -42423.59    247.93352   0.99977657 
   65700    230.10802    275.53005    124811.21    -39654.04    2862.9813   -42517.021    248.34936    1.0006593 
   65800    225.08871    519.36807    124637.79   -39673.742    2800.5314   -42474.273    248.73553    1.0020516 
   65900    229.05351    459.94882     124902.9    -39632.62    2849.8611   -42482.481     248.9953    0.9999247 
   66000    233.58577    369.63418    125129.39   -39543.181    2906.2511   -42449.432    249.75105   0.99811475 
   66100    231.19776    435.22908    125128.51   -39495.158    2876.5397   -42371.697     249.9486   0.99812174 
   66200    236.65201    313.23686    125215.43   -39459.443     2944.401   -42403.844    250.30218    0.9974289 
   66300    231.34131    577.86309    125178.45    -39504.67    2878.3257   -42382.996    250.60503   0.99772359 
   66400    227.97327    213.71791    125103.49   -39551.349    2836.4209    -42387.77    251.19963   0.99832144 
   66500    236.11722    425.13115    125281.28   -39584.814    2937.7471   -42522.561    251.80602   0.99690467 
   66600    230.03787    252.54283    125377.33   -39607.126    2862.1084   -42469.234    251.86066   0.99614094 
   66700    226.45706    55.781863    125236.77   -39649.593    2817.5563    -42467.15    252.51846   0.99725896 
   66800    228.65286    303.02993     124968.7   -39573.113    2844.8763   -42417.989    252.60492   0.99939821 
[...]
   84600    227.07346    628.71302    125338.95   -39788.503    2825.2256   -42613.729    325.30144   0.99644596 
   84700    228.12931    311.85696    125518.78   -39818.835    2838.3623   -42657.197    325.58666    0.9950184 
   84800    225.29442     365.6591    125518.02   -39781.918     2803.091   -42585.009     325.6989    0.9950244 
   84900    228.04583    412.49804    125601.22   -39768.221    2837.3237   -42605.545    326.54978    0.9943653 
   85000    230.42513    390.80648    125395.15   -39713.921    2866.9267   -42580.848      327.078   0.99599941 
   85100    228.58327    273.94073    125572.55   -39704.551    2844.0105   -42548.561    327.54202   0.99459226 
   85200     230.8294    223.67863    125788.75   -39701.956    2871.9566   -42573.912    328.62634   0.99288283 
   85300    229.48561     394.0509    125657.43   -39735.861    2855.2372   -42591.099    329.34643   0.99392043 
   85400    229.58612    370.56408    125459.83   -39725.481    2856.4879   -42581.969    329.63338   0.99548593 
   85500    229.03759    488.38718    125434.41   -39680.773    2849.6631   -42530.436    329.98185   0.99568762 
   85600    236.89615    571.31819     125603.1   -39649.861    2947.4385   -42597.299    330.58914    0.9943504 
   85700    226.59922    423.32925    125719.68   -39694.613    2819.3251   -42513.938    331.00817   0.99342834 
   85800    230.77546    305.54534    125745.27   -39715.006    2871.2855   -42586.292    331.09203   0.99322613 
   85900    231.55432     311.2513    125655.74   -39634.146     2880.976   -42515.122    331.42162   0.99393379 
   86000    230.47923    260.28637    125597.27   -39696.248    2867.5998   -42563.848    331.60742   0.99439656 
   86100    234.05241    435.32281    125619.97   -39690.758    2912.0569   -42602.815    332.12974   0.99421682 
   86200    229.57468    160.62236    125604.74   -39664.996    2856.3454   -42521.341    332.33453   0.99433743 
   86300    234.29825    372.81501    125554.18   -39690.753    2915.1157   -42605.869    332.41846   0.99473785 
   86400    231.48939   -1.2485249    125333.92   -39706.423    2880.1681   -42586.591    332.48626   0.99648592 
   86500    228.04706    342.24524    125257.69   -39678.564     2837.339   -42515.903    332.77566   0.99709237 
   86600    235.65074    310.30923    125383.96   -39601.149    2931.9432   -42533.092    333.14888   0.99608823 
   86700    231.87724    466.07963    125396.11   -39600.567    2884.9938   -42485.561    333.09978   0.99599174 
   86800    228.51862    399.93902    125683.21   -39667.629    2843.2061   -42510.835    334.54787   0.99371656 
   86900    230.82093    222.94446    125752.35   -39630.505    2871.8512   -42502.356    334.99718    0.9931702 
   87000    230.51073    536.87629     125576.7   -39629.377    2867.9917   -42497.368    334.99712   0.99455946 
   87100    231.42615    428.93504     125661.6   -39665.788    2879.3813   -42545.169    335.61494   0.99388747 
   87200    232.10368     374.6628    125324.11   -39669.106     2887.811   -42556.917    335.81043   0.99656397 
   87300    232.12114    366.47804    125206.12   -39677.381    2888.0283    -42565.41    335.94182   0.99750312 
   87400    230.71848    341.25697    125009.46   -39705.617    2870.5765   -42576.193    335.82865   0.99907236 
   87500    226.47192     257.6266    124807.12   -39717.119    2817.7412    -42534.86    335.54485     1.000692 
   87600    228.96361    422.09453       124923     -39718.2    2848.7426   -42566.943    336.36888   0.99976381 
   87700    228.55918     520.1557    124987.84   -39731.244    2843.7108   -42574.955    336.60583   0.99924517 
   87800    229.44491    126.79285    125180.24   -39710.907    2854.7309   -42565.638    337.21124   0.99770933 
   87900    228.26619    458.78514    125299.34   -39727.878    2840.0654   -42567.943    337.54939   0.99676098 
   88000    226.62001    475.40778    125156.94    -39752.13    2819.5838   -42571.714    337.42633   0.99789505 
   88100    227.67066    540.95146    125276.41   -39678.822    2832.6559   -42511.477    338.26994    0.9969434 
   88200    231.63683    487.87044    125319.44   -39653.514    2882.0025   -42535.516    338.73547   0.99660106 
   88300    234.33961     331.3105    125283.31   -39690.178    2915.6303   -42605.808    338.66027   0.99688851 
   88400    223.02382    454.66174    125203.39   -39784.858    2774.8403   -42559.698    339.14731   0.99752482 
   88500    230.51658    373.46697    125219.02    -39666.28    2868.0645   -42534.345    338.89424   0.99740036 
   88600      235.451    397.50792    125060.21   -39625.008     2929.458   -42554.466    338.86909   0.99866686 
   88700    227.89486    303.82762    125041.08   -39608.313    2835.4453   -42443.758    338.95101   0.99881968 
   88800     236.3517     392.2339    124884.05   -39552.003    2940.6644   -42492.668     338.7975    1.0000756 
   88900    233.04457    351.66756     124872.2   -39593.366    2899.5175   -42492.884    340.02391    1.0001705 
   89000    232.13747    322.46943    125041.89   -39583.779    2888.2315    -42472.01     340.9881   0.99881324 
   89100    229.63363     557.5676    125180.92   -39680.976    2857.0789   -42538.055    341.94383   0.99770391 
   89200    226.60121    376.91778    125083.93   -39702.992    2819.3499   -42522.341    342.13995   0.99847752 
   89300    229.77547    436.14521    125312.81   -39715.187    2858.8436   -42574.031    342.69707   0.99665379 
   89400    225.84973    496.49029    125304.57   -39743.862         2810   -42553.862      342.416   0.99671938 
   89500    225.13395    269.86134    125177.89   -39770.242    2801.0944   -42571.336    342.22013   0.99772806 
   89600    221.41481    328.85992    125062.56   -39806.292    2754.8212   -42561.114    341.47567   0.99864812 
   89700    227.50053    373.72018    124844.77   -39765.073    2830.5391   -42595.612    341.43824    1.0003903 
   89800    228.69154    173.63799    125050.97   -39732.417    2845.3575   -42577.774     341.5557   0.99874068 
   89900    226.18584    529.26801    125128.68   -39790.279    2814.1819   -42604.461    342.62215    0.9981204 
   90000    230.98836    492.31439    125118.71   -39702.535    2873.9343   -42576.469    343.68809   0.99819993 
   90100    228.38035    337.47303    125074.19   -39698.424    2841.4858    -42539.91    344.05253   0.99855529 
   90200    228.32746    250.00601    125196.25   -39742.532    2840.8277    -42583.36    344.29511    0.9975817 
   90300    224.22132      299.243    125175.29   -39728.906    2789.7395   -42518.645    344.65868   0.99774876 
   90400    224.44592    258.11312    125291.75    -39718.17    2792.5339   -42510.704    344.83739   0.99682132 
   90500    224.84118    433.10724    125195.76   -39686.182    2797.4517   -42483.634    345.12133   0.99758565 
   90600    232.56295    566.29489     125284.6   -39592.164    2893.5253    -42485.69    345.91997   0.99687821 
   90700    229.35724    422.11528     125214.8   -39594.961    2853.6401   -42448.601    346.04429   0.99743393 
   90800    232.81227    557.69771     125417.8   -39610.832    2896.6273   -42507.459    346.79018   0.99581948 
   90900     225.6657    265.81036    125178.99   -39700.018    2807.7103   -42507.729    346.98523   0.99771928 
   91000    226.46041    268.54628    124976.96   -39710.337     2817.598   -42527.935    347.20024    0.9993321 
   91100    227.04989    499.83077     125055.3   -39693.062    2824.9323   -42517.994    347.81503   0.99870609 
   91200    228.08849    346.85156    125128.52   -39661.133    2837.8544   -42498.987    348.40517    0.9981217 
   91300    236.61006    348.39744    125371.59   -39574.372     2943.879   -42518.251    349.34975   0.99618653 
   91400    233.76516     286.0415    125243.61   -39554.792     2908.483   -42463.275    349.38327   0.99720446 
   91500     237.1992    245.13972     125099.2    -39580.64    2951.2091   -42531.849    349.56817   0.99835565 
   91600    233.17826    429.27665     125092.1   -39622.084    2901.1808   -42523.265    349.98734   0.99841232 
   91700    231.09949    427.16502    124918.13   -39712.911     2875.317   -42588.228     350.3467    0.9998028 
   91800    226.77962    396.99019    124897.54   -39667.824    2821.5696   -42489.393     350.8992   0.99996757 
   91900    226.70653    275.72624    125162.14   -39681.342    2820.6602   -42502.002     351.6272   0.99785358 
   92000    232.23196    333.83472    125127.64   -39690.361     2889.407   -42579.768    351.42791   0.99812871 
   92100    225.48769    427.42311    124911.11   -39723.824    2805.4955    -42529.32     351.2138   0.99985899 
   92200    231.98402    487.94745    124999.61   -39670.007    2886.3223   -42556.329    352.01906   0.99915102 
   92300    231.91836    383.67062    125179.34   -39575.163    2885.5053   -42460.668    352.37261   0.99771645 
   92400    230.35126    344.04087    125200.69   -39576.865    2866.0076   -42442.873    352.37909   0.99754637 
   92500    230.55777    272.14499    125083.22   -39625.098    2868.5769   -42493.675     353.4226   0.99848322 
   92600    231.28153    211.26248    125049.65    -39568.35     2877.582   -42445.931    353.38385   0.99875119 
   92700    229.62697    209.34749    125071.32   -39556.577     2856.996   -42413.573     353.6709   0.99857819 
   92800    230.73861    619.03899     125176.3    -39610.71    2870.8269   -42481.537     354.5993   0.99774071 
   92900    232.62063    308.82351    125264.59   -39583.999    2894.2429   -42478.242    355.44596   0.99703745 
   93000    228.02116    380.80348    124889.23   -39608.795    2837.0167   -42445.811     354.8804    1.0000341 
   93100    230.78846    368.27289    124639.38    -39548.43    2871.4472   -42419.878    354.44196    1.0020388 
   93200    233.28267    511.46271    124557.83   -39555.499    2902.4799   -42457.979    354.28194    1.0026948 
   93300    232.83301    314.97333    124922.41   -39578.191    2896.8853   -42475.076    355.85627    0.9997685 
   93400    226.59277    334.61167    124873.46   -39607.677    2819.2449   -42426.922    356.68476    1.0001604 
   93500    229.44022     671.6782    124882.78   -39645.902    2854.6725   -42500.574    357.85434    1.0000858 
   93600    227.41112     290.0692     124596.1   -39720.815    2829.4267   -42550.241    358.02034    1.0023869 
   93700    228.43166    356.85158    124802.93   -39693.077    2842.1241   -42535.201    358.18858    1.0007257 
   93800    226.34924    443.01288    124656.84   -39655.524    2816.2149   -42471.739    358.61431    1.0018984 
   93900    231.43346    355.61987     124920.2   -39638.598    2879.4722    -42518.07    359.35061   0.99978618 
   94000    227.01352    439.71064    125242.62   -39632.665    2824.4798   -42457.145    360.21447   0.99721235 
   94100    229.53671    448.73403    124999.52   -39643.546    2855.8731   -42499.419     360.5924   0.99915174 
   94200    230.56379    309.53423    124852.14   -39618.126    2868.6519   -42486.778    361.06977    1.0003312 
   94300     229.9362    403.85283    124813.91   -39560.569    2860.8435   -42421.412    361.11341    1.0006376 
   94400    225.34768     449.2808    124936.32   -39541.478    2803.7536   -42345.231    361.91431   0.99965723 
   94500    232.79449    566.11498    124928.47   -39461.503     2896.406   -42357.909    362.32837   0.99972001 
   94600    236.32576    175.03292    125030.73   -39504.836    2940.3418   -42445.178     362.9289   0.99890233 
   94700    230.05018    492.54155    124926.54   -39562.094    2862.2616   -42424.356    362.95233   0.99973543 
   94800    228.84136    573.46463     124875.1   -39558.379    2847.2216     -42405.6    363.22636    1.0001473 
   94900    230.78171    486.56852    124995.57   -39540.897    2871.3632    -42412.26    363.48412   0.99918333 
   95000    234.38079    553.27532    125121.35   -39527.907    2916.1426   -42444.049    364.65741   0.99817887 
   95100    230.67317    516.52187    125001.58     -39534.7    2870.0127   -42404.713    364.64539   0.99913532 
   95200    233.16989    581.45986    125058.55   -39545.239    2901.0768   -42446.315     365.5071   0.99868014 
   95300    234.46009    399.39392    125121.11   -39447.493    2917.1293   -42364.622    366.57591   0.99818077 
   95400    233.19732     432.6253    125012.38   -39531.244    2901.4179   -42432.662    366.93319   0.99904895 
   95500    235.94131    270.56594    125082.24   -39565.001    2935.5584   -42500.559    367.36944   0.99849101 
   95600    226.72313    516.98368    124994.96   -39562.928    2820.8668   -42383.795    367.98996   0.99918821 
   95700    235.51441    348.03689    125092.44   -39634.486     2930.247   -42564.733      368.531   0.99840955 
   95800    227.40048    410.79032    124925.91   -39712.046    2829.2943    -42541.34    368.07397   0.99974046 
   95900    229.11146    334.77431    124972.17    -39647.33    2850.5822   -42497.913    367.61586   0.99937043 
   96000    225.64596    343.16559    125295.17   -39728.698    2807.4647   -42536.163    369.26174   0.99679412 
   96100    227.05551     366.6576    125202.07   -39680.015    2825.0023   -42505.017    369.83918   0.99753532 
   96200    227.17558    610.42237    125160.72   -39732.324    2826.4962    -42558.82     370.1962   0.99786488 
   96300    230.26371    400.86684    125081.28   -39681.443    2864.9183   -42546.361    370.59973   0.99849864 
   96400    233.68898    436.96916    125140.96   -39668.553    2907.5352   -42576.088    371.19216   0.99802246 
   96500    232.36711    396.33311    125418.17   -39722.666    2891.0887   -42613.754     371.6037   0.99581654 
   96600    229.05807    412.47067     125415.6   -39732.066    2849.9178   -42581.984    372.18933   0.99583699 
   96700    228.17731    224.49337    124986.65   -39799.907    2838.9595   -42638.866    371.79463   0.99925468 
   96800     225.6919    366.23545    125121.66   -39843.201    2808.0363   -42651.238    372.34178   0.99817644 
   96900    225.95437    497.31311    125180.67   -39772.401    2811.3019   -42583.703    372.35008   0.99770586 
   97000    230.71091    424.19571    125334.95   -39770.363    2870.4823   -42640.845    373.16426    0.9964778 
   97100     225.3623    376.07924    125199.95   -39749.729    2803.9355   -42553.664    372.96772   0.99755227 
   97200     227.9396    349.97938    125222.27   -39754.481     2836.002   -42590.483    373.14808   0.99737442 
   97300    228.92221    344.01727     125138.4   -39754.113    2848.2276    -42602.34    373.38926   0.99804288 
   97400    227.15867    549.80673    125130.28   -39758.108    2826.2857   -42584.394    373.53704   0.99810762 
   97500    234.74666    257.86728    125330.45   -39668.331    2920.6948   -42589.025    374.76489   0.99651352 
   97600    227.61154    397.37803    125262.37   -39730.898    2831.9202   -42562.818      374.609   0.99705519 
   97700    228.11202    430.63493    125208.88   -39658.836    2838.1472   -42496.983    374.90028   0.99748108 
   97800     229.8683     286.3915    125098.56   -39642.774    2859.9987   -42502.773    375.46913   0.99836072 
   97900    235.58851    446.76478    124991.48   -39609.279    2931.1689   -42540.448    375.36284   0.99921602 
   98000    230.60929    277.46362    125056.86   -39623.121     2869.218   -42492.339    375.18367   0.99869364 
   98100    225.71076    388.12886    125235.53   -39690.477     2808.271   -42498.748    375.55156   0.99726884 
   98200    231.31083    453.65388    125413.82    -39674.46    2877.9465   -42552.407    375.62804   0.99585114 
   98300    225.80607     585.3329    125281.74   -39690.767    2809.4568   -42500.224     375.6047   0.99690102 
   98400    228.02993    518.49321    125568.05   -39716.421    2837.1259   -42553.547    376.90186   0.99462791 
   98500    229.12696    471.74107    125905.17   -39731.828     2850.775   -42582.603    378.16632   0.99196475 
   98600    229.10549    163.45555    125501.05   -39768.188    2850.5078   -42618.696    378.02347   0.99515897 
   98700    230.18938    295.63465    125428.91   -39833.179    2863.9935   -42697.173    377.95299   0.99573126 
   98800    224.77566    503.68303    125361.49    -39809.36    2796.6366   -42605.996    378.77426   0.99626677 
   98900    226.99107     248.6081    125388.01   -39815.746    2824.2004   -42639.946    379.42916   0.99605609 
   99000    224.81898    233.52668    125359.08   -39858.593    2797.1755   -42655.769     379.0051   0.99628593 
   99100    225.72885    499.38887    125274.17    -39762.42     2808.496   -42570.916    379.28294   0.99696127 
   99200    225.15551     515.6372    125480.69   -39739.371    2801.3626   -42540.734     379.6394   0.99532042 
   99300    228.12575    125.45397    125410.28   -39687.522    2838.3181    -42525.84    380.55289    0.9958792 
   99400    233.96267    358.60664       125206   -39658.703    2910.9404   -42569.644    380.00777   0.99750406 
   99500    232.68831    301.57909     125439.1   -39533.521     2895.085   -42428.606    381.11319   0.99565045 
   99600    236.42392    280.48744    125235.93   -39562.489    2941.5631   -42504.052     380.6763   0.99726566 
   99700    235.36908     437.2901    125172.55   -39566.593    2928.4388   -42495.032    380.94505   0.99777061 
   99800    231.17875    521.28148    125335.13   -39582.071    2876.3031   -42458.374    381.45966   0.99647633 
   99900    231.36112    339.45541    125186.03   -39624.583    2878.5722   -42503.156    381.88115   0.99766318 
  100000    227.73062    213.67744    124846.89   -39631.352    2833.4018   -42464.754    381.79472    1.0003733 
  100100    233.11039    550.16374    124874.42   -39552.661    2900.3364   -42452.998    381.94771    1.0001528 
  100200    232.19026     269.6772    125034.27    -39553.03    2888.8883   -42441.918    382.50386   0.99887408 
  100300    234.33865    211.61172    125072.63   -39539.445    2915.6183   -42455.063    383.11628   0.99856768 
  100400    232.06034    260.24394    125162.21   -39586.605    2887.2718   -42473.876    383.52857     0.997853 
  100500    231.89588    581.19316    125030.52   -39512.059    2885.2257   -42397.284    383.76708   0.99890405 
  100600    230.69055    522.05235    125068.49    -39582.91     2870.229   -42453.139     384.6507   0.99860077 
  100630    234.12859    387.90248    125142.89   -39574.804    2913.0048   -42487.809    385.10066   0.99800712 
Loop time of 101.934 on 6 procs for 100000 steps with 4175 atoms

Performance: 423.803 ns/day, 0.057 hours/ns, 981.025 timesteps/s
98.7% CPU use with 6 MPI tasks x no OpenMP threads

MPI task timing breakdown:
Section |  min time  |  avg time  |  max time  |%varavg| %total
---------------------------------------------------------------
Pair    | 84.391     | 85.097     | 86.253     |   7.1 | 83.48
Neigh   | 5.3605     | 5.3691     | 5.3961     |   0.5 |  5.27
Comm    | 7.574      | 8.7531     | 9.4571     |  22.4 |  8.59
Output  | 0.16528    | 0.16635    | 0.17135    |   0.5 |  0.16
Modify  | 1.8485     | 1.8648     | 1.9127     |   1.7 |  1.83
Other   |            | 0.6841     |            |       |  0.67

Nlocal:        695.833 ave         714 max         680 min
Histogram: 1 0 2 1 0 0 0 0 0 2
Nghost:        1495.00 ave        1515 max        1479 min
Histogram: 1 1 0 1 0 1 1 0 0 1
Neighs:        0.00000 ave           0 max           0 min
Histogram: 6 0 0 0 0 0 0 0 0 0
FullNghs:      20108.0 ave       20889 max       19448 min
Histogram: 1 1 1 0 1 0 0 0 1 1

Total # of neighbors = 120648
Ave neighs/atom = 28.897725
Neighbor list builds = 5828
Dangerous builds = 0

undump              1
unfix               2
unfix               3
unfix               4


################################################
#######         Run Simulation         #########
################################################

reset_timestep      0
log                 log.run_${NAME}
log                 log.run_liquid_density_MLmW
