LAMMPS data file via write_data, version 29 Oct 2020, timestep = 800000

4175 atoms
1 atom types

-0.13358088123452205 50.133580881225754 xlo xhi
-0.13358088123452205 50.133580881225754 ylo yhi
-0.13358088123452205 50.133580881225754 zlo zhi

Masses

1 18.015

Atoms # atomic

3884 1 20.685057466917733 5.464633940604985 0.2053004638095436 0 0 2
3849 1 6.033145054511389 2.254329918296783 2.769267274434245 -1 1 1
2692 1 8.575241885479858 0.5102265444209707 3.429599849658724 -1 0 0
719 1 48.970373112803216 24.60792577030645 9.70436336511263 -2 -1 0
3799 1 14.389371580919454 2.88835757750861 3.4731304475648415 0 1 1
2206 1 15.505890851042095 0.025288878704256 2.8881663676778757 0 0 0
3733 1 17.889865641434575 1.5254527414904278 2.1426764578681827 0 1 0
4031 1 46.286027431218294 23.757976447284957 0.13432035772100587 -1 1 1
1746 1 15.159356099129548 13.451511714614673 0.8127665304103254 0 0 1
962 1 39.32831100817263 22.790766574009886 1.0346400498240174 0 0 0
4067 1 34.195086808995775 4.162964846729656 0.22068122450710875 0 0 1
3725 1 42.7722733322184 11.417797626390978 0.4371996318132302 -1 1 0
3935 1 36.02165337551843 2.463553355407778 1.2932893972912454 0 1 1
982 1 38.64038924637096 3.2856702890626166 1.0915856256221463 0 0 1
908 1 40.12031083639372 2.275536117047639 3.238147525173078 0 0 1
1117 1 22.417045931687863 0.8771413551192848 15.759424764038961 -1 1 0
3276 1 8.265970722813291 10.48021193425646 0.6249049242487411 1 0 0
2722 1 34.58344925517449 7.258861040533238 1.1151200189983712 0 1 1
459 1 2.960180488104855 6.385350235243375 0.7130907585360393 0 0 0
228 1 26.500016337408802 24.422812067886227 15.490727329058423 -1 -1 -1
2333 1 5.613637748545251 7.044517478485542 1.1836927916329314 1 0 1
96 1 7.167224541838817 4.530926894436504 1.0222197975538558 0 0 0
947 1 38.84814162204154 5.73141148159669 0.15910695201345743 0 0 1
3056 1 9.052710481571626 6.641850913423235 2.090190464397132 1 1 0
1833 1 16.656279586894133 3.94817708555484 2.3573969832299033 1 1 0
2002 1 22.86352026509734 1.6434251778369469 0.3468236593248866 0 0 1
2788 1 27.04576317748779 2.9322032642531712 1.4801145597447345 1 0 1
2267 1 28.68992783746705 5.0883186439280275 2.2274392610197387 1 1 1
1231 1 20.499890815905957 17.460297861163703 0.47437841815006254 -1 1 0
2016 1 31.966401038353958 4.511814673269091 1.368172139311775 0 0 0
3405 1 35.12234156895116 9.756200969137472 3.136039280840493 0 0 1
2089 1 37.01285186550146 6.860498135612337 2.538710173572607 -1 0 1
2421 1 42.658047883883505 3.40167773373454 2.5385909525868353 0 1 0
4011 1 49.63673390481676 4.958608133551268 0.2831412874470396 -1 1 1
1023 1 36.56262569031035 20.010872048240426 0.7975084000654796 0 -1 1
1444 1 8.356231001323897 9.192464377018595 3.1306912532018947 1 1 1
1873 1 11.779502817808487 6.542187404816582 0.747731788501651 0 0 0
3649 1 7.7605804365772295 0.5298320710630078 11.208674811712102 0 0 0
3414 1 13.121056406963705 7.925530351712794 2.8769328848082263 1 1 1
2594 1 49.3078226203558 2.688560519729949 16.355406239938063 0 1 0
1211 1 35.80367703354227 10.344407050271418 0.17302096775284742 2 -1 -1
3092 1 20.605366459593526 3.039641696277916 1.6095389802925486 0 1 2
496 1 24.50322735684415 3.5517013428337214 2.363277385197857 0 1 0
3521 1 13.433209294773805 18.173259459167326 0.4306724505971139 0 1 0
1970 1 28.595459228722554 8.083308990551997 2.4098299103974985 -1 0 0
1645 1 23.563813524200732 23.445734972382713 1.4879039885426057 0 0 2
2059 1 37.65731704882987 11.768079557681558 2.40727414022156 -1 0 1
3273 1 20.601983696527324 0.003925385285537125 5.290165600341682 0 1 1
3024 1 45.15482178396089 6.624127613896618 1.1942958706538929 0 1 0
1699 1 39.406439306658875 2.74548823745142 15.423405530072658 -1 0 1
279 1 2.936977031800291 11.60493885075423 2.1154959830701934 0 -1 0
823 1 5.253231567571462 12.601585694447385 3.144468322655658 0 0 1
4175 1 8.609870579752274 12.407679626232575 5.402619128794612 1 1 1
2918 1 15.880030774270637 6.029430156429861 0.7271182275703295 0 0 1
2337 1 15.300399392937749 8.699311917470727 1.4625442261068469 0 1 1
2042 1 16.921802240509294 10.271011971534287 2.9415570068934103 0 0 1
2108 1 19.363170115145675 12.8449281070576 2.009132640037487 1 0 -1
1949 1 22.0044284273591 7.110923137257736 1.8740422440697082 0 1 1
510 1 21.47935357822595 9.584877508178012 1.877040765977168 0 1 0
2528 1 47.8824474908001 12.466577133645792 0.3244968527047165 0 1 0
925 1 31.933773454891792 12.22298654679587 2.1444260236938635 -2 0 1
4142 1 34.334724553785684 13.499582821404625 2.8894542116419766 -1 0 1
1965 1 39.858384410525176 15.02969701258718 0.10191883682070932 -1 0 1
261 1 38.35318503727157 9.233204114060337 3.020311050599623 1 0 -1
397 1 18.423363835625636 7.12544224906995 0.04462424639343643 0 0 0
2765 1 41.185446653857284 24.791297663599448 11.299460299273864 0 0 0
3431 1 49.290377176531265 10.22279665122358 1.3323364209212532 0 0 1
2034 1 0.3628123238510074 14.094788497921076 0.7092692990098917 -1 0 1
3070 1 47.3631333829827 0.30899980749652634 7.094377676144784 -1 0 1
4019 1 26.70548023650198 0.14406509592870492 2.5949338780704574 0 0 1
4043 1 30.69372280882636 0.3818300462750802 2.8777198144256633 0 1 2
1684 1 23.970890188265784 11.363581244590842 1.3828796840584434 1 1 0
244 1 22.004330935096252 13.44353626972179 1.5596874438005797 1 1 -1
4125 1 29.962957051189317 14.469640284717588 2.210520951226216 -1 1 1
3196 1 47.41518940813323 0.9950094661077793 15.22190990854064 0 0 1
1089 1 32.0152071979569 16.30257218261073 0.18296093757587012 0 1 0
2320 1 46.44035776483439 13.481430839488626 2.6714685150267963 -1 0 0
1296 1 45.363912356099725 24.768475077212866 6.961580708423607 1 0 0
1140 1 37.159659451156614 15.980581641216304 3.9336528643375885 0 0 0
2295 1 27.66975392551927 10.532983299030576 0.8127746233923067 0 1 0
1479 1 46.77270514684887 1.4084463884715455 3.240059649257614 -1 -1 1
2351 1 47.7129917966929 9.71078229162912 3.717283848978669 0 1 -1
455 1 47.13950383040027 7.1399704689027175 3.3565745907213866 0 0 0
2835 1 15.833643580111731 23.785379282816386 1.0477741766342281 0 1 1
3 1 1.6621971693424136 13.816460364274294 2.971693733352776 1 0 -1
3325 1 13.376978587368647 10.078351227603793 15.54746299766446 1 0 0
740 1 5.078164095957473 16.79261182224343 1.062438340234776 1 0 1
3181 1 7.4265435480455135 17.352707233765567 2.519303852895995 0 1 0
1978 1 9.697042432390152 14.132637534484791 2.103414087228028 0 0 1
1623 1 12.996152184739866 15.39156015868074 1.098857450026725 0 -1 1
3484 1 46.79732765727068 19.88217473478622 0.013187563594046547 0 0 0
1198 1 41.333035939777915 24.570687937238333 15.26066707422739 -1 0 1
1394 1 16.403445414338105 16.301140243942125 2.027880736841598 -1 0 1
1469 1 19.124521053093382 15.98606527554061 2.466068403157456 -1 -1 2
2888 1 6.171910467463313 0.8519403526226988 0.1842744557282558 1 1 1
3298 1 16.840928640244595 1.1311504692029515 6.957242281005569 0 1 0
2391 1 27.358029708516614 14.7294758424709 1.5289812820986444 0 1 0
2131 1 33.07067774684433 16.38843135870468 2.9246305650011983 0 1 0
3329 1 34.59458912696171 18.905721151692106 2.151526338190133 0 1 1
2755 1 39.242741035373164 16.629931581744046 2.1831097683853806 0 0 0
1201 1 38.715509664468684 18.439661571746964 0.011004593978746063 0 -1 0
1745 1 42.927811611141095 17.32356770165904 2.075394207722403 1 0 1
3153 1 41.548179066801595 15.588989446797235 3.596792390955068 -1 -1 0
1039 1 46.148288206533024 15.909301132928828 1.219744206589303 0 -1 1
773 1 1.1818666436983103 21.038297303755783 1.0928299308135274 1 0 0
1256 1 3.431281626842722 19.422164525021884 1.431245002694149 0 0 1
3023 1 6.905843956100515 21.631862239502155 2.6623667213163325 1 0 0
2078 1 9.044286953730666 19.27320603918733 1.2040995987204461 0 0 0
105 1 11.871679135479694 19.175654064517563 2.4528368999911048 -1 0 0
1210 1 16.28760124225844 19.083053780875854 1.9520747010024126 -1 0 0
83 1 22.778256371708466 18.91816918445218 1.807319208174762 1 -1 0
4059 1 19.2924216766447 22.5129768610382 3.9023240019981023 0 -1 0
360 1 7.953769393281647 7.749096793746988 14.36802204462196 1 0 -1
419 1 23.09265951635819 15.849445175329453 0.8553771474746297 0 0 0
3447 1 2.878949759565783 22.700648336556075 16.449237311496955 0 1 1
3833 1 31.20211532125707 19.091441570534545 0.5391399970861765 1 1 1
919 1 28.263719856285146 19.158329581570392 0.5750215834350338 -1 1 1
356 1 32.434303160359164 22.50280562471617 0.7512563128463352 0 0 1
1929 1 32.42960992036654 20.590217395170278 2.6254135028269867 1 0 1
3021 1 11.518771910614536 22.550112037123796 7.284393487268193 0 0 0
335 1 41.612333924406165 19.356888146427785 0.7253787625340087 0 0 -1
347 1 43.47060119150405 19.555500615673612 4.102112512472243 0 -1 0
1897 1 48.64716384016773 20.318864620660275 2.1142132510858174 0 0 1
690 1 7.6068852180367195 24.938875466913526 15.012951736670315 1 0 0
3495 1 1.1876222027298562 23.007476445583148 3.1480631682806357 1 0 1
2989 1 36.41633289535829 23.688009171900195 6.719968878600548 0 0 0
681 1 9.435319976250211 21.433567097383037 2.5071643964492956 0 0 0
3098 1 15.347925369164127 4.283216157428126 15.498544252338066 1 1 0
3132 1 14.596461586151959 21.23733577358575 1.4468873759524667 -1 1 1
4032 1 13.108521501038203 21.334009569963747 3.7922296045918396 0 1 1
1029 1 31.25949453191039 6.059993499987492 16.157096249298217 -1 0 -1
3489 1 19.217170452894372 20.07363388537592 0.7746287541645943 0 2 0
3307 1 24.808668498266954 20.970945006581225 2.411247167462006 0 1 1
791 1 10.517394978133249 23.32962721787272 0.6605886231077313 1 0 0
1981 1 46.175254292690205 24.157174683757642 9.541142537929806 -1 0 1
2121 1 28.104597443526483 23.721253153344424 1.7406882592084463 0 0 1
1925 1 47.88861454969113 23.56138735573583 15.784173978663773 0 1 1
3604 1 36.656890586479065 22.675200442104426 1.5987381973915156 -1 1 1
1151 1 26.55698472108738 7.6774362012736495 -0.08699831806521702 -1 1 0
1310 1 40.89286303342321 21.395064711350063 2.9613619990096463 0 -1 0
1247 1 22.139170462780587 0.47918550370236446 13.067254613611757 1 0 0
3547 1 46.673518468956956 22.503844302220422 2.6258479007591404 -1 2 1
3185 1 2.3751832297764084 0.9577991830471442 4.663023007580418 0 1 0
968 1 20.892766188833747 13.62200121193114 16.396457158938908 0 1 -1
859 1 5.379936904421483 4.119685683798877 6.361436794894064 1 1 0
1813 1 9.56088890699203 3.2760347747726573 2.192904776748517 1 0 -1
1317 1 11.661822858114316 0.4594356827560082 3.893829791141804 0 1 0
3879 1 18.64832956869382 1.8118715882486087 4.958670966522515 -1 1 0
2657 1 3.1980408470830874 0.3393609207486994 8.664277220606241 0 2 -1
1338 1 47.777729413233 2.7673558731845325 0.9061543578218247 -1 0 1
121 1 34.50962248022069 0.13026768457714427 11.368327605984739 1 0 1
3974 1 14.142088538019054 10.626392710435129 -0.037742754328487754 1 1 1
3928 1 29.155234974085626 2.8152360236995113 6.9683003823711305 0 1 1
3885 1 33.819295807680206 2.969116429189679 5.037755103060903 0 1 1
359 1 31.458179314579105 2.917330311223014 3.468946888892239 1 1 0
3627 1 36.19456931456619 2.358708232785355 4.138603986450132 0 2 1
3590 1 43.46421793776458 2.0952312624226614 0.36838074594917847 -1 1 1
4003 1 44.563130985914135 2.345571638607875 4.382967211548882 0 1 0
365 1 0.46598863728358386 0.8902247659146831 2.852472263352023 1 0 0
817 1 3.121228640537411 6.463057262698889 5.214180467200239 1 0 1
3899 1 3.5652706282992215 3.316941928595361 3.8212871296409436 0 0 2
1624 1 7.337973823832288 6.065461757384461 5.544719253308077 0 0 1
1300 1 9.7406078692594 4.780663152810975 4.641682621153215 0 1 0
3118 1 14.380923129862305 5.906011616293221 4.715525495759206 0 0 0
595 1 17.49009930114695 4.334007737865673 6.555773174652157 0 0 1
2256 1 20.73356636646681 3.3848623057904113 4.133381984661042 0 0 0
1889 1 23.384381234967826 2.4428493359323946 4.812247421634493 0 0 0
3472 1 29.750257265857773 4.802458434146511 4.90010530293621 0 1 1
443 1 37.115746232106645 4.98748917753108 4.6553698035943505 0 0 0
291 1 39.570900574039136 4.545882011694022 5.006904635202184 0 0 0
1050 1 42.718582335262646 6.036608965622367 2.4563898932012687 0 1 1
1622 1 44.15110057122946 8.501544589677497 3.973306430455935 -1 1 1
1038 1 2.4664150161914082 3.4818290672551773 1.3220137645827632 0 0 1
663 1 1.4592717810901443 6.622109748341546 3.156231323879181 1 -1 0
1433 1 5.9172106997917595 7.894892077225769 3.963025750835321 1 0 1
2058 1 3.127421369061211 8.072914845536443 7.772329113397984 1 0 1
1505 1 5.333460420260521 10.531959338490797 5.350469095386329 1 0 1
1904 1 10.207163387594074 9.743595772280871 5.00899903321402 0 0 1
3162 1 11.53400708743281 6.777865216806236 5.226398285398542 1 1 0
1544 1 15.757592087398068 9.012551016843155 5.419898558399423 0 2 1
1513 1 17.238398383019668 5.9036715345348405 4.212319672431841 0 0 0
12 1 18.206055844206563 8.324089049482922 6.21332863651698 0 1 -1
1446 1 20.28416115552506 6.351709531107793 4.223013131734894 0 -1 0
3078 1 24.59263148470049 6.289772821228601 2.027716601775021 0 1 0
1680 1 31.52129264848835 7.1846502315282 4.925208638845399 -1 1 1
461 1 31.925129490344332 7.07311131073311 2.120747374101411 0 -1 0
3624 1 34.196891602912764 8.412062820083435 6.161899833942684 0 1 0
842 1 36.657613713892836 7.218460437594833 6.615802265780472 0 -1 1
2935 1 38.260674692466544 9.466748627570269 5.678553966846215 0 1 1
3467 1 41.0206368067946 8.759504000481714 2.6258545072269857 -1 0 1
277 1 40.83510054901633 7.083836754031014 5.056727506480064 1 0 0
3308 1 48.91543387655988 2.6472977611315787 4.142827504284209 -1 1 1
1357 1 49.177901247674825 5.333366889680773 3.17791832171214 -1 1 1
3793 1 1.2884557047559844 9.365389856588262 3.1840976774918492 0 1 0
1135 1 2.498330425436385 12.053996542896098 8.50231825532101 2 0 0
120 1 2.625231327005196 10.429285929781669 6.25859747497152 2 0 1
1028 1 10.978861208218866 12.357356898616194 6.561824978450819 0 0 0
2896 1 14.380440714006907 11.611897844569592 4.975198924789573 0 1 0
1994 1 19.541647865723785 9.654232541938205 4.221406226182038 1 0 1
3413 1 26.068731605370992 9.69116623377882 5.1688865359126295 0 2 0
836 1 22.97657748176552 9.928545087448502 4.484299745396081 0 0 0
164 1 26.35961481197226 7.3658180245087355 3.9112900870926266 0 1 1
3673 1 29.748272737460308 9.463033068031855 4.8848368499447155 0 0 1
2099 1 32.419886337107386 10.275618407212738 4.131984110321813 0 0 1
3318 1 32.4167936008752 11.777843004687776 6.829174121665897 0 0 0
2394 1 42.59926574249598 11.455296984105008 3.0613770700077776 0 0 0
704 1 45.07000847051617 11.398127611394315 4.366091256588142 -1 0 0
1968 1 49.80584826896486 10.137225929892118 5.4021552118309915 0 0 1
254 1 -0.021758393582545957 12.858888229260035 5.272930237224258 1 0 0
1344 1 0.5886647134748331 13.941073878157882 7.922924007865749 0 -1 0
831 1 3.73002652326351 15.502513897209331 3.325298429910673 1 -1 0
3235 1 6.541448132165834 12.565869594235698 7.287103978078948 1 1 0
219 1 5.4233189160266875 14.530828419706232 5.42673823878365 0 0 0
1631 1 11.757706854339023 12.288115364080745 1.1819979388144546 1 0 1
2601 1 13.339551286504753 14.113224012864412 5.963187016370285 0 1 0
1508 1 16.23101584602204 13.183255926980102 3.219737348898306 0 0 2
115 1 20.72961786393793 14.53801903518329 4.458687225063001 0 0 0
1898 1 23.301788333919863 12.668141713266829 4.243729811961092 1 -1 1
3947 1 26.95831973492609 11.917557796048495 3.2075861948901836 0 0 1
712 1 29.16273577172742 12.441366519483553 4.152786278581399 0 -1 0
2891 1 29.09181381527389 14.123121762161825 6.214322267240724 0 1 1
2809 1 34.72167609186153 12.838009680777652 5.3650443202696225 0 1 1
3207 1 35.41710680834985 15.417721213081844 6.270108934770448 0 0 0
2591 1 40.26673451600256 12.849289655791168 3.38928313408857 -1 0 0
1769 1 47.94184076860805 14.271098948858294 4.651702864735107 0 1 1
880 1 0.1821964940276125 16.978565381996752 7.941313745140025 1 -1 1
3647 1 2.0746299954828427 17.84206900918155 3.300760444994941 0 0 1
2043 1 4.4617653452658255 17.482468202405556 5.797693535326162 2 -1 0
3525 1 8.050024376517712 15.114519170785126 4.382204940358581 0 0 1
2149 1 10.656678280156846 15.84844663017343 5.596902956301593 0 1 0
1862 1 13.687464362189806 16.16838275534932 3.7475214259653606 0 0 0
1026 1 18.69648670602884 17.831357494157505 4.568180670444061 0 -1 0
3960 1 16.27566825459045 15.574150693059476 5.157635481416713 0 1 1
662 1 22.46369324601533 16.588086240477963 5.720234218338796 1 0 -1
3486 1 25.56598205385473 14.31491859545109 3.7420113735322893 1 0 0
4155 1 26.350040897669018 14.416401561019434 6.3527151624186855 -1 0 0
932 1 25.78562665089534 19.04399551158412 4.2514656701097895 0 -1 0
3160 1 33.357017967697594 17.17013897733048 5.82365198876573 0 1 0
3854 1 30.358699620536846 16.448950249276887 4.174343586191195 -1 1 0
779 1 37.155004528525126 18.63825019702952 4.0958465599029426 -1 0 0
1569 1 33.85397904247864 19.771010096554647 7.509128471130683 0 -1 1
557 1 36.988392807307896 16.839807414704637 8.328766855111525 0 1 -1
1855 1 41.43068220209221 15.62162670306396 6.412195912173717 0 0 1
2117 1 48.886298864716714 16.95242924733681 5.1912706495141245 0 0 0
3959 1 45.98420672660422 18.520246613169896 2.6752702061572924 0 1 1
3770 1 49.57658728182631 17.639348307033615 2.6850545135135397 0 0 0
3972 1 0.9628117592543748 21.39673143093914 5.663555431034732 1 0 1
1716 1 6.28281642052132 23.802884579951105 4.086005572287911 1 0 2
835 1 6.299679739670525 19.15643725327873 4.293121338504871 -1 0 0
3933 1 12.396370322576695 18.229160992290893 5.006994656753471 0 0 0
639 1 15.042827691434036 18.485787532827047 6.282263636577889 0 0 0
1478 1 16.74473728613023 19.640888881297357 4.748713904162882 0 0 0
2575 1 20.504145678150877 19.80833416228982 3.5560581448617405 1 0 0
3163 1 19.765857380959478 21.08100737425269 7.686651168169083 1 -1 -1
1157 1 24.283825166423785 16.768798672863383 3.261026167174282 0 0 1
4049 1 21.682933429918698 21.0834066422038 5.787952799835766 1 0 1
3717 1 24.957644101914386 22.051822351610845 5.435888969420971 0 1 1
1700 1 28.56007234631945 18.550634299603868 3.2584783052721265 0 0 1
3598 1 30.188998387722666 20.76779360446858 4.247623205184894 -1 1 2
216 1 36.989739985745935 21.796229575847377 4.220318492843768 0 0 0
3315 1 40.071571478818214 18.853538202818346 3.9058056275009685 -1 -1 1
3152 1 44.34426018867139 20.93343414366367 0.519883103345547 0 1 0
3835 1 42.93606926231383 19.263821175000047 6.849453347694549 0 1 2
2231 1 46.50855369363696 18.374083898869316 5.368877468998838 -1 0 1
3807 1 48.154175520126536 20.782889978751115 4.823881380145319 -1 0 0
981 1 3.5902201659029256 24.19592160319891 4.554660191928083 1 0 0
148 1 7.835649874741887 24.076731714880253 6.234048881024005 1 0 0
2948 1 11.376282668989012 23.476456989736025 4.062012864189742 1 1 0
1905 1 14.132683001644546 21.08101337814874 6.636999737458339 0 -1 0
278 1 29.808519993416837 0.33061550749890367 5.753765011056859 0 0 0
2018 1 45.68252826425429 4.339965932195697 -0.029375398754773546 0 0 0
2946 1 45.82489771990002 23.389070824108618 13.973599006948932 -1 0 1
353 1 22.681984329912936 23.44846987835218 4.219914281888295 0 0 1
1448 1 26.963687152423308 23.717281355208154 5.568893055333517 1 0 1
593 1 29.320483494317887 23.27737185610182 4.107729106404819 1 -1 0
2474 1 34.337814926386194 22.534369639346384 4.317551860015648 0 0 0
2984 1 34.95664786818197 5.035784451939362 16.059019918088264 0 1 1
265 1 39.82920674160341 22.625957794175424 5.2997523558063 1 0 -1
3916 1 5.555933317038663 20.58618049457616 0.31034125183725153 0 0 1
1942 1 43.760363567633064 22.413694438692957 3.304693033797604 0 1 1
2401 1 44.05681694313724 22.596418887474595 5.956194265817159 -1 1 0
2123 1 31.810798119132457 24.55753615772956 7.456333475367819 0 0 0
1864 1 48.84151590186436 24.104092651638755 3.5403553828560703 -1 0 0
2069 1 0.6868311859012272 1.2900281228478239 9.21848272624636 0 -1 1
4113 1 4.860106376848063 3.982228238538574 9.256335362010361 1 1 1
1900 1 6.886024882533453 1.9354896906972758 5.50018957233388 1 0 1
2784 1 9.39181380355837 2.701025955405172 6.402150433140311 0 0 0
1738 1 12.744863373575527 2.224105864475486 5.894357712539982 0 0 1
3051 1 18.515919310813334 23.00827117606224 1.0171802461800075 -1 0 1
270 1 14.121784149821787 1.129279661752233 7.635572050633885 1 0 -1
2408 1 18.76998964394152 10.055408115685825 0.6786905279808162 1 1 0
1869 1 1.5369410452765624 4.283476623028228 15.681942702695146 0 0 1
3949 1 30.53641108285681 10.397965230631524 0.47448817903733576 0 1 1
87 1 10.118740231557423 16.29521205321323 0.700849793501903 0 0 1
2526 1 26.54195873591272 2.185911059890167 8.044582317638463 0 1 0
3304 1 34.01798406114955 1.2301517883694923 7.120338417873987 0 1 0
993 1 33.19788316279787 2.129144961378434 10.081366929911969 -1 0 0
2931 1 37.65716206944164 2.6046109716629093 9.01557443106802 -1 1 0
3653 1 38.547244397970694 0.7522484217362385 5.4324763150265145 0 1 0
3368 1 41.06517255556703 1.6464706962857547 6.552439770407843 -1 1 0
2727 1 36.65237260750428 0.7176281662012156 7.519394856000444 0 0 0
2126 1 12.07334414607287 2.456131815358073 1.6319534180197641 0 0 1
2188 1 47.90239198296259 2.868726996131716 6.736175560748711 0 0 0
1078 1 1.100653284966311 2.7206131120169745 6.6114815744761 1 1 0
1425 1 49.761948379897994 5.721442891411641 7.204997622836458 0 0 2
3426 1 2.302246151479694 4.86604895681088 7.902913968475502 1 0 1
3764 1 9.083081767423986 3.8689144121672916 8.955177595296316 -1 1 1
3883 1 12.908477289134824 4.513737216727775 7.21167451835471 0 0 0
2805 1 15.2676421341372 4.4987204477403875 8.31498407197191 0 1 0
3432 1 20.67077033930838 3.437863505121016 7.111662424238723 0 1 0
943 1 18.972785818006695 5.9549487609353715 8.198435370286981 0 1 1
3628 1 23.458198331596513 5.5223264829451315 8.269211333526165 0 2 0
2300 1 24.90325427739164 3.763888380727401 6.853716069304601 1 1 1
3300 1 31.70136427189099 4.093010606835779 7.9537880033738695 1 1 0
454 1 34.46493961804889 5.073289135790121 6.8391994424617435 -1 0 -1
1586 1 39.24974499852272 4.690188809347909 8.812154809304731 0 -1 0
3303 1 43.58528064407887 3.403451488978798 9.22126917765973 -1 1 0
2923 1 41.67314546685384 4.004525240789446 7.373705172218057 -1 1 0
3334 1 45.237792482138886 4.164481756364969 6.602959355294753 -1 1 1
383 1 0.10047087523880169 7.738858548444851 11.69942411926723 0 0 0
1549 1 3.7176605929673485 8.863560876664584 10.82910480661002 0 0 0
3104 1 7.4900888975716695 7.219623585913628 8.15557404494392 1 2 0
1596 1 5.725763477232916 9.589205362687803 8.484618195575088 0 -1 0
585 1 14.293000986950247 7.420094341144237 7.173767795584778 0 0 0
3785 1 16.169205599756257 7.239552110283745 9.59668221480731 0 1 1
3069 1 15.21716895647512 6.413398545789371 12.109131701306604 0 1 1
2933 1 18.989247947717566 10.005963176053504 8.40087118602702 0 1 0
3175 1 21.355646326786236 6.885718819747585 6.653158383857053 0 1 1
1828 1 25.3584367745607 7.540965413206531 8.836378753905306 -1 1 1
317 1 27.079862645048845 5.4490508046776265 5.773142704124441 1 0 0
3158 1 27.806245521242943 7.017827146533406 7.734863570682618 0 0 0
3546 1 31.961554146146142 6.823038484542545 7.813307887827841 0 2 0
987 1 32.60419429914012 8.743437304045159 9.811050224804925 0 0 1
834 1 37.74198176301737 7.190387480603243 9.19609801422934 1 1 0
25 1 40.7340027161399 9.28754866576492 6.979223677634736 0 -1 0
3282 1 38.638786751046844 9.583359413896 9.185376152654934 -1 0 0
1215 1 43.21601503666491 6.073593304864049 5.804185316008628 0 -1 1
2238 1 46.2679679543876 8.836258828578153 6.325243322995998 -2 1 0
2642 1 47.54124367149279 9.50382607960166 8.514526445291876 -1 1 1
3560 1 47.30160651208829 6.13239522148943 5.896211614744718 -1 1 0
3149 1 1.2584819316614906 9.853899016719236 9.747397716108855 1 1 1
3280 1 49.88950650568831 8.433944214076135 7.672352368285032 -1 0 -1
2374 1 5.523843840694171 10.956220621944052 11.891179336166022 1 1 0
62 1 9.042080873901648 12.164443648786733 8.977404261292753 -1 1 0
2154 1 12.324651786384418 10.593438566632994 3.5461377149242095 1 0 0
631 1 12.088108292155791 9.03670098462617 7.339843309739364 1 0 0
235 1 15.594302869548764 10.008781630358488 9.524346874277732 0 0 0
167 1 18.989811471521588 12.278498028599731 5.463782324662193 0 0 0
768 1 20.891751799463485 12.760007319756824 8.153020122333244 0 0 0
3345 1 21.728576967130167 9.55946578648499 7.024098365853444 -1 2 0
2857 1 29.675715282391437 12.00017970812851 8.027062014025423 0 1 0
2945 1 34.5404283147472 10.535023181603474 8.248354321320493 -1 -1 0
4108 1 34.0734835994137 12.730284337481562 10.329785949716056 0 1 0
1162 1 37.10093221770617 12.03477457654777 5.119189227412623 0 0 1
3637 1 37.05316768566817 11.41989009174874 8.172018478424766 0 0 0
1608 1 41.537441863895644 12.078841270820467 6.2924926539773685 0 0 1
284 1 47.267497645178565 12.287473751102526 8.642092534249203 -1 0 0
3711 1 4.788330440510415 12.877846312209124 9.657367857828282 0 1 1
31 1 4.880721185396903 16.255495777259 10.020524333287991 -1 0 0
3268 1 16.64126749558695 11.301065430554099 7.160995983351595 0 -1 0
1056 1 19.21012673878024 14.858278116637859 8.262791864172705 1 0 1
964 1 23.429449318312823 13.82481694549996 6.752348419178266 0 0 0
1154 1 24.42129902287445 9.856579793267528 7.724830832996113 0 1 1
3979 1 28.134079319146096 9.668833495930025 7.199634514662673 0 0 0
3915 1 25.736754890382674 12.481350576254663 8.442956008610668 0 0 1
1181 1 30.765113046911903 16.30527620612188 6.882342748128405 0 0 1
3336 1 35.13937445301424 12.691100630545197 12.998071465534755 0 -1 0
3203 1 38.83811655312149 14.148119340822063 5.423364056465273 0 1 0
260 1 36.81037190744799 13.776497108128314 9.571185030894831 -1 -1 1
1790 1 43.9986998156946 15.207287056958895 7.331637609689942 0 1 0
1253 1 42.97639916636535 13.991399925829201 9.557107475518954 0 1 0
1857 1 45.63814651372627 13.180043731169237 6.400269130077849 -1 0 1
2779 1 49.15140314834198 13.613935460882685 10.213620364303093 0 0 0
3422 1 1.6185539610511932 18.462862692319828 5.804694826633939 1 1 1
3775 1 5.171159153687345 18.407734420717365 8.307133482182634 0 0 1
2167 1 11.900036207290885 14.799574939115358 8.317830582749153 0 0 1
199 1 14.565315563648827 14.851572622419553 9.123627418752735 1 0 1
3166 1 16.54916251335859 14.140640309805514 7.433998693356605 0 1 0
606 1 20.0689351064535 17.061009307579145 6.934969477946473 0 -1 0
3600 1 23.994984955199076 16.556401600262827 9.466544001010202 0 1 1
3980 1 31.50505439929741 17.693854346055094 10.874056906253417 1 1 1
801 1 30.148804318306013 18.471366375241423 8.352397504418287 0 0 -1
399 1 36.12424588024074 18.144024569334377 10.719853494607902 1 0 -1
1737 1 45.80589126244874 17.420347184764417 8.011732274404539 -1 0 1
2646 1 48.16000228442674 18.20695354037139 9.311873479823662 -1 0 0
460 1 0.25257996814452544 20.290180624668167 8.815137725442897 1 0 0
127 1 3.146239387840064 20.205908087344966 9.17106906944807 0 -1 0
4169 1 7.705371661093122 20.030960816815494 6.688484588785093 0 0 1
866 1 9.932741945648488 18.47327513758478 6.826126492103196 -1 0 -1
1890 1 15.59271275904452 17.525959989032746 8.824597929096186 1 1 1
3904 1 16.16505204584966 21.646569352086193 9.638593961170885 1 0 1
804 1 20.002701859079515 18.756555649657088 9.055235779700439 1 0 0
1662 1 17.1577164410445 21.58784309961954 6.99634380475931 0 1 0
1259 1 23.907663062916907 18.958316798243786 6.418157308176965 0 -1 0
734 1 27.508843478247755 18.601365918231206 9.117692235550516 1 0 0
47 1 27.767419224541957 23.354869430004808 8.198577607149293 0 -1 0
1370 1 31.05869979650963 20.53133219800732 6.850220587440837 0 1 1
3586 1 33.8836430934888 22.48155699251501 7.043431592437981 0 0 1
60 1 33.4951162406531 19.254891376610107 10.374475228187315 0 1 0
755 1 36.6929660068392 19.037802303827974 6.7732168228785525 0 0 0
875 1 39.38020201597277 14.744919925766938 8.220359485117166 0 -1 0
1578 1 40.29258111935126 18.08826580077315 6.793709185924414 0 0 0
3097 1 45.58953245666281 20.683214972012422 6.926100534474921 0 0 0
1184 1 47.18437309867211 21.00640016004191 9.315166431080332 -2 -1 0
256 1 2.277446194623799 23.51040979898038 7.25384030957698 1 0 0
787 1 49.172269211065206 22.58433345634358 7.321658492327748 -1 0 0
1818 1 4.350616784837334 22.554719032327853 8.699446538785226 -1 0 0
3041 1 7.127748397918958 22.29939551556813 8.18371015223942 1 0 2
99 1 8.883890218518099 23.32837275609646 10.156890224863867 -1 -1 1
977 1 9.357184913922987 21.85425919809487 5.418692582093371 0 0 0
1648 1 43.595414940502444 22.558596430091487 15.361502845713467 0 0 0
1789 1 20.576872442458356 22.96216450405477 9.599688031091931 0 1 1
3038 1 23.02297760345775 24.216326711042232 8.42394488752329 0 1 0
3339 1 24.210274323673158 21.466276531899005 7.990795038626349 0 0 0
974 1 25.72895504182165 24.261073146599927 12.747511187193377 0 -1 0
10 1 30.237762979108005 22.55614569074362 8.53155055376078 0 0 -1
688 1 40.320439504312155 21.372195447085975 16.40669653064808 -1 0 -1
2778 1 15.118251975834152 23.781181355526225 5.6230159059531015 -1 0 0
1318 1 37.63136254683439 23.313878909314923 9.118046664093214 0 0 1
2153 1 34.640784673779045 24.229211240068036 0.4012268372939063 0 0 0
2358 1 17.076816037789598 2.258457290010953 13.934139314274827 1 1 0
4013 1 41.80736741122078 21.9457526932198 7.39402313399378 0 0 1
3059 1 44.79640020131998 21.861528303565184 11.208497726761168 -2 0 0
509 1 1.6155319829540153 1.520382149712374 11.748505718850879 1 0 0
498 1 5.200088660700384 1.4524132483870218 10.461734609697809 0 1 -1
2114 1 6.958084012925849 5.439135979575078 10.024339956747324 0 0 1
3565 1 11.948275961661812 1.0154042296080426 10.742596081642095 1 0 1
1656 1 17.671079747836753 1.5325456894884995 9.934878786750282 0 0 1
241 1 21.32812196513339 0.9255933393889246 8.646991375681853 0 0 0
680 1 21.713136295226423 2.284430277751736 10.95813909184755 1 -1 0
358 1 27.195897579979995 0.12209464209459525 12.33304554887829 1 0 1
642 1 26.626907764901507 21.514923726274723 0.7130201330753133 -1 0 0
2585 1 30.0325395356337 0.16399903173846342 11.043335855360798 1 1 0
3058 1 33.39550367203244 3.197656218203659 12.839438535480038 0 1 1