
# Create simulation box of size 50 x 50 x 50 Angstrom
#
lattice	            sc 1
Lattice spacing in x,y,z = 1.0000000 1.0000000 1.0000000
region 	            all block 0 50 0 50 0 50 units box
create_box          1 all
Created orthogonal box = (0.0000000 0.0000000 0.0000000) to (50.000000 50.000000 50.000000)
  1 by 2 by 3 MPI processor grid

# fill box with 4175 randomly distributed atoms
#
create_atoms        1 random 4175 63782 all
Created 4175 atoms
  create_atoms CPU = 0.001 seconds
mass                1 18.015

# Define potential
#
pair_style          sw
pair_coeff          * * ML_mW.sw mW
Reading sw potential file ML_mW.sw with DATE: 2019-02-27

# Run minimization
#
minimize            1.0e-8 1.0e-8 10000 1000
WARNING: Using 'neigh_modify every 1 delay 0 check yes' setting during minimization (../min.cpp:187)
Neighbor list info ...
  update every 1 steps, delay 0 steps, check yes
  max neighbors/atom: 2000, page size: 100000
  master list distance cutoff = 6.0032907
  ghost atom cutoff = 6.0032907
  binsize = 3.0016454, bins = 17 17 17
  1 neighbor lists, perpetual/occasional/extra = 1 0 0
  (1) pair sw, perpetual
      attributes: full, newton on
      pair build: full/bin/atomonly
      stencil: full/bin/3d
      bin: standard
Per MPI rank memory allocation (min/avg/max) = 4.255 | 4.258 | 4.261 Mbytes
Step Temp E_pair E_mol TotEng Press 
       0            0    7792709.3            0    7792709.3    5898794.3 
     630            0   -45180.336            0   -45180.336   -154.07449 
Loop time of 1.21471 on 6 procs for 630 steps with 4175 atoms

99.2% CPU use with 6 MPI tasks x no OpenMP threads

Minimization stats:
  Stopping criterion = max force evaluations
  Energy initial, next-to-last, final = 
      7792709.32924461  -45180.0188663597   -45180.336116598
  Force two-norm initial, final = 2.0191930e+08 4.9721331
  Force max component initial, final = 1.0948746e+08 0.73126211
  Final line search alpha, max atom move = 0.053306038 0.038980685
  Iterations, force evaluations = 630 1000

MPI task timing breakdown:
Section |  min time  |  avg time  |  max time  |%varavg| %total
---------------------------------------------------------------
Pair    | 0.89242    | 1.0231     | 1.0977     |   6.3 | 84.23
Neigh   | 0.024658   | 0.026081   | 0.027666   |   0.7 |  2.15
Comm    | 0.067559   | 0.14308    | 0.27579    |  17.1 | 11.78
Output  | 0          | 0          | 0          |   0.0 |  0.00
Modify  | 0          | 0          | 0          |   0.0 |  0.00
Other   |            | 0.02245    |            |       |  1.85

Nlocal:        695.833 ave         704 max         685 min
Histogram: 1 1 0 0 1 0 0 1 0 2
Nghost:        1494.17 ave        1515 max        1468 min
Histogram: 1 1 0 0 0 0 1 1 1 1
Neighs:        0.00000 ave           0 max           0 min
Histogram: 6 0 0 0 0 0 0 0 0 0
FullNghs:      19997.0 ave       20462 max       19320 min
Histogram: 1 1 0 0 0 0 0 2 0 2

Total # of neighbors = 119982
Ave neighs/atom = 28.738204
Neighbor list builds = 26
Dangerous builds = 0

# Add velocity/set timestep
#
velocity            all create ${TEMP} 120598 rot yes dist gaussian
velocity            all create 230 120598 rot yes dist gaussian
timestep            5.0

# Define output
#
compute	            1 all msd
thermo	            100
thermo_style        custom step temp press vol etotal ke pe c_1[4] density

# Neighbor lists
#
neigh_modify        delay 0 every 1 check yes

# Set fixes
#
fix                 1 all momentum 10 linear 1 1 1 rescale
fix                 2 all nve
fix                 3 all temp/csvr ${TEMP} ${TEMP} 500.0 928347
fix                 3 all temp/csvr 230 ${TEMP} 500.0 928347
fix                 3 all temp/csvr 230 230 500.0 928347
fix                 4 all press/berendsen iso ${PRES} ${PRES} 1000.0 modulus 20000
fix                 4 all press/berendsen iso 1 ${PRES} 1000.0 modulus 20000
fix                 4 all press/berendsen iso 1 1 1000.0 modulus 20000

# Run 0.5 ns equilibration
#
dump                1 all custom 1000 eq.${NAME}.dump id type x y z vx vy vz
dump                1 all custom 1000 eq.liquid_density_MLmW.dump id type x y z vx vy vz
run                 100000
Per MPI rank memory allocation (min/avg/max) = 3.506 | 3.508 | 3.511 Mbytes
Step Temp Press Volume TotEng KinEng PotEng c_1[4] Density 
     630          230    892.42114       125000   -42318.699    2861.6373   -45180.336 2.7295415e-33   0.99914793 
     700    146.19195   -45.071967    125494.51   -41438.382    1818.9058   -43257.288   0.27428249   0.99521079 
     800    181.66712   -311.21742    125369.97   -40633.928    2260.2844   -42894.212   0.64574317    0.9961994 
     900     199.1411     47.14336    125214.38   -40182.879    2477.6939   -42660.573    1.1080673   0.99743728 
    1000     213.0461      85.6448    125386.09   -39875.753    2650.6985   -42526.452    1.5567432   0.99607137 
    1100    221.16168    85.826262    125454.67   -39679.123    2751.6717   -42430.795    2.1088932   0.99552684 
    1200    221.87104   -59.629887    125677.39   -39697.855    2760.4976   -42458.353    2.5758327   0.99376261 
    1300    222.14684   -22.727089    125878.55     -39659.3    2763.9291   -42423.229    2.9789585   0.99217456 
    1400    223.58125    123.66876    125880.23   -39670.241    2781.7758   -42452.017    3.5077302   0.99216129 
    1500    224.65362    4.6182985    126093.51   -39609.497    2795.1182   -42404.615     3.948629   0.99048314 
    1600     230.6955    192.35195    126439.92   -39510.344    2870.2906   -42380.634    4.4218315   0.98776948 
    1700    229.09326    9.7616825     126107.2   -39531.608    2850.3556   -42381.964     4.933893   0.99037558 
    1800    223.73846   -10.755904    125989.92   -39623.735    2783.7318   -42407.466    5.2686962   0.99129745 
    1900    229.02676   -163.08511    126029.19    -39596.61    2849.5283   -42446.139     5.746536   0.99098861 
    2000    235.24869    98.921512    126084.43    -39556.52     2926.941   -42483.461    6.2904527   0.99055445 
    2100    228.50355    35.210153    126353.63    -39509.44    2843.0186   -42352.458    6.6993947   0.98844404 
    2200     230.1349    90.792792    126184.54   -39545.965    2863.3157   -42409.281    7.1079675   0.98976859 
    2300    229.23425    10.875909    126060.08   -39519.044    2852.1099   -42371.154    7.5618268   0.99074575 
    2400    235.09347    94.508968    126170.55   -39531.404    2925.0097   -42456.414     8.003634   0.98987828 
    2500    234.94934    270.36582    126471.55    -39481.69    2923.2164   -42404.906    8.4503312   0.98752239 
    2600    238.23916    278.60473       126571   -39435.969    2964.1481   -42400.117     8.962866   0.98674648 
    2700    233.80703   -56.953611    126512.01   -39466.024    2909.0039   -42375.028    9.2622645   0.98720663 
    2800    233.74122    44.581023    126431.09   -39442.577    2908.1851   -42350.762    9.7162149   0.98783843 
    2900    230.61817    181.05451    126744.03   -39525.002    2869.3284    -42394.33    10.223897   0.98539941 
    3000    232.94686     38.48213    126651.56   -39555.653    2898.3018   -42453.955    10.592834   0.98611886 
    3100    233.30663   -201.93557    126721.52   -39531.088     2902.778   -42433.866    10.980384   0.98557444 
    3200     231.5955   -180.62632    126645.18   -39591.203    2881.4883   -42472.691    11.291277    0.9861685 
    3300    234.49977    135.57116    126409.82   -39578.035     2917.623   -42495.658    11.606631   0.98800464 
    3400     228.9782    22.876567    126455.03   -39623.594    2848.9242   -42472.518    12.101452   0.98765144 
    3500    234.67107    382.06966    126801.75   -39665.947    2919.7542   -42585.701    12.709429   0.98495088 
    3600    228.62929    114.33055    126774.82   -39714.092    2844.5831   -42558.675    13.046727   0.98516009 
    3700    226.86801    -53.22809    126940.91   -39782.106    2822.6693   -42604.775    13.360505   0.98387106 
    3800    229.56345   -59.510999    126908.56   -39738.194    2856.2058     -42594.4    13.845009   0.98412189 
    3900    229.67439   -179.83142    126664.52   -39778.783    2857.5861   -42636.369    14.180588   0.98601795 
    4000     226.7504   -23.710205    126872.31   -39773.102     2821.206   -42594.308    14.357957   0.98440305 
    4100    232.00793   -10.955507     126883.5    -39777.55    2886.6197    -42664.17    14.732672   0.98431622 
    4200    230.40401    82.779608    126520.65   -39792.603     2866.664   -42659.266    15.036124   0.98713919 
    4300    230.41719    67.239238    126530.27    -39806.89    2866.8279   -42673.718    15.441878   0.98706417 
    4400    229.14376    63.347501    126872.46   -39792.409    2850.9841   -42643.393    15.552054   0.98440187 
    4500    225.20977   -44.945075    126990.35   -39783.905    2802.0378   -42585.943    15.886708   0.98348808 
    4600    225.55535    36.154484    126858.82    -39825.89    2806.3374   -42632.227    16.273368   0.98450772 
    4700    233.63131    125.03477    126902.88   -39739.588    2906.8177   -42646.406    16.653857   0.98416595 
    4800    228.52538   -233.86919    126887.84   -39799.607    2843.2902   -42642.897    16.953367   0.98428256 
    4900    234.11215    141.71691    126949.68   -39678.317    2912.8002   -42591.117    17.352486   0.98380315 
    5000    234.23811    133.85106    127069.57   -39613.917    2914.3674   -42528.285    17.811583   0.98287493 
    5100    231.07704   -8.4183866    127235.95   -39685.953    2875.0377   -42560.991    18.168194   0.98158964 
    5200    231.19816   -26.409837    127145.98     -39746.7    2876.5446   -42623.245    18.348797   0.98228421 
    5300    230.53958   -124.97647     127107.6   -39707.917    2868.3506   -42576.268     18.58094   0.98258083 
    5400    229.28864   -11.960528    127009.65   -39742.169    2852.7866   -42594.956    18.931168   0.98333861 
    5500    229.35687    72.311667    126883.81   -39758.305    2853.6355   -42611.941     19.24352   0.98431388 
    5600    227.97739   -161.00004    126934.04   -39769.693    2836.4722   -42606.165    19.462603    0.9839243 
    5700     225.9015    33.090507    126985.43   -39765.746    2810.6442    -42576.39    19.579277   0.98352618 
    5800    226.79864   -89.611632    126838.28   -39801.258    2821.8062   -42623.064    20.004609   0.98466716 
    5900    221.24092    100.05361    126797.32   -39838.375    2752.6576   -42591.033    20.047692   0.98498528 
    6000    226.79179   -107.66539     126963.6    -39826.24     2821.721   -42647.961    20.332499   0.98369529 
    6100    230.92621   -167.79448    127113.85   -39753.195    2873.1611   -42626.356    20.794609   0.98253249 
    6200    230.11386   -43.627308    127083.63   -39829.153     2863.054   -42692.207    21.034399   0.98276616 
    6300    228.15839   -56.415603    127006.05   -39787.865    2838.7241   -42626.589    21.355661    0.9833665 
    6400    226.69948    46.816072    126993.32   -39772.763    2820.5725   -42593.335    21.625371   0.98346508 
    6500      230.503   -74.903268    126993.21   -39721.396    2867.8955   -42589.292    21.928283   0.98346589 
    6600    229.63379   -33.096563    126848.57    -39808.63    2857.0809   -42665.711    22.135826   0.98458731 
    6700    224.25284    -1.906301    126934.26   -39860.946    2790.1317   -42651.077    22.495915   0.98392263 
    6800    226.20753    -15.43889    126899.04   -39779.042    2814.4518   -42593.493    22.764577    0.9841957 
    6900    233.34387    122.32736    126813.15    -39714.51    2903.2413   -42617.752    23.174827   0.98486227 
    7000    232.37107   -8.1410855    126898.12   -39700.547    2891.1379   -42591.685    23.657291   0.98420283 
    7100    227.84516    131.82375     127131.3    -39739.06    2834.8269   -42573.887    24.049957   0.98239765 
    7200    227.45955   -231.01747       126916    -39786.75    2830.0292    -42616.78    24.312312    0.9840642 
    7300    223.66018   -57.157555    126899.77   -39829.067    2782.7578   -42611.825    24.629166   0.98419009 
    7400    224.49285    24.510076    126995.55   -39852.622    2793.1178    -42645.74    24.995922   0.98344779 
    7500    227.14802   -64.096923    126701.29   -39809.247    2826.1532     -42635.4     25.33704   0.98573179 
    7600    223.00215   -20.439494    126839.09   -39898.687    2774.5707   -42673.258    25.698052   0.98466086 
    7700     227.6704    52.926926    126908.07   -39785.646    2832.6526   -42618.299    25.768678   0.98412568 
    7800    233.29182   -16.112973    126986.26   -39756.252    2902.5938   -42658.845    26.037862   0.98351969 
    7900    230.03357    315.78805     127258.7   -39820.969    2862.0549   -42683.024    26.504789   0.98141417 
    8000    227.38705    31.071866    127276.78   -39795.375    2829.1272   -42624.502    26.968413   0.98127475 
    8100    223.51354   -115.18237    127311.72   -39869.073    2780.9333   -42650.007    27.322989   0.98100547 
    8200    222.80456    14.558342    127161.72   -39889.787    2772.1123     -42661.9    27.425519   0.98216265 
    8300    228.51732    52.166084    127239.69   -39880.532    2843.1899   -42723.722      27.7614   0.98156081 
    8400    230.52197    76.597875    127290.32   -39840.859    2868.1316   -42708.991    27.972724   0.98117039 
    8500     229.4224    169.88787    127472.67   -39772.072    2854.4508   -42626.523    28.123256   0.97976683 
    8600    226.64549    170.93231    127616.36   -39797.904    2819.9008   -42617.804    28.503322   0.97866362 
    8700    232.50385   -242.87915     127667.7   -39785.766      2892.79   -42678.556    28.965303   0.97827012 
    8800    226.84061    116.18729     127492.9   -39822.437    2822.3285   -42644.765    29.296161   0.97961134 
    8900    226.45415    48.027706    127598.61   -39909.744    2817.5201   -42727.264    29.469405   0.97879977 
    9000    225.37844    194.75773    127512.13   -39856.416    2804.1362   -42660.552    29.848955    0.9794636 
    9100    227.98508    -148.8989    127632.44   -39939.354    2836.5679   -42775.922    30.171953   0.97854037 
    9200    229.40669    42.527466    127602.74   -39846.962    2854.2554   -42701.217    30.548995   0.97876812 
    9300    223.46559   -27.516734       127566   -39901.599    2780.3368   -42681.936    30.792062   0.97904996 
    9400    225.58154    191.45473    127726.78   -39853.056    2806.6632   -42659.719    30.842486    0.9778176 
    9500    227.23826    204.62016    127772.47   -39864.905     2827.276   -42692.181    31.299305   0.97746791 
    9600    230.71904    62.702021    127797.01   -39843.562    2870.5835   -42714.146    31.748346   0.97728024 
    9700    231.57062     -72.1012    127611.51   -39784.005    2881.1787   -42665.184    32.039242   0.97870082 
    9800    226.05711   -90.102051    127483.75   -39859.883    2812.5802   -42672.463    32.006871   0.97968164 
    9900    228.44843    103.87801    127424.68   -39934.398    2842.3328    -42776.73    32.215036   0.98013584 
   10000    224.81068   -134.42678    127303.63   -39918.572    2797.0723   -42715.645     32.41849   0.98106783 
   10100    227.01365     6.291244    127275.63   -39865.696    2824.4814   -42690.178     32.65574   0.98128358 
   10200    227.27634   -98.574141    127252.49   -39903.471    2827.7497   -42731.221    33.017309   0.98146207 
   10300    230.18504    4.1680245    127145.82   -39893.699    2863.9395   -42757.639    33.231437   0.98228545 
   10400    227.83539   -20.141688    127005.06   -39830.717    2834.7055   -42665.422    33.699162   0.98337415 
   10500    228.73291   -53.852712    126859.91   -39819.568    2845.8723    -42665.44    33.895913   0.98449932 
   10600    233.92036    215.47061    127023.08   -39767.723     2910.414   -42678.137    34.326085   0.98323465 
   10700    232.12234   -6.7977751    127075.67   -39778.073    2888.0432   -42666.117    34.742238   0.98282771 
   10800    232.26308    53.795011    127206.38   -39770.513    2889.7943   -42660.307    35.052334   0.98181781 
   10900    232.43897   0.29326856    127183.26   -39802.381    2891.9827   -42694.364    35.065578   0.98199634 
   11000     229.9337    25.206245    127419.41   -39791.103    2860.8124   -42651.915    35.355285   0.98017631 
   11100    229.86152    195.24947    127285.31   -39825.247    2859.9143   -42685.162    35.570338   0.98120898 
   11200    227.27149   -11.970816    127318.13   -39807.289    2827.6895   -42634.979     35.77825   0.98095602 
   11300    227.10812   -192.98189    127214.77   -39798.045    2825.6568   -42623.702    36.069908   0.98175309 
   11400    227.30303    -171.8539     127074.1   -39797.559    2828.0819   -42625.641    36.224152   0.98283986 
   11500     222.7145   -52.553371    127126.26   -39812.042    2770.9918   -42583.034    36.556529   0.98243661 
   11600    230.09536   -86.777376    126970.83   -39817.709    2862.8237   -42680.533     36.81544   0.98363925 
   11700    234.59101    4.1803672    127349.63    -39709.76    2918.7581   -42628.518     37.01324   0.98071342 
   11800    229.56911   -299.76057    127062.74   -39783.388    2856.2761   -42639.665    37.333075    0.9829277 
   11900    225.91473   -201.95931    127025.53    -39780.76    2810.8087   -42591.569    37.506153    0.9832157 
   12000    230.30536    152.46758    126962.89   -39766.018    2865.4366   -42631.454    37.616058   0.98370079 
   12100     230.7101    113.30932    127180.55   -39712.566    2870.4723   -42583.038    37.955207   0.98201723 
   12200    235.11192   -102.38899    127000.45   -39722.494    2925.2393   -42647.733    38.218429   0.98340985 
   12300    231.26275      156.167    127261.81   -39762.223    2877.3483   -42639.571    38.343593   0.98139019 
   12400    231.31812   -89.151649    127130.05   -39747.157    2878.0372   -42625.194     38.56146   0.98240733 
   12500    225.17741    107.79067    127106.76   -39831.433    2801.6351   -42633.068    38.704914   0.98258735 
   12600    234.82276    49.497195    126955.05   -39756.245    2921.6416   -42677.887    39.145857   0.98376153 
   12700     234.1847   -64.651162    126928.27   -39728.555    2913.7029   -42642.258    39.317363   0.98396903 
   12800    230.54354   -1.2274277    126970.12   -39700.614       2868.4   -42569.014    39.725569   0.98364474 
   12900    231.88886   -4.1876382    127245.37   -39748.884    2885.1383   -42634.022    40.212037   0.98151697 
   13000    235.34446   -106.74109    127235.94   -39676.541    2928.1325   -42604.674     40.33744   0.98158972 
   13100     233.8964    110.04043    126999.72   -39682.771    2910.1159   -42592.887    40.771426   0.98341548 
   13200    237.14749    47.047714    127323.99   -39595.016    2950.5657   -42545.582    41.103744   0.98091094 
   13300    232.09804    77.785374    127165.19    -39648.74    2887.7409   -42536.481    41.538764   0.98213586 
   13400    228.70286    90.937291    127297.93   -39735.876    2845.4984   -42581.374    42.222485   0.98111174 
   13500    227.45244   -82.071064    127455.57   -39770.632    2829.9408   -42600.573     42.58249   0.97989824 
   13600    225.57471   -31.657029    127305.54   -39794.772    2806.5783    -42601.35    42.621445   0.98105307 
   13700    225.32792   -45.911824    127226.29   -39799.492    2803.5077   -42602.999    42.965295   0.98166418 
   13800    227.97805    134.06895    127203.42   -39720.827    2836.4804   -42557.307    43.102296    0.9818407 
   13900    230.65899   -77.601867    127301.93   -39797.874    2869.8364    -42667.71     43.63518   0.98108091 
   14000    231.98058   -124.87563     127205.7   -39796.884    2886.2795   -42683.163     43.87901   0.98182305 
   14100    233.78426    107.51361    127135.33   -39804.724    2908.7207   -42713.445    44.103467   0.98236652 
   14200    225.99406   -120.07822    127111.46   -39852.359    2811.7957   -42664.155    44.039329   0.98255098 
   14300    230.71313    163.10058    127138.88   -39907.669    2870.5099   -42778.179    44.096708   0.98233909 
   14400    228.81956    -62.85075    127469.13   -39888.291    2846.9503   -42735.241    44.538824   0.97979402 
   14500    232.11957    -51.99778    127480.53   -39822.733    2888.0087   -42710.742    44.922816   0.97970639 
   14600    236.00198   -40.131883    127516.76   -39833.542    2936.3133   -42769.855    44.947846   0.97942804 
   14700    231.27887    8.8930019    127563.94   -39879.108    2877.5489   -42756.657    45.139071   0.97906579 
   14800    223.06063   -93.550536    127562.02   -39890.582    2775.2984    -42665.88    45.515516   0.97908052 
   14900    225.16956   -4.1404368    127682.41   -39956.456    2801.5374   -42757.994     45.58267   0.97815735 
   15000    223.18503   -124.40096    127601.05   -39956.288    2776.8461   -42733.134    45.582586   0.97878107 
   15100    221.14222    18.955581    127492.73   -39985.623    2751.4296   -42737.052    45.947867   0.97961268 
   15200     225.6761    107.12597    127362.33    -39918.32    2807.8397   -42726.159    46.289685   0.98061561 
   15300    228.03859     23.43036    127348.91   -39942.095    2837.2336   -42779.328    46.457344   0.98071894 
   15400    224.50867    3.8089554    127396.82   -39920.715    2793.3147    -42714.03     46.57512   0.98035018 
   15500    226.75767    19.530587    127226.49   -39874.392    2821.2965   -42695.689    46.776268   0.98166264 
   15600    231.24163    139.86441    127212.09   -39803.738    2877.0855   -42680.823    47.118066   0.98177376 
   15700    226.68949    5.3583117       127043   -39896.325    2820.4482   -42716.774    47.407376   0.98308046 
   15800    229.47164   -137.97679       126841   -39884.164    2855.0635   -42739.227    47.737545   0.98464607 
   15900    225.32818   -82.127222    127180.54   -39935.369    2803.5109    -42738.88     47.97503   0.98201731 
   16000    233.48739   -105.73234    127058.28   -39868.879    2905.0271   -42773.906    48.180252   0.98296226 
   16100    226.69048    -37.14403    127114.79   -39813.655    2820.4605   -42634.115    48.625984   0.98252526 
   16200    230.08776    137.94995    127177.94   -39862.365    2862.7292   -42725.094    48.917346   0.98203737 
   16300    228.19249   -64.266004    127123.19   -39876.077    2839.1484   -42715.225    49.367193   0.98246034 
   16400    231.10187   -21.444151    127315.77   -39777.927    2875.3466   -42653.274     49.68254   0.98097424 
   16500    229.87421   -145.09912    127047.76   -39774.653    2860.0722   -42634.726    49.619812   0.98304364 
   16600     231.2608   -58.454289    127155.98   -39758.284     2877.324   -42635.608    49.939448   0.98220698 
   16700    229.80037    57.136824    126997.17   -39803.605    2859.1535   -42662.758    50.206286   0.98343521 
   16800    231.61024   -82.422866    127080.57   -39790.282    2881.6717   -42671.954    50.594093   0.98278986 
   16900    228.44111   -117.12104    126944.36   -39748.563    2842.2417   -42590.805    51.144784   0.98384431 
   17000    231.45109   -69.102936    126886.08   -39768.043    2879.6916   -42647.735     51.35721   0.98429627 
   17100    234.32241    7.0842479    126881.16   -39694.319    2915.4163   -42609.735    51.645984   0.98433444 
   17200    233.03205   -35.159923    126884.59   -39709.765    2899.3618   -42609.126    52.092729   0.98430779 
   17300    233.86675   -171.39816    126799.92   -39776.242    2909.7469   -42685.989    52.361363   0.98496507 
   17400    228.71092   -309.89169    126713.12   -39799.746    2845.5987   -42645.345     52.67769   0.98563979 
   17500    232.44845    79.278247    126759.54   -39789.557    2892.1006   -42681.657    52.923836   0.98527883 
   17600    230.61216    205.26439     126816.7   -39760.772    2869.2537   -42630.026     53.58045   0.98483472 
   17700    232.10252   -17.085599    126991.57   -39775.891    2887.7966   -42663.688    53.740963   0.98347859 
   17800      230.531   -80.806427    127086.29   -39787.293     2868.244   -42655.537    54.148336   0.98274555 
   17900    237.14315   -7.0441132    126923.79   -39749.855    2950.5116   -42700.367    54.285383   0.98400383 
   18000    233.05748   -141.49901    126859.19   -39704.442    2899.6781    -42604.12    54.671043    0.9845049 
   18100    231.89558    81.473399    127124.68   -39793.471    2885.2219   -42678.693    55.161238   0.98244878 
   18200    230.37425   -17.174845    127387.31       -39786    2866.2937   -42652.293    55.637003   0.98042332 
   18300    233.95761   -19.919702    127572.03   -39707.857    2910.8774   -42618.735    56.003987    0.9790037 
   18400    231.55098   -49.283381    127495.06   -39804.677    2880.9344   -42685.611    56.324802   0.97959471 
   18500    234.46693   -185.61676    127563.06   -39790.296    2917.2143    -42707.51    56.399809   0.97907252 
   18600    231.56882   -163.19727    127507.57   -39833.599    2881.1564   -42714.756    56.911478   0.97949862 
   18700     224.1088    115.63133    127493.22   -39802.712    2788.3396   -42591.052    57.257375   0.97960891 
   18800    237.62276   -54.957975    127675.89   -39759.423    2956.4788   -42715.902    57.791177   0.97820732 
   18900    233.61962    95.480412    127635.81   -39806.288    2906.6722    -42712.96    58.330612   0.97851451 
   19000    232.05672   -113.49979    127692.42    -39797.09    2887.2268   -42684.317     58.51876    0.9780807 
   19100     227.6471    -22.63213    127491.42   -39855.181    2832.3627   -42687.543    58.769864   0.97962275 
   19200    231.36168   -15.045901    127455.23   -39832.433    2878.5792   -42711.012    59.134013   0.97990084 
   19300    234.15033   -98.006848    127489.74   -39772.206    2913.2753   -42685.481    59.499313   0.97963565 
   19400    230.77151   -77.657082    127684.56   -39784.562    2871.2364   -42655.798    59.721244   0.97814094 
   19500     231.9429    2.4301916    127647.05   -39759.158    2885.8106   -42644.968    59.860397    0.9784283 
   19600    230.50687   -126.91578     127553.6   -39791.174    2867.9437   -42659.117    60.386216   0.97914516 
   19700     234.7508    -54.71241    127184.55   -39759.793    2920.7462    -42680.54    60.272568   0.98198631 
   19800    227.39425    138.20125    127390.08   -39778.193    2829.2168   -42607.409     60.68267     0.980402 
   19900    230.85947   -16.722525    127349.47   -39778.221    2872.3307   -42650.551    60.831762   0.98071465 
   20000     232.9815   -178.46523    127438.39   -39836.842    2898.7328   -42735.574    60.996649   0.98003039 
   20100    231.29958   -85.587006    127235.65   -39808.752    2877.8065   -42686.559    61.223303   0.98159193 
   20200    229.27397    239.25319    127333.91   -39858.327    2852.6041   -42710.931     61.94344   0.98083451 
   20300    230.67754   -21.409539    127413.87   -39881.975    2870.0672   -42752.042     62.06066   0.98021898 
   20400     224.7711    67.324462    127368.42   -39880.557    2796.5798   -42677.137     61.96814   0.98056875 
   20500    228.53485    248.31783    127595.87   -39830.038    2843.4081   -42673.446     62.38116   0.97882078 
   20600    231.41385    -33.61929     127483.9   -39850.862    2879.2282    -42730.09    62.511916   0.97968053 
   20700    229.98794   -81.004669    127266.19   -39788.771    2861.4872   -42650.259    62.765853   0.98135639 
   20800    231.10064     263.1107    127458.33   -39794.998    2875.3313    -42670.33    63.120874   0.97987706 
   20900    228.69292     55.77099    127442.83   -39833.414    2845.3747   -42678.789    63.766214   0.97999622 
   21000    223.93281    215.05527    127494.75   -39917.647    2786.1499   -42703.797    64.012998    0.9795971 
   21100    229.77408    7.5286332    127509.01   -39940.357    2858.8264   -42799.183    64.043675   0.97948757 
   21200    227.03308    30.165941    127608.04   -39901.842    2824.7231   -42726.565    64.268419   0.97872746 
   21300     228.4795   -91.630747    127619.93    -39901.57    2842.7194    -42744.29     64.49812   0.97863623 
   21400    223.89777   -74.603239     127429.6   -39865.344    2785.7139   -42651.058    64.450643   0.98009796 
   21500      228.388    10.493456    127381.82   -39861.291    2841.5809   -42702.872    64.788321   0.98046562 
   21600    231.09822   -166.85062     127412.5    -39809.77    2875.3013   -42685.071     64.99611   0.98022948 
   21700    230.38078    240.04653    127284.96   -39772.721    2866.3749   -42639.096    65.281128   0.98121171 
   21800    231.46836   -272.18382    127341.94   -39756.596    2879.9065   -42636.502     65.80681   0.98077264 
   21900    227.36051    162.54054     127419.7   -39775.817     2828.797   -42604.614    66.126598    0.9801741 
   22000    228.66239    69.657729    127322.51   -39824.319    2844.9949   -42669.314    66.117117   0.98092235 
   22100    231.98876    64.209345    127325.75   -39738.233    2886.3812   -42624.614     66.64804   0.98089739 
   22200    230.27367   -39.514931    127172.95   -39775.426    2865.0422   -42640.468    66.872497   0.98207593 
   22300    232.83927   -63.862443    127172.56   -39763.765    2896.9632   -42660.728    67.506124   0.98207895 
   22400    229.99547   -25.793252     127031.3   -39729.109    2861.5809    -42590.69     67.63341   0.98317102 
   22500    227.89545   -193.83459    127112.26   -39723.873    2835.4526   -42559.326    68.072904   0.98254481 
   22600    229.65325   -118.59915     126999.3   -39690.577     2857.323     -42547.9    68.740057   0.98341871 
   22700    227.04042    128.76025    126747.35    -39693.61    2824.8144   -42518.425    69.108597   0.98537359 
   22800    228.82069    78.059908    126845.64   -39667.524    2846.9644   -42514.488    69.379713   0.98461005 
   22900    235.55298    71.061007    126996.66   -39696.803    2930.7269    -42627.53    69.428559   0.98343921 
   23000    230.49097   -111.35106    127261.09    -39664.61    2867.7458   -42532.356    69.583466   0.98139573 
   23100    231.03996   -105.37241    127239.29    -39778.94    2874.5764   -42653.517    69.618638    0.9815639 
   23200    231.08237   -157.04717    127309.17   -39730.751     2875.104   -42605.855    70.338788   0.98102511 
   23300    229.30351    27.634795    127211.45   -39799.542    2852.9716   -42652.514    70.953795   0.98177872 
   23400    230.97518   -44.809194    127158.11   -39728.602    2873.7704   -42602.373    71.444803   0.98219053 
   23500    228.46219   -87.376658    127154.37   -39783.605     2842.504   -42626.109    71.799275   0.98221941 
   23600    232.92129   -75.850919    127100.13   -39775.684    2897.9836   -42673.668    71.937776   0.98263859 
   23700    226.97848     10.46203    127332.52   -39811.349    2824.0438   -42635.393    72.289583   0.98084516 
   23800    222.33741   -74.766956    127027.29   -39858.041    2766.3001   -42624.341     72.45757   0.98320202 
   23900    226.66225   -132.46908    127060.16   -39865.361    2820.1093   -42685.471    72.527604   0.98294769 
   24000    230.59013    29.203251    127270.43   -39794.321    2868.9796   -42663.301    73.025697   0.98132375 
   24100    230.37716    62.822595    127214.26   -39804.121    2866.3299   -42670.451    73.459219     0.981757 
   24200    232.00016    64.567411    127345.47   -39856.156     2886.523   -42742.679    73.835916   0.98074548 
   24300    231.23209    25.114181     127091.3   -39848.023    2876.9668    -42724.99    74.054828   0.98270683 
   24400    227.72082    18.718851    127190.78   -39887.541      2833.28   -42720.821    73.983059   0.98193823 
   24500    228.57386    12.883158    127088.33   -39833.913    2843.8934   -42677.806    73.864671   0.98272983 
   24600    226.86593    45.870026    127123.96   -39812.242    2822.6435   -42634.885    74.010164   0.98245435 
   24700    224.58541   -78.190849    127026.99   -39814.928    2794.2695   -42609.198    74.122904   0.98320438 
   24800     228.0567    7.3599986    126906.52   -39799.931    2837.4589    -42637.39     74.35162   0.98413768 
   24900    228.91284    27.158684     127178.7    -39737.79     2848.111   -42585.901     74.34866   0.98203149 
   25000    232.61877    59.861667     127341.7   -39721.345    2894.2197   -42615.564     74.81095   0.98077446 
   25100    231.10356     -74.6974    127292.49   -39728.354    2875.3676   -42603.722    74.896084   0.98115368 
   25200    232.74936   -115.31698    127253.54    -39778.37    2895.8445   -42674.214    75.227321   0.98145396 
   25300    225.28567   -52.074862    127130.23   -39779.609    2802.9821   -42582.591    75.446711   0.98240589 
   25400    228.02558    51.171563    127435.57   -39762.015    2837.0718   -42599.087    75.743052   0.98005201 
   25500    230.52617    8.3658238    127283.53   -39739.768    2868.1839   -42607.952    75.983116    0.9812227 
   25600    230.03639   -2.8548217    127315.93   -39809.663      2862.09   -42671.753    76.387589   0.98097303 
   25700    229.04429   -105.51838    127449.41   -39833.451    2849.7464   -42683.197    76.621543   0.97994564 
   25800    229.40019    46.187037    127349.99   -39815.883    2854.1745   -42670.057    76.992721   0.98071066 
   25900    235.17093   -126.27202    127359.51   -39788.309    2925.9735   -42714.282     77.53739   0.98063735 
   26000    232.29214    46.276442    127487.26   -39726.355    2890.1558   -42616.511    77.636256   0.97965468 
   26100    232.89496    -46.37447    127422.84   -39838.646     2897.656   -42736.302    78.000453   0.98014992 
   26200    229.31462   -87.701551    127471.97   -39832.897    2853.1098   -42686.007    78.196713   0.97977217 
   26300      232.879   -168.34635    127308.49   -39811.067    2897.4575   -42708.524    78.306177   0.98103036 
   26400    229.19388    102.49596    127328.06   -39797.821    2851.6076   -42649.429    78.600244   0.98087952 
   26500    230.23603    21.755933    127244.07   -39839.553    2864.5739   -42704.127    78.688157   0.98152701 
   26600    226.51505   -46.692749    127259.95   -39873.042    2818.2778    -42691.32    78.635295    0.9814045 
   26700    225.27175    52.800572    127441.34   -39900.859    2802.8088   -42703.668    79.113861   0.98000768 
   26800    229.87482   -82.684556    127519.23   -39833.379    2860.0798   -42693.459    79.274154   0.97940906 
   26900    227.49762   -40.643089    127587.38   -39841.973    2830.5029   -42672.475    79.877061   0.97888589 
   27000    229.75991    45.561433    127679.58   -39882.149    2858.6501   -42740.799    80.229739   0.97817902 
   27100    228.98517    93.327026    127700.99   -39886.782    2849.0109   -42735.792    80.416515   0.97801503 
   27200    229.64651   -112.84312     127660.4    -39915.31    2857.2392   -42772.549    80.583118   0.97832601 
   27300     230.3429   -20.944426    127711.55   -39942.999    2865.9035   -42808.902    80.764657    0.9779342 
   27400    233.62567    60.534901    127803.26   -39893.039    2906.7475   -42799.787    81.112281   0.97723247 
   27500    230.49428   -71.022778    127914.92   -39831.593     2867.787    -42699.38    81.416791   0.97637935 
   27600    231.28288    96.692067    127784.33   -39872.988    2877.5987   -42750.587    81.837951   0.97737717 
   27700    230.20114   -70.360963    127773.01   -39895.328    2864.1398   -42759.468    81.951824   0.97746381 
   27800     231.3387    3.3843378    127878.02   -39854.367    2878.2932    -42732.66    82.178734   0.97666112 
   27900    233.62154    193.33763    127761.83    -39866.72    2906.6962   -42773.416    82.316234   0.97754931 
   28000    231.88294   -78.524669    127847.57   -39901.961    2885.0646   -42787.025    82.538248   0.97689376 
   28100    230.61689    194.05977    127680.87   -39863.775    2869.3126   -42733.087    82.960111   0.97816918 
   28200    231.76333   -9.7893424    127778.87   -39914.383    2883.5764    -42797.96     83.34874   0.97741896 
   28300    229.22282   -141.90834    127645.85   -39897.491    2851.9677   -42749.459    83.933967    0.9784375 
   28400    223.85143   -96.723316    127710.85   -39945.133    2785.1374    -42730.27    84.483492   0.97793955 
   28500     226.3099    16.477367    127823.47   -39961.526    2815.7254   -42777.252    84.977146   0.97707794 
   28600    230.06005   -56.272656    127860.74   -39917.182    2862.3844   -42779.566    85.246108   0.97679312 
   28700    227.97568    58.116113    128037.86   -39919.093    2836.4508   -42755.544    85.849008   0.97544185 
   28800    231.72378   -165.75652    127759.52    -39889.99    2883.0844   -42773.075    85.912635   0.97756704 
   28900    230.24858   -217.70157    127730.89    -39849.12      2864.73    -42713.85     85.98676   0.97778608 
   29000    222.40424    -90.99562    127707.56   -39905.742    2767.1315   -42672.873    86.111407   0.97796474 
   29100    230.58666   -119.25172     127650.7   -39837.026    2868.9364   -42705.963    86.510136   0.97840033 
   29200    233.10322    132.64637    127648.68   -39792.866    2900.2472   -42693.113    86.761998   0.97841582 
   29300    231.94293    160.95654     127943.3    -39853.18     2885.811   -42738.991    86.901673   0.97616278 
   29400    229.84278   -108.01452    127942.28   -39908.751    2859.6811   -42768.433    87.002662   0.97617063 
   29500    226.67499   -33.471729    127820.09   -39946.518    2820.2678   -42766.786    87.023286   0.97710377 
   29600    227.96535    92.735237    127891.18   -39866.571    2836.3223   -42702.893    87.154225   0.97656065 
   29700    227.99051   -14.474641     127741.4   -39915.135    2836.6353    -42751.77    87.521262    0.9777057 
   29800    225.92453   -172.96689    127709.01   -39899.251    2810.9307   -42710.182    87.858918   0.97795361 
   29900    227.38367    112.10587     127515.8    -39914.71    2829.0852   -42743.795     88.03907   0.97943542 
   30000    230.68964   -86.874723     127483.2   -39886.417    2870.2177   -42756.634    88.313816   0.97968588 
   30100    227.06658   -70.963269    127787.28   -39876.571      2825.14   -42701.711    88.732369   0.97735463 
   30200    222.66187    85.423205    127690.94   -39879.987     2770.337   -42650.324    88.825548   0.97809205 
   30300    230.62111   -137.66411    127527.75   -39849.619    2869.3651   -42718.984    88.902658   0.97934361 
   30400    233.08889   -36.640431    127650.65   -39822.173    2900.0689   -42722.242    89.420085   0.97840071 
   30500    231.82906    -78.13446    127631.69   -39820.324    2884.3943   -42704.719    89.908923   0.97854611 
   30600    232.48774    34.255803     127668.2   -39803.607    2892.5895   -42696.196    90.096915   0.97826628 
   30700    230.22263    -43.07688    127519.94    -39815.07    2864.4071   -42679.477    90.196144   0.97940364 
   30800    231.41208   -27.046201     127505.2    -39767.22    2879.2062   -42646.426    90.897344   0.97951686 
   30900    227.04218   -170.15796    127100.43   -39892.684    2824.8364    -42717.52    91.151258   0.98263626 
   31000    224.39514    30.813941    127294.49   -39918.833    2791.9022   -42710.736    91.707691   0.98113825 
   31100    226.17624   -72.993612    127344.99   -39899.966    2814.0624   -42714.029    92.006367   0.98074915 
   31200    229.65788    4.2613179     127098.8   -39924.272    2857.3806   -42781.653    91.866052   0.98264887 
   31300    227.61741   -105.24864    127033.24   -39869.128    2831.9933   -42701.121    92.149422   0.98315598 
   31400     229.0497   -127.38669    127117.41   -39835.765    2849.8137   -42685.579    92.243062   0.98250504 
   31500    229.87651    51.038384    127289.89   -39900.933    2860.1008   -42761.034    92.861661    0.9811737 
   31600    229.96435    17.420868    127213.68   -39851.166    2861.1937   -42712.359    93.184572   0.98176146 
   31700    231.79299    96.749291    127225.69   -39890.211    2883.9455   -42774.157     93.39337   0.98166883 
   31800    236.25809    19.280323    127165.32   -39833.053    2939.4998   -42772.553    93.641764   0.98213482 
   31900    231.18659   -115.59234    127143.73   -39827.111    2876.4007   -42703.512    94.030271   0.98230161 
   32000    234.83823    385.22435    127370.66   -39821.685    2921.8341   -42743.519    94.219875   0.98055151 
   32100    231.71256    83.293946    127560.11   -39837.508    2882.9448   -42720.453    94.695321    0.9790952 
   32200    233.25185    184.73592    127717.03    -39839.63    2902.0965   -42741.727     95.03728   0.97789226 
   32300    236.78097    48.764841    127748.05   -39824.394    2946.0055   -42770.399    95.401189    0.9776548 
   32400    227.05012   -109.54689    127772.22   -39888.389    2824.9351   -42713.324    95.878778   0.97746983 
   32500    230.59524    215.36082    127671.11   -39892.142    2869.0431   -42761.185    95.981819   0.97824397 
   32600    230.35109    51.518955     127849.2   -39818.854    2866.0055    -42684.86    96.254848   0.97688129 
   32700    229.46124    13.069282    127915.97   -39879.907    2854.9341   -42734.841    96.607533   0.97637139 
   32800    228.59591    -268.7473    127696.04   -39928.261    2844.1677   -42772.429    97.044378   0.97805298 
   32900    230.19704    72.471673    127587.86    -39930.62    2864.0888   -42794.709    97.084825   0.97888223 
   33000    226.83348   -2.5115753    127586.65   -39977.853    2822.2398   -42800.092    97.183648    0.9788915 
   33100    230.37556   -86.798872    127723.54   -39901.276    2866.3099   -42767.586    97.673416   0.97784235 
   33200    228.54573   -226.25099    127933.59   -39934.723    2843.5434   -42778.267    98.246182   0.97623692 
   33300    232.61117   -83.939069    127948.16   -39864.555    2894.1252    -42758.68    98.474417   0.97612575 
   33400    226.45767   -158.56527    127886.37   -39956.391     2817.564   -42773.955    98.500301   0.97659737 
   33500    232.08056    144.28895    127808.91   -39926.298    2887.5234   -42813.822    98.533199   0.97718927 
   33600    225.48744    -109.6469    127679.25   -39908.484    2805.4924   -42713.976    98.830022   0.97818156 
   33700    230.85497      225.672     127773.3   -39899.917    2872.2747   -42772.192    98.968902   0.97746156 
   33800    230.95075   -136.66676    127850.42   -39901.133    2873.4664   -42774.599    99.301599   0.97687199 
   33900    235.30958    26.205132    127767.38   -39911.486    2927.6986   -42839.185      99.6281    0.9775069 
   34000    229.92772   -45.043196    127736.52   -39875.872    2860.7379    -42736.61    100.02686   0.97774301 
   34100    227.76451    97.867012    127645.75   -39906.343    2833.8235   -42740.166     100.3165   0.97843829 
   34200    227.70746   -50.033997    127663.13   -39905.636    2833.1137    -42738.75    100.37266   0.97830513 
   34300    228.24091   -61.268739    127302.42   -39965.007    2839.7508   -42804.758    100.21135   0.98107714 
   34400    229.30632      20.7813    127452.76   -39898.787    2853.0065   -42751.794    100.56293   0.97991983 
   34500    233.02004   -208.98057    127376.17   -39937.011    2899.2123   -42836.223    100.87971   0.98050905 
   34600    233.78253    23.766194    127414.62   -39931.395    2908.6992   -42840.095    101.34997   0.98021322 
   34700    226.59213   -67.791536     127263.1    -39994.62    2819.2369   -42813.857    101.49586   0.98138027 
   34800    226.38467   -100.19169    127470.08    -39961.55    2816.6557   -42778.206    101.83399   0.97978669 
   34900    230.89534    80.570702    127575.62   -39971.294     2872.777   -42844.071    101.89187   0.97897617 
   35000    222.23552   -179.27266    127616.88   -40045.668    2765.0324   -42810.701    102.19378   0.97865968 
   35100    225.11079   -142.50217    127272.92   -39964.888    2800.8062   -42765.695    102.53147   0.98130448 
   35200    228.38702    206.49067    127294.88   -39944.741    2841.5687   -42786.309    102.65248   0.98113522 
   35300    228.51858    62.010565    127264.79   -39925.016    2843.2055   -42768.222    102.84336   0.98136719 
   35400    226.19066    257.64853    127233.69   -39940.593    2814.2418   -42754.835    102.93717   0.98160708 
   35500    228.75772    50.296961    127475.48    -39826.08    2846.1809   -42672.261    103.43449   0.97974519 
   35600     231.0844   -145.40118    127481.83    -39868.06    2875.1293    -42743.19    103.55087   0.97969637 
   35700    229.48249   -94.691084    127675.68   -39829.972    2855.1984   -42685.171    104.04392   0.97820897 
   35800     229.6345    104.38447     127823.6   -39872.947    2857.0897   -42730.037    104.51128    0.9770769 
   35900    234.88873   -14.704448    127723.06   -39828.121    2922.4623   -42750.583    104.37197   0.97784604 
   36000    231.15489    145.13893    127947.57   -39799.336    2876.0063   -42675.343    105.07927   0.97613023 
   36100    233.30481    116.20123    128195.39   -39831.811    2902.7554   -42734.567    105.53522    0.9742432 
   36200    230.84985    94.781656    128296.33   -39858.385     2872.211   -42730.596    105.86305   0.97347671 
   36300    224.12196   -154.40321    128470.92   -39925.305    2788.5032   -42713.808    106.51828   0.97215377 
   36400    228.01968    7.7444265    128216.63   -39867.377    2836.9983   -42704.375    106.68977   0.97408186 
   36500    232.91543   -13.194808    128230.02    -39861.31    2897.9107    -42759.22     106.8558   0.97398012 
   36600    227.63541    83.502427     128290.2   -39994.034    2832.2173   -42826.252     107.0885   0.97352322 
   36700    229.42634   -118.60104    128295.04   -39931.034    2854.4998   -42785.533    107.52807   0.97348651 
   36800     227.1238   -80.052462    128338.14   -39931.367    2825.8518   -42757.219    107.86646   0.97315962 
   36900    226.72287   -252.10906    128268.07   -39954.136    2820.8635       -42775    108.39147   0.97369119 
   37000    230.24716    -137.1498    128090.64   -39895.174    2864.7124   -42759.886    108.36501   0.97503994 
   37100    233.09286    93.852713    128262.37   -39879.963    2900.1183   -42780.082    108.57737   0.97373448 
   37200    230.77507    131.43644    128376.19    -39950.08    2871.2806   -42821.361     108.8724   0.97287118 
   37300    227.67691    6.8341395    128722.03   -39956.906    2832.7336   -42789.639     109.0814   0.97025731 
   37400    229.42252    59.031093     128607.2   -39972.145    2854.4523   -42826.597     109.5928   0.97112365 
   37500    224.37102   -89.315513    128553.37    -39984.51     2791.602   -42776.112    109.87608   0.97153029 
   37600    228.12581   -69.259321    128422.33   -39936.831    2838.3187    -42775.15    110.24449   0.97252163 
   37700     231.6558    141.76061     128337.7   -39936.378    2882.2386   -42818.617    110.30444   0.97316296 
   37800     224.9007   -114.38883    128358.27   -40048.684    2798.1923   -42846.876    110.56056   0.97300698 
   37900    229.05105     30.87186    128239.56   -40003.143    2849.8305   -42852.974    110.24976   0.97390765 
   38000    228.66241    56.109254    128172.43   -39967.392     2844.995   -42812.387    110.65381   0.97441777 
   38100    228.97277    90.602777    127963.87    -39911.23    2848.8566   -42760.087    110.92177   0.97600592 
   38200    229.28384    68.194637    127930.46    -39916.05    2852.7269   -42768.777     111.1439   0.97626076 
   38300    230.42245    64.003712    128051.55   -39854.655    2866.8933   -42721.548    111.16308   0.97533762 
   38400    231.41621   -39.046594    127765.52   -39915.396    2879.2576   -42794.654    111.64694   0.97752111 
   38500     230.9668   -69.208071    127590.48   -39933.617    2873.6661   -42807.283    112.20057   0.97886213 
   38600    230.26981   -48.185441    127774.24   -39878.291    2864.9942   -42743.285    112.57506   0.97745442 
   38700    230.09478    27.022606    127396.95   -39899.368    2862.8165   -42762.185    112.43152   0.98034913 
   38800    230.96735   -38.378545    127321.53   -39920.173     2873.673   -42793.846    112.34852    0.9809299 
   38900    230.68508   -111.96326    127458.36   -39872.856    2870.1609   -42743.017    112.44078   0.97987684 
   39000    226.68986    130.57591    127342.22    -39913.97    2820.4528   -42734.423     112.8537   0.98077046 
   39100    228.12468     -183.553    127200.65   -39873.774    2838.3047   -42712.079    113.33305   0.98186205 
   39200    227.47363    109.49775    127343.32   -39896.366    2830.2044    -42726.57    113.59572     0.980762 
   39300    231.53769    45.207311    127470.59   -39906.259     2880.769   -42787.028    113.76418   0.97978278 
   39400    232.43784   -48.014489    127814.54   -39863.402    2891.9686    -42755.37    114.22063    0.9771462 
   39500    230.80491   -23.667259    127575.63   -39858.758    2871.6519    -42730.41    114.65266   0.97897607 
   39600    222.89396   -5.9013072    127604.84   -39892.725    2773.2246    -42665.95    115.27624   0.97875198 
   39700    229.36264   -59.891246    127593.28   -39827.365    2853.7073   -42681.073    115.23688   0.97884063 
   39800    229.47078   -91.730883    127576.14   -39889.972    2855.0528   -42745.025    115.65547    0.9789722 
   39900    227.30033    66.905459    127701.68    -39931.63    2828.0482   -42759.678    115.83676   0.97800978 
   40000    229.39773    194.00985    127561.22   -39968.684    2854.1439   -42822.828    116.19683   0.97908665 
   40100    228.60779    43.623014    127536.69   -39855.874    2844.3156   -42700.189    116.08714   0.97927499 
   40200      231.034    7.3699505    127537.19   -39886.552    2874.5022   -42761.054     116.1932   0.97927116 
   40300    230.93416   -23.429785    127598.34   -39855.369      2873.26   -42728.629    116.41314   0.97880184 
   40400    234.84872    140.90413    127608.96   -39774.378    2921.9646   -42696.343    116.70953   0.97872035 
   40500    232.75152    37.359844    127736.97   -39804.868    2895.8714    -42700.74    117.10076   0.97773956 
   40600    231.62001    139.14269    127865.86   -39860.732    2881.7933   -42742.525    117.40111     0.976754 
   40700    234.31868   -135.38734    127855.09   -39910.716    2915.3699   -42826.086    117.75791   0.97683627 
   40800     230.1276   -74.937288    127926.35   -39959.362    2863.2249   -42822.586    118.10065   0.97629218 
   40900    228.87913   -198.50815    127923.92   -39992.173    2847.6915   -42839.864    118.03102   0.97631067 
   41000    230.92904   -106.62676    127879.71   -39909.565    2873.1963   -42782.762    118.24423    0.9766482 
   41100    233.93627    -105.4877     127953.6   -39895.151     2910.612   -42805.763     118.0996   0.97608427 
   41200    230.80978   -89.082107    127833.23   -39903.246    2871.7125   -42774.959    118.02046    0.9770033 
   41300      225.127    152.97921    127683.15    -40043.14    2801.0079   -42844.148    118.17046   0.97815174 
   41400     226.8769   -11.409452     127583.3    -39996.62      2822.78     -42819.4    118.28197   0.97891721 
   41500    227.30629    -183.9579     127589.4   -39999.412    2828.1224   -42827.535    118.83711   0.97887041 
   41600    226.82536   -53.104912    127610.73   -39953.382    2822.1387   -42775.521    119.62606   0.97870681 
   41700    226.37915   -66.975403     127374.6   -39939.117    2816.5871   -42755.704    119.79207    0.9805212 
   41800    225.64524    183.73903    127517.77   -39938.291    2807.4558   -42745.747    119.86774   0.97942026 
   41900    228.84358    22.303547    127514.79   -39911.377    2847.2492   -42758.626    120.27488   0.97944316 
   42000    229.53361    60.676421    127507.24   -39896.314    2855.8345   -42752.148    120.75242   0.97950117 
   42100    227.63644   -4.7862354    127300.36   -39890.133    2832.2301   -42722.363    120.86566   0.98109299 
   42200    231.06308   -164.99951     127526.4   -39839.186    2874.8639    -42714.05    121.59014   0.97935404 
   42300    229.91665   -69.559515    127470.09   -39816.596    2860.6002   -42677.196     121.7916   0.97978668 
   42400    234.37365    142.15246    127377.68   -39843.392    2916.0537   -42759.446     122.0478   0.98049748 
   42500    230.15889    67.313768    127509.69   -39845.911    2863.6142   -42709.525    122.22435   0.97948236 
   42600    228.82635   -40.161288    127708.15    -39848.03    2847.0348   -42695.065    122.65353   0.97796021 
   42700    228.29983    -52.71999    127673.57    -39862.27    2840.4839   -42702.754    122.88939   0.97822513 
   42800    231.38206      44.8502    127887.81     -39802.5    2878.8327   -42681.333    123.32963   0.97658636 
   42900     227.8994   -133.72555    128158.05   -39881.965    2835.5018   -42717.467     123.9815    0.9745271 
   43000    229.32826    54.220618     127929.9   -39912.639    2853.2796   -42765.918     123.9291   0.97626503 
   43100    227.89233    234.17155    127947.02   -39872.542    2835.4138   -42707.956    124.26768   0.97613442 
   43200    228.53076    15.249221    127977.17    -39817.59    2843.3571   -42660.947    124.24365    0.9759045 
   43300    230.68266    226.27281    127682.75   -39826.283    2870.1309   -42696.414    124.44731   0.97815475 
   43400    231.41959    73.808633    127606.91   -39781.044    2879.2997   -42660.343    124.70541   0.97873611 
   43500    231.28207    118.91699    127700.52   -39794.904    2877.5887   -42672.493    125.12111   0.97801865 
   43600    237.09842   -30.756916    127722.44   -39698.254    2949.9552   -42648.209    125.64443    0.9778508 
   43700    229.82539   -43.885645     127640.2   -39737.175    2859.4648    -42596.64    126.13392   0.97848086 
   43800    230.83219   -113.72183    127481.81   -39749.747    2871.9913   -42621.738    126.07696   0.97969656 
   43900    233.38234    106.67973    127556.08   -39808.227      2903.72   -42711.947    126.22702   0.97912614 
   44000     227.5439    143.19925    127518.14   -39845.668    2831.0788   -42676.746    126.41667   0.97941741 
   44100     229.8815   -20.274143    127404.41   -39852.127    2860.1629    -42712.29     126.5443   0.98029171 
   44200    223.30666   -84.265864    127306.37    -39869.71    2778.3594   -42648.069    126.68856    0.9810467 
   44300    229.10482   -62.430109    127219.33   -39881.499    2850.4996   -42731.999    126.99705   0.98171791 
   44400    229.09102   -71.033479    127185.61   -39827.802    2850.3278    -42678.13    127.31289   0.98197812 
   44500    229.97012   -183.06504    127234.56   -39864.417    2861.2655   -42725.682    127.50611   0.98160036 
   44600    227.99368   -111.75973     127290.1   -39936.899    2836.6748   -42773.573    128.10641   0.98117206 
   44700     225.5183    172.33304    127500.86   -39910.259    2805.8764   -42716.135    128.48548   0.97955016 
   44800    229.37956   -123.97042     127470.2   -39864.078    2853.9179   -42717.996    128.68667   0.97978579 
   44900    229.63184   -16.402616    127536.55   -39819.854    2857.0566   -42676.911    128.75724   0.97927611 
   45000    227.13555     51.57079    127523.71   -39835.757    2825.9981   -42661.755    129.21661   0.97937467 
   45100    235.67871   -2.9189349    127820.76   -39794.111    2932.2912   -42726.402    129.70449   0.97709862 
   45200    228.37218   -90.569011    127501.08   -39857.129    2841.3841   -42698.513    129.95309   0.97954846 
   45300    223.54549     17.82371    127560.45   -39865.885    2781.3309   -42647.216    130.28384   0.97909263 
   45400    231.22358    90.537242    127311.93   -39820.061     2876.861   -42696.922    130.41392   0.98100381 
   45500    228.53778    182.77477    127138.17   -39824.343    2843.4445   -42667.787    130.61811   0.98234459 
   45600    232.24236    20.685765    127090.97   -39794.919    2889.5364   -42684.455    130.59472   0.98270937 
   45700    226.91768   -50.208427    127232.95   -39803.148    2823.2873   -42626.435    130.83801   0.98161279 
   45800    236.61368    34.198425     127299.4    -39740.85     2943.924   -42684.774    130.66073   0.98110042 
   45900    235.83983    83.499479    127315.93     -39690.6    2934.2959   -42624.896    131.18025   0.98097304 
   46000    234.38872    -151.1815     127143.2   -39673.638    2916.2413   -42589.879    131.61002   0.98230569 
   46100    238.15257    18.261316    126779.95   -39617.918    2963.0707   -42580.988    131.72983   0.98512025 
   46200    235.26643    59.645203    126986.71    -39619.78    2927.1617   -42546.941    132.07806   0.98351623 
   46300    231.01309    125.72023    126952.69   -39640.262    2874.2421   -42514.504    132.19109   0.98377983 
   46400    240.15834    16.522536    127106.71   -39671.918    2988.0263   -42659.945    132.67491    0.9825877 
   46500    232.37799    110.57206    127219.14   -39672.439     2891.224   -42563.663     132.8879   0.98171932 
   46600    232.83105  -0.94844722    127386.98   -39658.972     2896.861   -42555.833     133.6627   0.98042586 
   46700    227.98886   -108.05673    127331.54   -39767.334    2836.6149   -42603.949    133.87016   0.98085277 
   46800    227.37914   -4.0110487    127363.43   -39823.044    2829.0288   -42652.073    133.82239   0.98060717 
   46900     231.6047   -76.435807    127373.19   -39758.566    2881.6028   -42640.169     134.0762     0.980532 
   47000    233.64631   -60.644145    127237.15   -39753.689    2907.0043   -42660.693    134.12336   0.98158042 
   47100     234.0313     153.2642    127342.57   -39737.181    2911.7943   -42648.975    134.35116   0.98076777 
   47200    228.65945     60.40966    127422.73   -39807.806    2844.9583   -42652.764    134.73079   0.98015084 
   47300    229.78896   -67.925191    127463.45   -39857.635    2859.0115   -42716.647    135.04927    0.9798377 
   47400    232.14027    132.47268    127483.78    -39816.21    2888.2663   -42704.477      135.273    0.9796814 
   47500    232.31675    207.71696    127215.48   -39744.496    2890.4621   -42634.958    135.34514   0.98174763 
   47600    235.49607    -69.32472    127372.86     -39699.2    2930.0188   -42629.219    135.86919   0.98053458 
   47700    227.83443    78.623795    127311.18    -39751.49    2834.6935   -42586.184     136.1874   0.98100962 
   47800    232.57725   -25.626054     127459.4   -39745.411    2893.7031   -42639.114    137.09379   0.97986885 
   47900    228.60986    57.649137    127524.25   -39815.595    2844.3412   -42659.936    137.42897   0.97937052 
   48000    230.72462    76.425017    127559.26   -39841.842    2870.6529   -42712.495    137.65359   0.97910173 
   48100    228.96332    153.67035    127700.43   -39806.887    2848.7389   -42655.626    138.17004   0.97801931 
   48200    233.68274    76.712328    127855.18   -39856.224    2907.4576   -42763.681    138.49998   0.97683558 
   48300    230.53965   -83.593364    127687.68   -39838.785    2868.3516   -42707.136    138.40763   0.97811704 
   48400    234.34964    180.18355    127790.32   -39754.807     2915.755   -42670.562    138.78998   0.97733138 
   48500    233.01327   0.89513184    127980.52   -39819.477    2899.1281   -42718.605    139.48303   0.97587891 
   48600    230.12447   -45.231185    127974.82   -39807.762    2863.1859   -42670.948    139.57111   0.97592241 
   48700    234.71714     53.90927    128126.99   -39785.845    2920.3274   -42706.172    139.85782    0.9747633 
   48800    229.74938    17.069641    128049.24   -39828.067    2858.5191   -42686.586    140.35483   0.97535523 
   48900    226.40788    164.26388    127717.31   -39831.401    2816.9445   -42648.345    140.67042   0.97789011 
   49000    230.01802    90.882149     127673.8   -39868.502    2861.8615   -42730.363    140.85958   0.97822334 
   49100    224.65519   -116.02079    127617.25   -39859.919    2795.1377   -42655.056    141.12422    0.9786568 
   49200    228.63064    288.03782    127513.34   -39886.492    2844.5998   -42731.092    141.52615   0.97945433 
   49300    226.93312   -21.202683    127287.24   -39818.595    2823.4794   -42642.074    141.42375   0.98119411 
   49400    229.12305   -30.462495    127438.79   -39797.234    2850.7263   -42647.961    141.63347    0.9800273 
   49500    231.22408   -21.113474    127649.48   -39805.373    2876.8671    -42682.24    142.20431   0.97840974 
   49600    233.49038    55.674589    127598.43   -39800.443    2905.0642   -42705.508    142.31835   0.97880113 
   49700    229.21571    3.9336949    127477.87   -39812.463    2851.8792   -42664.342    142.76331   0.97972682 
   49800    228.00001   -146.76127    127561.23   -39864.508    2836.7535   -42701.261    143.33502    0.9790866 
   49900    234.06692    32.552251    127644.23   -39750.149    2912.2375   -42662.387    143.49664   0.97844993 
   50000    232.87738   -119.35597    127633.56   -39804.615    2897.4374   -42702.052    143.66035   0.97853179 
   50100    229.43229    254.53544    127744.75   -39821.745    2854.5738   -42676.318    144.07548      0.97768 
   50200    230.70718    -38.78203    127614.72   -39864.073     2870.436   -42734.509    144.36402   0.97867623 
   50300    231.03591   -66.506823    127588.07   -39827.511    2874.5259   -42702.037    144.86502   0.97888065 
   50400    230.28391    86.105689    127582.51   -39851.724    2865.1696   -42716.893    144.92955   0.97892326 
   50500    229.99064    31.509367    127564.74   -39881.047    2861.5209   -42742.568     145.1463   0.97905963 
   50600    226.31221    25.741328    127539.61   -39886.284    2815.7541   -42702.039    145.45659   0.97925257 
   50700    225.21685    144.30652    127333.81   -39905.287    2802.1257   -42707.413    145.53535   0.98083529 
   50800    230.18075    -132.0716    127434.28   -39905.316    2863.8861   -42769.202    146.06607   0.98006196 
   50900    228.28111   -148.00082    127347.49    -39807.35    2840.2511   -42647.601    146.09486   0.98072992 
   51000    231.07324    161.05467    127513.45   -39848.068    2874.9904   -42723.058    146.26063   0.97945349 
   51100    229.94446    237.46148    127416.59   -39890.875    2860.9463   -42751.821    146.17321     0.980198 
   51200    230.70195   -45.383543    127383.27   -39888.917    2870.3709   -42759.288    146.49035   0.98045441 
   51300    226.43819   -1.0696492    127294.28   -39939.084    2817.3216   -42756.406    146.99445   0.98113987 
   51400    224.41514    28.294947     127299.5   -39929.884     2792.151   -42722.035    147.19683   0.98109963 
   51500    230.27663    63.631517     127402.7   -39914.441    2865.0791    -42779.52     147.6332   0.98030487 
   51600    230.72785    64.286184    127633.03   -39860.423    2870.6931   -42731.116    147.96161    0.9785358 
   51700    230.79977   -22.988244    127536.05   -39857.862     2871.588    -42729.45    147.78579    0.9792799 
   51800     224.5007   -103.69528    127566.02   -39895.064    2793.2155   -42688.279    148.10749    0.9790498 
   51900    227.28169   -155.44314     127386.4   -39935.547    2827.8163   -42763.363    148.54215   0.98043033 
   52000    227.88215    45.343791    127383.47   -39969.642    2835.2872   -42804.929    148.81388    0.9804529 
   52100    227.05645    174.23355    127341.39   -39916.118    2825.0138   -42741.132    148.96788   0.98077685 
   52200    230.18522    1.7659751    127531.22   -39931.086    2863.9418   -42795.028    149.08777   0.97931698 
   52300    228.56051   -248.56834    127656.99   -39913.442    2843.7272   -42757.169     149.5618   0.97835217 
   52400    230.45651   -217.97841    127497.72   -39862.085    2867.3171   -42729.402    149.59371   0.97957434 
   52500    230.10151   -38.041035    127540.33   -39852.164    2862.9002   -42715.064    150.05577   0.97924703 
   52600    230.90463    57.943192    127653.15    -39877.84    2872.8925   -42750.732    150.20396   0.97838155 
   52700    229.16938    13.389098    127903.84   -39906.756    2851.3028   -42758.059    151.00485   0.97646396 
   52800    231.72046    252.36447    127904.06   -39869.798    2883.0431   -42752.841    151.10643   0.97646227 
   52900    232.01085    44.860633    127798.17   -39861.603     2886.656   -42748.259    151.37165   0.97727135 
   53000    232.16194   -31.745662    127637.91   -39844.703    2888.5359   -42733.239    151.75611   0.97849843 
   53100    230.40272    102.61638    127672.13   -39883.956    2866.6479   -42750.604     151.9783   0.97823611 
   53200    233.93683    4.7296826    127723.92   -39876.228    2910.6189   -42786.846    152.33428   0.97783944 
   53300    230.73747    93.106588    127796.19    -39879.08    2870.8127   -42749.893    152.97321    0.9772865 
   53400    230.55136    2.7658919    127775.75   -39960.722    2868.4972    -42829.22      153.696   0.97744283 
   53500    228.08372   -238.60188    127715.23   -39974.626    2837.7952   -42812.421    154.24727   0.97790601 
   53600    227.77757    103.69523    127408.52   -39984.585     2833.986   -42818.571    154.08151   0.98026008 
   53700    224.53009   -85.383581    127509.77   -40032.975    2793.5812   -42826.557    154.63274   0.97948175 
   53800    229.11357   -73.766385    127458.15   -39903.513    2850.6084   -42754.121    154.77797   0.97987841 
   53900    227.06206    287.59751    127611.92   -39944.434    2825.0838   -42769.518    154.93559   0.97869772 
   54000    229.21886   -28.679029    127779.49   -39922.501    2851.9184   -42774.419    155.14274   0.97741422 
   54100    231.44673    121.92878    127810.11   -39950.829    2879.6374   -42830.466    155.13279   0.97718004 
   54200    227.82935    9.8974474    127574.57   -39929.365    2834.6303   -42763.996    155.30534   0.97898424 
   54300    228.21509    28.807848     127673.3   -39887.189    2839.4296   -42726.619    155.56888    0.9782272 
   54400    224.18672   -156.71846    127534.36   -39920.533     2789.309   -42709.842    155.82633   0.97929286 
   54500    229.73814    339.50734    127439.28   -39894.024    2858.3792   -42752.403    155.91017   0.98002352 
   54600    234.90984    177.22509    127537.54   -39804.159     2922.725   -42726.884     156.2121   0.97926849 
   54700    234.33018    61.671847     127409.5   -39825.878    2915.5129   -42741.391    156.48938    0.9802526 
   54800    230.09743    113.71923    127603.73   -39892.627    2862.8495   -42755.477    157.18362   0.97876048 
   54900    227.09607   -99.842588    127534.23   -39936.842    2825.5069   -42762.349    157.36297   0.97929391 
   55000    226.40184   -73.539388    127561.37   -40007.492    2816.8694   -42824.361     158.0974   0.97908553 
   55100    227.60694   -22.238003    127498.27   -39971.887    2831.8631    -42803.75    158.06482   0.97957009 
   55200    224.94661    18.605492    127721.36    -39958.34    2798.7635   -42757.103    158.22833   0.97785909 
   55300    229.99753   -117.91577    127773.77   -39906.935    2861.6065   -42768.542    158.01167   0.97745796 
   55400    231.13918    168.08751    127778.45   -39880.026    2875.8109   -42755.837    158.54982   0.97742218 
   55500    230.41869   -15.942464    127739.63   -39826.025    2866.8465   -42692.872    159.10367    0.9777192 
   55600    224.40737   -44.757959    127882.04   -39836.224    2792.0543   -42628.278    159.84575   0.97663043 
   55700     227.0895   -137.39007    127895.81   -39813.354    2825.4251   -42638.779    160.09157   0.97652527 
   55800    230.10324    258.08195    127853.25   -39822.254    2862.9218   -42685.175    160.39088   0.97685031 
   55900    232.30818    90.701717    127777.15   -39794.453    2890.3554   -42684.808    160.23496   0.97743215 
   56000    232.74233    47.869929    127635.14   -39788.468    2895.7571   -42684.225    160.54941   0.97851967 
   56100    235.82765    188.29504    127705.03   -39766.687    2934.1443   -42700.831    161.16493   0.97798415 
   56200    231.19656    235.27851    127867.28   -39789.292    2876.5248   -42665.817    161.75899   0.97674315 
   56300    233.90163    61.666707    128055.86   -39814.849    2910.1809    -42725.03    162.30467   0.97530476 
   56400    232.04145    29.420595     128033.9   -39794.563    2887.0368     -42681.6    162.14991   0.97547208 
   56500    222.90497    -179.0494    127770.75    -39869.78    2773.3616   -42643.142    162.04142    0.9774811 
   56600    224.38189    56.758917    127841.12   -39865.703    2791.7373    -42657.44    161.79281   0.97694303 
   56700    228.06831   -111.20266    127782.09   -39890.861    2837.6034   -42728.464    162.15425   0.97739436 
   56800    227.14577    101.82392     127730.5   -39830.391    2826.1252   -42656.516    162.46664    0.9777891 
   56900     230.8926    34.018413    127478.76   -39827.283    2872.7429   -42700.026     162.3063      0.97972 
   57000    234.01059    86.420776    127225.83   -39774.577    2911.5367   -42686.114    162.56384   0.98166769 
   57100    230.04092    59.135186    127342.61   -39850.271    2862.1464   -42712.418    162.95734    0.9807675 
   57200    228.67108    -69.00072    127469.36   -39900.187     2845.103    -42745.29    163.42638   0.97979228 
   57300    227.22697   -131.32881    127468.97   -39942.039    2827.1355   -42769.174    163.69946   0.97979521 
   57400    225.94349   -142.12248    127415.42   -39955.469    2811.1666   -42766.636    164.43461   0.98020703 
   57500    224.25092    144.38489    127765.02   -40004.671    2790.1078   -42794.779    165.29376   0.97752493 
   57600    226.69428    144.65394    127612.82   -39962.061    2820.5078   -42782.568     165.6919   0.97869081 
   57700    228.49008     91.10751    127568.48   -39993.611     2842.851   -42836.462    166.18409   0.97903096 
   57800    228.92563    7.8923789    127606.79   -40023.301    2848.2701   -42871.571    166.25418     0.978737 
   57900    222.69884    45.136308    127635.19   -39990.419    2770.7969   -42761.216      166.316   0.97851923 
   58000    226.24692    86.383309    127630.42   -40000.687    2814.9418   -42815.629    166.55409   0.97855582 
   58100    230.85217    17.785033    127611.56   -39933.327    2872.2399   -42805.567    166.90769   0.97870046 
   58200    230.74716    188.52772    127680.17    -39880.23    2870.9334   -42751.163    166.72968   0.97817458 
   58300    234.02926    -203.0378    127853.19    -39821.06    2911.7689   -42732.829    166.85497   0.97685082 
   58400    234.81177     13.45819    127861.96   -39834.278    2921.5049   -42755.783    166.83735   0.97678377 
   58500    229.76923   -52.390954    127795.41   -39844.577    2858.7661   -42703.343    167.25909   0.97729244 
   58600    232.01774   -151.26173    127595.15   -39802.181    2886.7417   -42688.923    167.41256    0.9788263 
   58700    233.59106    7.5444138    127506.04   -39802.955    2906.3169   -42709.271     167.3527   0.97951038 
   58800     233.1543   -97.338354    127567.96   -39840.558    2900.8828   -42741.441    167.66148   0.97903496 
   58900    227.53022    105.53525    127442.19   -39872.259    2830.9085   -42703.168    167.83555   0.98000115 
   59000    229.35371   -177.30074    127302.01   -39841.182    2853.5962   -42694.778    168.55133   0.98108027 
   59100    230.08417    -40.17042    127499.14   -39835.174    2862.6845   -42697.859    169.18652   0.97956341 
   59200    227.43998   -33.803271    127430.85   -39845.779    2829.7858   -42675.565    168.82291   0.98008835 
   59300    230.29528   -6.3063902    127446.13   -39834.813    2865.3112   -42700.125    168.94292   0.97997087 
   59400    228.36789   -40.414636    127454.04   -39875.285    2841.3307   -42716.616    169.08572   0.97991002 
   59500    224.79313    17.174565    127401.58   -39830.513    2796.8539   -42627.366     169.5328    0.9803135 
   59600    229.38541    85.963676    127095.45    -39829.24    2853.9906   -42683.231    169.47813    0.9826748 
   59700    230.60704    21.581347    127189.25   -39868.634      2869.19   -42737.824    169.77569   0.98195005 
   59800    228.83539    23.756872    127295.36   -39864.702    2847.1473    -42711.85    170.05921   0.98113156 
   59900    229.05997    32.975251    127059.94    -39841.99    2849.9415   -42691.931    169.92102   0.98294942 
   60000    230.65152    110.72348    127249.28   -39872.165    2869.7434   -42741.909    170.23639   0.98148683 
   60100    223.87874   -15.443975    127335.38   -39818.358    2785.4772   -42603.835    170.61243   0.98082316 
   60200    229.33028   -103.72666     127212.6   -39800.912    2853.3047   -42654.216    171.12166   0.98176978 
   60300    232.70845    128.54038    127182.52   -39755.894    2895.3355   -42651.229    171.35761   0.98200204 
   60400    235.17954   -20.707042    127214.35   -39705.191    2926.0805   -42631.272    171.15652   0.98175631 
   60500     229.4912    176.58076    127071.87   -39748.012    2855.3069   -42603.319    170.86743   0.98285713 
   60600     233.5314    -115.0502    127167.25   -39807.729    2905.5746   -42713.304    171.39384    0.9821199 
   60700    227.72391   -193.34916    127017.86   -39822.562    2833.3184   -42655.881    171.68919   0.98327501 
   60800    228.24301    244.33668    127261.04   -39765.385     2839.777   -42605.162    172.15368   0.98139613 
   60900     229.1776   -124.63406    127445.56   -39750.179     2851.405   -42601.584    172.82436   0.97997522 
   61000    231.65682   -134.59329    127304.12   -39809.917    2882.2513   -42692.168    172.71368   0.98106402 
   61100    228.90993    164.29096    127189.52    -39868.42    2848.0748   -42716.494    173.30141   0.98194798 
   61200    233.88778    196.98252     127389.9   -39877.398    2910.0087   -42787.407    173.58169   0.98040341 
   61300    224.29891   -66.235191    127300.34   -39871.059    2790.7048   -42661.764    173.78506   0.98109315 
   61400    225.31628    252.11218    127312.83   -39893.484    2803.3629   -42696.847      173.974    0.9809969 
   61500    228.23485    179.08662    127584.12   -39890.429    2839.6755   -42730.105      174.446   0.97891095 
   61600    228.73644    12.655115    127704.22   -39841.057    2845.9162   -42686.973    175.29816   0.97799029 
   61700    225.84893    74.963144    127622.04   -39915.549    2809.9901   -42725.539    175.42311   0.97862009 
   61800    227.06743    54.087408    127648.35   -39999.729    2825.1506    -42824.88    175.96648    0.9784184 
   61900    226.28341    -123.8139    127620.37   -39944.664    2815.3958    -42760.06    176.26659   0.97863286 
   62000    226.21222   -82.365277    127727.91   -39908.746      2814.51   -42723.256    176.75905   0.97780893 
   62100    230.67494    78.042135     127735.3   -39934.169    2870.0348   -42804.203    177.03587   0.97775234 
   62200     231.2568    -140.7479    127859.67   -39900.008    2877.2743   -42777.282    177.38029   0.97680127 
   62300    232.02422    25.836997    128033.05   -39942.607    2886.8224    -42829.43     177.7887   0.97547851 
   62400    229.41733   -115.42201    127871.43    -39878.15    2854.3877   -42732.538    177.29907   0.97671146 
   62500    228.42908   -223.83632    127601.68   -39891.845     2842.092   -42733.937    177.39829   0.97877623 
   62600    227.47286   -6.8284861    127564.82   -39886.613    2830.1948   -42716.808    177.73695   0.97905901 
   62700    225.48608    209.62628    127523.83    -39908.87    2805.4755   -42714.346    177.83613   0.97937372 
   62800    224.27615     115.3951    127683.75   -39886.819    2790.4217   -42677.241    178.09541   0.97814713 
   62900    230.78095    25.105029    127702.79   -39842.552    2871.3538   -42713.906    178.50515   0.97800124 
   63000    234.25277    -25.32571    127607.32   -39803.707    2914.5499   -42718.257    178.47414   0.97873299 
   63100    228.49143    301.92677    127705.97   -39785.876    2842.8678   -42628.744    178.74555   0.97797689 
   63200    229.73207   -21.780203    127608.64   -39824.561    2858.3037   -42682.865    178.70339   0.97872286 
   63300    230.01663    44.557346    127679.92       -39837    2861.8441   -42698.844     179.0119   0.97817643 
   63400    231.06284    48.118607       127569   -39740.325     2874.861   -42615.186    179.08308   0.97902695 
   63500    229.57011   -52.271696    127374.85   -39820.714    2856.2887   -42677.002    179.55623   0.98051923 
   63600    230.27664   -64.065749    127345.91   -39826.409    2865.0792   -42691.488    179.48656   0.98074207 
   63700    231.99229    31.138192    127271.26   -39839.234    2886.4252   -42725.659    179.46108   0.98131732 
   63800    229.48592   -235.16826    127358.54   -39947.617    2855.2411   -42802.858     179.8106   0.98064477 
   63900     223.3302   -48.677862    127412.48   -39938.644    2778.6522   -42717.296    179.89804   0.98022962 
   64000    229.00145    53.641863    127380.66   -39916.387    2849.2134     -42765.6    180.08435   0.98047455 
   64100     229.7832    40.949204    127581.87   -39826.248    2858.9398   -42685.188    180.50135   0.97892821 
   64200      231.125    1.6760899    127705.03   -39821.232    2875.6344   -42696.866    180.76446    0.9779841 
   64300     235.0799   -75.251091    127576.84   -39729.537    2924.8409   -42654.378    180.48281   0.97896679 
   64400    229.43775     94.40132    127464.54   -39745.253    2854.6418   -42599.895    181.08592   0.97982929 
   64500    233.55446   -7.8163959    127488.09   -39726.187    2905.8615   -42632.048    181.68009   0.97964834 
   64600    230.89945    126.17241     127506.7    -39776.75    2872.8281   -42649.578    181.71055   0.97950533 
   64700     229.1322   -94.616749    127364.23   -39803.017    2850.8402   -42653.857    182.14778   0.98060097 
   64800    230.93052    270.72813    127322.41   -39811.821    2873.2146   -42685.035    182.09854   0.98092306 
   64900     233.0782   -76.368236     127324.8   -39794.258    2899.9359   -42694.193    182.30596   0.98090465 
   65000     230.6391    120.98802    127263.88    -39750.38    2869.5889   -42619.969    182.88432   0.98137419 
   65100    234.15831    49.936367    127353.49   -39776.974    2913.3745   -42690.349     182.9742   0.98068369 
   65200    229.81859    174.61257    127317.17   -39777.966    2859.3802   -42637.346    183.53043   0.98096343 
   65300    227.85523   -225.93789     127317.9   -39781.594    2834.9522   -42616.546    183.86365   0.98095787 
   65400    233.15016   -24.496696    127385.71   -39713.344    2900.8313   -42614.175    184.34951   0.98043568 
   65500    230.62024   -30.647968    127452.16   -39793.556    2869.3542    -42662.91    184.98057   0.97992449 
   65600    225.69943    22.525099    127557.83   -39839.688      2808.13   -42647.818    185.71644   0.97911272 
   65700    232.90559   -11.236218     127405.8   -39885.588    2897.7884   -42783.377    185.63616   0.98028107 
   65800    227.92711   -112.91534    127353.81   -39892.006    2835.8466   -42727.853    186.31921   0.98068125 
   65900    232.32051     57.84714    127454.56   -39861.213    2890.5088   -42751.722    186.84994   0.97990603 
   66000    231.67178    43.774816    127340.61   -39769.196    2882.4373   -42651.633    187.01408   0.98078286 
   66100    231.37087   -93.350879    127481.41   -39732.667    2878.6935   -42611.361    187.47477   0.97969966 
   66200    232.88055    55.795783    127290.64   -39721.999    2897.4768   -42619.476    187.82877    0.9811679 
   66300     234.1963    -18.44823    127398.78   -39769.945    2913.8473   -42683.792    188.05638   0.98033504 
   66400    232.96791   -157.62138    127272.79   -39832.713    2898.5637   -42731.276    188.49885   0.98130548 
   66500    232.89123    4.5846196    127276.32   -39873.473    2897.6096   -42771.083     188.7903   0.98127833 
   66600    232.26376    105.30739    127397.34    -39906.47    2889.8027   -42796.273    188.75811   0.98034614 
   66700    229.81486     3.860723    127353.05   -39930.554    2859.3338   -42789.888    189.11048   0.98068707 
   66800    228.49893    91.193652    127471.14   -39867.185    2842.9611   -42710.146     189.4181   0.97977856 
[...]
   84600    226.64452    225.96989    127505.04   -39946.821    2819.8888    -42766.71    241.97634   0.97951805 
   84700    226.78041    170.41978    127489.63   -39957.179    2821.5795   -42778.759    242.25243   0.97963649 
   84800    230.65982   -1.6958039    127507.39   -39924.397    2869.8467   -42794.244    242.41191   0.97949999 
   84900    222.75167   -138.42018     127532.1   -39903.831    2771.4543   -42675.285     242.5798   0.97931023 
   85000     233.0271   -89.438503    127566.11   -39847.526    2899.3001   -42746.827    242.93527   0.97904912 
   85100    228.57795    76.474627    127695.13    -39846.78    2843.9443   -42690.724    243.15046   0.97805993 
   85200    229.90149     75.96902    127580.49   -39867.787    2860.4116   -42728.198    243.49817   0.97893882 
   85300    224.37497   -100.64051    127455.14   -39903.119    2791.6512    -42694.77    243.95084   0.97990159 
   85400    228.10112   -196.78036    127344.76   -39886.003    2838.0116   -42724.014    243.78211   0.98075095 
   85500     230.4276    144.96185     127175.9   -39850.453    2866.9574    -42717.41    243.74618   0.98205311 
   85600    229.78416     157.8523    127308.49   -39824.134    2858.9518   -42683.086    244.19394   0.98103037 
   85700    227.54281   -81.083232    127282.14   -39861.255    2831.0652   -42692.321    244.72761    0.9812334 
   85800    229.60616    69.371789    127212.77   -39852.563    2856.7371     -42709.3    244.89373    0.9817685 
   85900     231.6286    169.87987    127146.34   -39728.633    2881.9001   -42610.533    245.41041   0.98228148 
   86000    230.71865    17.812603    126992.62   -39785.598    2870.5787   -42656.177    245.15193    0.9834705 
   86100    233.05465     134.8352    127080.15   -39777.664    2899.6429   -42677.307    245.44671   0.98279308 
   86200    232.06431    191.82381    127198.29   -39751.571    2887.3212   -42638.892    245.87376   0.98188026 
   86300    236.09103   -214.23679    127471.48   -39804.844    2937.4213   -42742.265    246.43714   0.97977595 
   86400    229.75679    6.3019272    127135.14   -39827.238    2858.6112   -42685.849    246.07517   0.98236799 
   86500    229.11767    81.054754    127295.06   -39807.453    2850.6594   -42658.112    246.94127   0.98113381 
   86600     235.3685    146.89422    127179.41   -39742.731    2928.4315   -42671.163    247.00867   0.98202599 
   86700    235.06722    251.05777    127397.77   -39745.622    2924.6831   -42670.305    247.32127   0.98034281 
   86800    230.13925    -103.9444    127496.89   -39807.895    2863.3698   -42671.265    248.22058   0.97958066 
   86900    231.56696    1.0316181    127441.47   -39772.685    2881.1332   -42653.818    248.34268   0.98000665 
   87000    231.59744   -98.290751    127489.71   -39794.004    2881.5125   -42675.516    248.81359   0.97963583 
   87100    233.26924    55.433935    127305.92   -39850.886    2902.3128   -42753.199    249.12721   0.98105013 
   87200    233.21662   -54.544854    127571.33   -39854.634    2901.6582   -42756.292    249.71354   0.97900906 
   87300    227.99048    30.311694    127384.63   -39853.605     2836.635    -42690.24    249.68983   0.98044396 
   87400    229.65564    278.42923    127622.16    -39860.45    2857.3528   -42717.803    250.22556   0.97861919 
   87500    228.56992   -245.23257     127658.4   -39866.085    2843.8444    -42709.93    250.18756   0.97834138 
   87600    227.89656     56.64944    127572.87   -39864.667    2835.4665   -42700.134    250.32171   0.97899729 
   87700    229.71492    101.71701     127698.2   -39863.439    2858.0903   -42721.529    250.44538   0.97803642 
   87800    230.11452   -85.553572    127685.19   -39843.521    2863.0622   -42706.583    251.05903   0.97813611 
   87900     228.5532    218.79715    127497.04   -39855.094    2843.6363    -42698.73    250.83422   0.97957955 
   88000    224.31012    1.2442641    127511.85   -39875.198    2790.8444   -42666.043    250.76986   0.97946579 
   88100    232.30076   -141.09542    127599.53   -39808.901    2890.2631   -42699.164    251.38678   0.97879275 
   88200    230.26233    189.00319    127519.04   -39788.656    2864.9011   -42653.557    251.75859   0.97941056 
   88300    229.68815    39.388108    127581.67   -39822.849    2857.7573   -42680.606    251.68712   0.97892976 
   88400    225.17503    39.271531     127611.3   -39937.912    2801.6055   -42739.517    252.00121   0.97870244 
   88500    232.95046    63.973252    127781.35   -39854.304    2898.3466    -42752.65    252.27894   0.97739998 
   88600    231.30351   -20.152848    127790.27   -39809.803    2877.8553   -42687.659     252.3076    0.9773318 
   88700    235.59505    42.509368    127834.75   -39802.082    2931.2504   -42733.332    252.69909   0.97699167 
   88800    231.24684    97.844651    127644.72   -39737.153    2877.1503   -42614.304    253.23744    0.9784462 
   88900    231.88332    116.94025    127715.14   -39774.419    2885.0694   -42659.489    253.89108   0.97790668 
   89000     229.8774    1.1406187    127582.52   -39748.662    2860.1119   -42608.774    253.58458   0.97892325 
   89100     233.3343   -93.899885    127543.93   -39847.145    2903.1222   -42750.267    253.69034    0.9792194 
   89200    228.08707     69.18446    127691.64   -39891.612    2837.8367   -42729.449    254.18411   0.97808667 
   89300     229.0549    67.658699    127747.76   -39915.507    2849.8784   -42765.386    254.61331   0.97765702 
   89400    226.80164    71.217969    127886.95   -39946.346    2821.8436    -42768.19     255.2878    0.9765929 
   89500    226.12314   -112.19229    127882.39   -39978.538    2813.4017   -42791.939    256.13619   0.97662772 
   89600    227.41445     20.28522    127811.19   -40009.964    2829.4681   -42839.432    256.53521   0.97717177 
   89700    226.30846   -209.00773     127723.4   -39973.712    2815.7075    -42789.42    256.00843   0.97784348 
   89800    228.28458    60.373691    127711.39   -39946.044    2840.2942   -42786.338    256.50448   0.97793539 
   89900    228.91308   -26.646073    127712.61    -40017.31    2848.1139   -42865.424    256.71192   0.97792609 
   90000    227.28074    18.891531    127795.99    -39927.49    2827.8044   -42755.295    257.14663     0.977288 
   90100    227.67635   -152.00949    127674.83   -39944.966    2832.7266   -42777.693    256.82967   0.97821542 
   90200    230.16736   -100.22769    127735.95   -39977.791    2863.7195   -42841.511    257.35602   0.97774741 
   90300     224.1983   -37.333378    127664.09     -39977.2    2789.4531   -42766.654    257.38092   0.97829773 
   90400    227.74587     158.4602    127623.13   -39984.684    2833.5916   -42818.276    257.61054   0.97861173 
   90500    231.08137    68.069471    127645.41   -39952.399    2875.0915    -42827.49     258.0651   0.97844089 
   90600    233.40404   -43.413592    127414.55   -39859.477      2903.99   -42763.467    257.70229   0.98021374 
   90700    230.49518   -201.36763    127621.89   -39865.003    2867.7982   -42732.801    258.11682    0.9786212 
   90800    233.05311    28.381177    127625.34   -39903.957    2899.6238   -42803.581    258.33561   0.97859474 
   90900    227.90668    10.732454    127637.59   -40002.267    2835.5923    -42837.86    259.30963   0.97850089 
   91000    226.51431   -87.203957     127509.7   -40024.626    2818.2687   -42842.895     259.9584   0.97948228 
   91100     225.2307   -257.83363    127343.24   -39989.071    2802.2981   -42791.369    259.53257   0.98076266 
   91200    228.94941    2.6331114    127499.38   -39940.262    2848.5659   -42788.828    259.78999   0.97956153 
   91300    235.39335     -50.1837    127456.06   -39826.872    2928.7407   -42755.612    260.37575   0.97989449 
   91400    227.62305    -26.29891    127296.94   -39784.446    2832.0635    -42616.51     260.2096   0.98111932 
   91500     233.6747   -93.279764    127375.69   -39796.099    2907.3575   -42703.456    260.60968   0.98051275 
   91600    229.89341     24.94767    127114.64   -39838.387    2860.3111   -42698.698    261.18474   0.98252645 
   91700    228.96181    28.258543    127247.34   -39908.561    2848.7203   -42757.282    261.37294   0.98150177 
   91800    227.47737    102.21685     127373.6   -39888.382    2830.2509   -42718.633    261.84974   0.98052883 
   91900     233.4025     126.8075    127554.22   -39902.095    2903.9708   -42806.066    262.46333    0.9791404 
   92000    231.52447    84.068567    127730.83   -39913.854    2880.6046   -42794.459    262.79917   0.97778658 
   92100    225.91711    24.322246    127633.94   -39960.384    2810.8383   -42771.222    263.32517   0.97852883 
   92200    233.39728    51.153583    127715.76   -39903.043    2903.9059   -42806.948    263.90159   0.97790193 
   92300    228.75427    106.32577    127506.27   -39805.839    2846.1381   -42651.978    263.90966   0.97950862 
   92400    230.46505    34.268374    127499.95    -39797.83    2867.4234   -42665.254    264.39988   0.97955714 
   92500    227.55107    131.80458    127436.62   -39846.077    2831.1679   -42677.245     264.2841   0.98004394 
   92600    229.57097   -286.24495    127298.67   -39799.364    2856.2993   -42655.663    264.71157   0.98110604 
   92700    230.30411   -83.026579    126969.32   -39783.795     2865.421   -42649.216     264.7783   0.98365091 
   92800    230.80088    81.246846     127098.9   -39805.944    2871.6017   -42677.546    265.33865   0.98264813 
   92900    230.76368    48.751711    127080.86   -39760.768    2871.1388   -42631.907     265.5548   0.98278756 
   93000    225.62326    16.360483    127190.38    -39762.35    2807.1823   -42569.532    266.07896   0.98194137 
   93100    231.34713   -11.434773    127215.36   -39698.024    2878.3981   -42576.422    266.43415   0.98174851 
   93200    233.00245    -55.34565    127411.58   -39697.177    2898.9934   -42596.171    266.88147   0.98023658 
   93300    231.36374    82.654832    127268.52    -39734.54    2878.6048   -42613.145    266.52464   0.98133842 
   93400    231.12128    114.57495    127188.53   -39757.282    2875.5882    -42632.87    266.80133   0.98195564 
   93500    223.56356   -189.52291    127230.52   -39799.132    2781.5557   -42580.688     267.5861   0.98163153 
   93600    225.50055    52.504545     127067.9   -39871.187    2805.6556   -42676.843    268.04788   0.98288784 
   93700    224.30216    156.83479    127144.17   -39834.932    2790.7453   -42625.677    268.54134   0.98229821 
   93800    229.28463   -45.495437    127139.94   -39809.705    2852.7367   -42662.442    268.90011   0.98233088 
   93900    231.15222   -34.458876    127173.75   -39784.084    2875.9731   -42660.057    268.82784   0.98206974 
   94000    231.77664   -18.781009    127077.43   -39786.588    2883.7421    -42670.33    269.21569   0.98281407 
   94100    230.12319    112.29053    127100.32   -39805.228    2863.1699   -42668.398    269.58299    0.9826371 
   94200    232.06476   -90.541545    127199.15   -39807.562    2887.3269   -42694.889    269.72752   0.98187359 
   94300    230.23902    148.86406    127203.56   -39768.269    2864.6111   -42632.881    270.56677   0.98183957 
   94400    237.28199   -17.089487    127142.77   -39752.694     2952.239   -42704.933    270.75339     0.982309 
   94500    231.77203   -7.0628479    127088.03   -39680.298    2883.6846   -42563.982      270.901   0.98273211 
   94600     231.2881   -97.615182    127149.89   -39712.085    2877.6637   -42589.749    270.46389   0.98225402 
   94700    226.21555    166.23247    127325.89   -39751.086    2814.5515   -42565.638    271.05697    0.9808963 
   94800    230.71555   -79.261806    127337.24    -39763.52    2870.5401    -42634.06    271.52292   0.98080884 
   94900    231.05118    22.617784    127146.53   -39732.033    2874.7159   -42606.748     271.2386   0.98227995 
   95000    231.39187    32.717054    127213.02   -39724.824    2878.9548   -42603.778    271.92968   0.98176661 
   95100    235.19074   -75.133741    127274.65   -39717.077      2926.22   -42643.297    272.55253   0.98129121 
   95200    232.79623    113.32731    127151.85   -39734.602    2896.4277    -42631.03    272.46883   0.98223889 
   95300    232.93898   -120.52945    127383.67   -39630.897    2898.2038   -42529.101    272.97165   0.98045133 
   95400    232.39922     41.70385    127217.73   -39683.249    2891.4881   -42574.737    272.80246   0.98173019 
   95500     234.1019    60.379357    127132.48   -39680.896    2912.6727   -42593.569    273.42671    0.9823885 
   95600    231.22337   -81.465167    127121.82   -39674.364    2876.8583   -42551.222    273.03746   0.98247093 
   95700    230.02776    44.063347    127155.81   -39745.333    2861.9827   -42607.316     273.6586   0.98220826 
   95800    226.86814   -23.290189    127165.13   -39801.638    2822.6709   -42624.309    273.85805   0.98213631 
   95900    231.21539    62.064383    127072.66   -39762.438    2876.7591   -42639.197    274.62777   0.98285102 
   96000    228.77473    50.362806     127056.5   -39838.966    2846.3926   -42685.359    274.55395   0.98297597 
   96100    226.17547    159.19026    127192.72   -39779.579    2814.0528   -42593.632    275.24989   0.98192326 
   96200    229.47816   -26.854472    127569.55   -39807.402    2855.1446   -42662.546    275.71308   0.97902271 
   96300    229.95566   -68.827883    127389.02   -39765.247    2861.0856   -42626.333    275.39793   0.98041014 
   96400    231.27727   -105.91348    127180.49   -39751.675     2877.529   -42629.204    275.31437   0.98201767 
   96500    227.53632    128.64972    127153.68   -39796.588    2830.9844   -42627.573    275.54767   0.98222472 
   96600    230.69994   -32.876337    127077.52    -39785.01    2870.3458   -42655.356    275.56288   0.98281341 
   96700    226.72559   -94.435189    127011.38   -39856.587    2820.8974   -42677.484    275.83085   0.98332521 
   96800    226.01289    242.49465    126755.39   -39910.369    2812.0301   -42722.399    275.63852   0.98531105 
   96900    226.69577    1.1709913    126956.12   -39845.141    2820.5263   -42665.668     275.7121   0.98375325 
   97000    224.66458   -68.855804    126995.44   -39829.844    2795.2545   -42625.099     275.7623   0.98344864 
   97100    226.72551   -278.73882    127127.38   -39832.345    2820.8964   -42653.241    276.15947   0.98242796 
   97200    227.10369    108.19184    127167.66   -39842.466    2825.6016   -42668.067    276.55099   0.98211678 
   97300    227.41617    127.76535    127158.51    -39850.37    2829.4896    -42679.86    277.18371   0.98218741 
   97400    229.97142   -25.636786    127392.35   -39878.144    2861.2817   -42739.425    276.94427   0.98038452 
   97500    231.84583   -232.29801    127285.66     -39780.4    2884.6029   -42665.002    277.21565   0.98120628 
   97600    226.10242   -123.68624    126926.35    -39860.93    2813.1439   -42674.074    277.30398   0.98398397 
   97700    226.93986   -1.0184389    126933.87   -39800.238    2823.5634   -42623.801    277.40511   0.98392563 
   97800    230.31077   -90.493359    126919.42    -39783.33    2865.5038   -42648.833    277.66901   0.98403771 
   97900    231.68025    116.77335    126789.81   -39750.033    2882.5428   -42632.576     277.7656   0.98504361 
   98000    231.65736   -99.973666    126912.68   -39776.565     2882.258   -42658.823    278.33367   0.98408991 
   98100     232.2881    18.285128    126854.98   -39851.032    2890.1056   -42741.138    278.39666   0.98453753 
   98200    229.09747   -35.194379     127187.5   -39835.795    2850.4081   -42686.203    279.30226   0.98196354 
   98300    226.82916    110.99933    127444.85   -39851.159     2822.186   -42673.345    279.92665   0.97998067 
   98400    228.93741   -21.870562    127552.28   -39872.996    2848.4166   -42721.413    280.05086   0.97915532 
   98500    230.66961    96.551155    127557.34   -39896.132    2869.9684   -42766.101    279.90624   0.97911642 
   98600    229.71555    147.62292    127593.07   -39943.126    2858.0982   -42801.224    280.43943   0.97884225 
   98700    230.68289    56.923356    127647.05   -40008.716    2870.1337    -42878.85    281.38505   0.97842836 
   98800    224.90944    32.438986    127897.94     -39983.5    2798.3011   -42781.801    282.17641   0.97650902 
   98900     226.1923   -243.15185    127906.35    -39977.51    2814.2622   -42791.773    281.86031   0.97644482 
   99000    227.20672    84.528219    127794.82   -40026.774    2826.8835   -42853.658      282.395   0.97729697 
   99100     227.7156   -3.1226236    127812.59   -39949.602     2833.215   -42782.817    282.65678    0.9771611 
   99200    225.64551   -165.82883    127686.14   -39931.575    2807.4591   -42739.034    282.70239   0.97812877 
   99300    231.25246   -6.4811415    127521.26     -39875.6    2877.2202    -42752.82    283.17193   0.97939351 
   99400    233.30099    58.894848    127775.46   -39837.699    2902.7079   -42740.407    283.91743   0.97744502 
   99500    231.67079   -1.2448433    127682.41   -39719.374    2882.4251   -42601.799     284.3168    0.9781574 
   99600    239.29855    61.730766    127636.85   -39752.815     2977.329   -42730.144    284.72275   0.97850652 
   99700    234.53178   -25.761309    127444.48   -39777.922    2918.0212   -42695.943    284.55844   0.97998353 
   99800    231.66831   -72.150828    127338.78    -39783.23    2882.3942   -42665.624    284.98854   0.98079699 
   99900    231.56106    119.26395    127292.55   -39831.933    2881.0598   -42712.993    284.98776   0.98115321 
  100000    234.31109    14.700057    127270.97   -39826.388    2915.2754   -42741.663    285.31921   0.98131957 
  100100    228.42683    152.85933    127263.52   -39748.248    2842.0641   -42590.312    285.42685   0.98137697 
  100200    235.82789    121.58921    127491.86   -39745.353    2934.1473     -42679.5    286.34512   0.97961936 
  100300    233.80353    3.1542056     127540.8   -39738.202    2908.9605   -42647.163    286.24102   0.97924347 
  100400    233.83187   -194.94098    127496.11   -39771.512     2909.313   -42680.825    286.73492   0.97958671 
  100500    236.31597   -6.8946387    127374.19   -39687.136      2940.22   -42627.356    286.76195   0.98052428 
  100600    227.13558    72.682319    127371.65   -39771.671    2825.9985   -42597.669    286.90288   0.98054384 
  100630    233.58421    91.168547    127384.98   -39761.063    2906.2317   -42667.295    286.89866    0.9804413 
Loop time of 99.6818 on 6 procs for 100000 steps with 4175 atoms

Performance: 433.379 ns/day, 0.055 hours/ns, 1003.192 timesteps/s
98.8% CPU use with 6 MPI tasks x no OpenMP threads

MPI task timing breakdown:
Section |  min time  |  avg time  |  max time  |%varavg| %total
---------------------------------------------------------------
Pair    | 78.653     | 79.384     | 80.32      |   6.2 | 79.64
Neigh   | 5.4042     | 5.4259     | 5.4533     |   0.7 |  5.44
Comm    | 11.135     | 12.06      | 12.745     |  15.7 | 12.10
Output  | 0.17217    | 0.17346    | 0.17921    |   0.6 |  0.17
Modify  | 1.9028     | 1.9346     | 1.9655     |   1.7 |  1.94
Other   |            | 0.7034     |            |       |  0.71

Nlocal:        695.833 ave         705 max         689 min
Histogram: 1 1 0 2 0 0 1 0 0 1
Nghost:        1484.00 ave        1500 max        1467 min
Histogram: 1 1 0 1 0 0 0 1 1 1
Neighs:        0.00000 ave           0 max           0 min
Histogram: 6 0 0 0 0 0 0 0 0 0
FullNghs:      19782.7 ave       20309 max       19545 min
Histogram: 2 1 1 1 0 0 0 0 0 1

Total # of neighbors = 118696
Ave neighs/atom = 28.430180
Neighbor list builds = 5818
Dangerous builds = 0

undump              1
unfix               2
unfix               3
unfix               4


################################################
#######         Run Simulation         #########
################################################

reset_timestep      0
log                 log.run_${NAME}
log                 log.run_liquid_density_MLmW
