LAMMPS data file via write_data, version 29 Oct 2020, timestep = 800000

4175 atoms
1 atom types

0.026000604806167615 49.97399939519397 xlo xhi
0.026000604806167615 49.97399939519397 ylo yhi
0.026000604806167615 49.97399939519397 zlo zhi

Masses

1 18.015

Atoms # atomic

2021 1 12.617994765905241 3.8994909393871895 1.030303913793451 -1 0 1
1007 1 4.822818415585505 2.611480972362374 1.5914272105715825 1 0 0
3585 1 6.605048223718035 24.89848939887038 12.004199367009763 1 0 0
597 1 18.032392447916713 6.345888897290051 0.4241091036177 0 0 1
1399 1 3.7653767138777043 24.10619340188784 14.42145552337872 1 0 0
3353 1 22.614328758996653 23.385357660283173 2.884089369822729 1 0 2
2575 1 37.13137097372872 10.003680832466152 0.5111038205274161 -1 0 1
3624 1 20.55950096681855 2.3842672095068433 1.4249478818589352 0 0 1
321 1 23.09449116119266 2.9817222381633006 2.7652339702327087 0 0 -2
2548 1 22.345400753586286 16.504999185000905 16.31050483508712 2 0 0
2707 1 46.86174844952737 6.826617758285334 0.21762298252185713 -1 1 0
1770 1 34.23356792332844 0.495366316968952 3.399882653925704 -1 0 2
1141 1 41.508738733562225 0.14375994176667461 8.165170912802383 0 0 0
445 1 36.56037230795229 2.3754398088157695 3.264371752208066 -1 0 -1
1558 1 37.646491984931686 0.354114991615568 9.890495156263487 -1 -1 0
2904 1 28.993554139992934 2.7108215730518213 16.64538399826265 0 1 0
2564 1 38.28332424765367 3.4700822053606206 0.3690692155824948 0 2 0
2364 1 42.53092545352875 18.207898718652892 0.6630263988592948 -2 1 1
239 1 2.645070479948149 6.5138743827781305 4.096630503150408 0 0 0
850 1 2.9107235716930897 4.4930979698210995 1.9016887279569543 0 0 0
3138 1 10.182648362270928 3.2271270412696222 2.436829950528273 0 1 1
698 1 28.11646826034352 0.8786613265247 2.332694589087788 1 1 0
3654 1 13.595134384237577 2.228706091999738 3.784323057280914 0 1 0
2254 1 22.69431176823102 11.08261674535584 0.4392330551167434 0 0 -1
3308 1 18.764290893808283 7.012828208421223 3.273704765963325 -1 0 0
1623 1 25.025111493954842 7.178614087502704 4.343416766652702 0 1 0
704 1 22.99783140701059 13.036226000660797 15.071368871087145 0 0 0
2516 1 27.260604965573194 3.2190938083591156 1.066366808513608 1 0 1
2885 1 30.762287032073445 1.1386267196047535 2.025982389418341 0 0 0
535 1 48.64097106230844 0.07938666874050368 1.8690513749616218 0 0 0
491 1 43.681476800725676 5.057074972316629 2.8624563147771034 0 0 -1
1343 1 47.97343457413896 5.03227287344703 4.115826436362517 0 0 -1
3222 1 0.7627170077208411 8.442421375157426 3.107785904825257 1 0 0
526 1 4.799176254932392 6.953122704445205 1.9372696902741606 0 0 1
946 1 7.792923343305967 4.6113997405281 1.5486516004935413 -1 0 1
2848 1 13.453391313844357 6.380413945946516 1.3599292625643644 0 0 1
2319 1 2.9657232903494037 0.7301604455341958 1.051884261199142 0 2 1
62 1 28.33048383280832 0.4943521879902254 8.332557193880966 -2 0 1
651 1 14.117719195976546 1.4835313935041874 0.5817158543908633 -1 -1 0
645 1 29.99421484921927 5.5461930037251514 0.509994318539553 0 1 1
620 1 27.05463414118675 5.164407415393737 3.114961405146724 0 0 0
3043 1 29.852287914113994 4.161843792644528 3.0910587947954404 0 0 1
3086 1 32.58063810282937 6.766377599181327 0.9353122831584311 -1 2 -1
2719 1 45.688835844229615 0.6608817705724537 12.88547747706642 0 1 1
214 1 39.54267721488674 4.84270681292222 2.879263072614063 0 0 0
3100 1 40.805408785689465 6.051910914448403 0.6365159651589981 0 1 0
1592 1 45.85519065279374 6.549265409264944 3.0335346773552083 0 1 1
3964 1 2.3368207125321385 10.673599927139277 2.4158203421332787 -1 2 1
168 1 0.2182361004415304 10.9882483836274 0.5608035427354876 0 0 1
1968 1 4.146871677092459 9.625494458212005 0.6936454811996422 1 0 2
4161 1 6.733184046876634 10.683161392836263 1.4269588026677886 1 1 -1
3860 1 9.017772819346165 7.384561049629354 1.5172030890636925 1 0 1
3590 1 14.219136299358 10.620848828016573 3.8074556637263255 0 1 2
409 1 8.894654208513922 24.052311694203915 10.538020403477988 1 -1 1
3526 1 27.623677664100832 21.552286521947558 0.8617571592109803 0 0 0
935 1 28.312022313572594 9.519907272957731 5.169368629327272 0 0 1
1521 1 29.48571295978113 9.281701700343655 2.780001449711508 0 0 1
3089 1 28.18056398384199 14.176922297503292 2.924640488107967 0 1 -1
771 1 31.46375160955985 12.514804047041551 2.4595876660039035 1 1 1
3133 1 34.68886896334779 9.162291934446962 2.2615601251423882 -1 1 1
511 1 17.95151630317825 10.6268372808018 0.9214178724185588 1 -1 0
253 1 43.55567640009194 11.855165385761111 1.43937458072862 -1 -1 0
2000 1 46.113857377577006 10.767258757353853 1.7418803661547753 -2 0 1
905 1 48.335122729249335 12.445206358892603 2.2116637265715813 0 1 1
4085 1 2.4229295427616413 14.455829679345747 1.1884851374131031 -1 0 2
137 1 9.467659242810473 14.660499296765071 2.5200928489053216 1 0 0
368 1 11.669090464090651 10.15497692140833 2.422264836073505 0 1 0
2888 1 11.47777111223959 18.343971051911627 3.06501095806941 2 1 0
2912 1 17.81949935779785 15.255671900878513 2.062558077665708 0 1 0
3807 1 16.0784427908922 17.252353936538576 1.6033962916755407 0 0 1
720 1 2.30953013759503 24.804471403081784 12.0885223686976 1 -2 0
3806 1 20.355069575235174 12.054805235011406 1.7398763435822362 0 0 1
1008 1 23.34492354173419 14.266418133008292 5.093809977043943 0 0 0
3844 1 29.115419913116522 12.628673917919299 5.095647350293016 -1 0 -1
3360 1 30.113641446144975 15.323436038234318 1.2609369371979016 0 1 0
2922 1 41.043063670478574 14.58666130363214 0.049863090873789616 -1 1 -1
2335 1 49.82557914784867 0.880273003417581 13.031466775124231 0 1 0
2533 1 44.56204634191464 14.474940685872584 1.0111646350414836 0 2 0
4 1 24.796778361879767 1.876546649537731 0.7986769539013859 0 1 0
1866 1 47.0162053295151 14.688771234164708 2.387846624808916 0 0 0
2988 1 3.6503130444373544 18.477091927360245 1.3495622928192554 0 0 1
4022 1 6.092393603527667 16.852738516012128 1.4532182837871432 0 -1 1
3582 1 8.673460243352178 19.35778368738502 2.6945226881046085 1 1 0
3158 1 9.6000705335852 24.995109150971512 7.217379157708676 0 -1 0
2588 1 13.09764742857072 14.722243899301748 1.788861901201498 0 -1 -1
211 1 27.240012166210985 21.34873547273359 15.632600817234259 1 -1 0
2312 1 20.152624542194005 16.55507279472403 2.661501368555857 1 1 0
2803 1 23.306300926169087 19.647167323672647 1.7558786143419378 -1 0 1
1554 1 25.012652942816647 17.299348240796572 1.6398727653788605 0 0 0
1180 1 30.025296173988917 17.947081733370467 2.2275116107195685 1 0 0
3864 1 32.57154941428445 15.091935443896755 2.2240332266928533 0 0 -1
2760 1 33.59843506645018 9.463984011513386 15.67848974288119 -1 1 1
2801 1 35.92157493835889 17.159956840659376 4.795771387046776 1 1 0
454 1 38.46212516027424 0.20612412598908209 14.41878510171163 0 0 0
413 1 45.11016277762003 19.72348022961568 1.3236825788755187 -1 -1 0
1551 1 24.255355342007963 14.50555320804184 2.3091871895386507 0 0 0
2878 1 1.5705636535292422 16.64321590637558 2.767885544501871 1 1 -1
928 1 18.52910271565608 24.89115225825675 3.765696777282415 0 0 0
2339 1 4.094087200837255 20.74048165660175 3.172841942152975 1 0 0
991 1 5.801368100345289 22.34674965434578 1.5413023882044758 0 0 0
367 1 34.85391172665561 22.908224395796296 4.139362447898539 0 0 1
3870 1 8.003489773737114 20.71464401505145 0.1713154720277849 0 0 1
1402 1 13.366030859793112 20.651026630543655 0.9415686793253767 0 0 1
734 1 20.47736563299414 19.296947000920742 1.50664821070623 1 0 2
2722 1 19.666262233746956 20.98329738651498 4.5714796350396405 -1 2 -1
2680 1 27.27124051903036 19.19377965840575 3.3408286741770548 0 1 0
329 1 32.38026464846898 23.80137838438797 5.626016291197233 -1 -1 0
4003 1 31.797664367654484 18.541116935177786 4.457447304220386 2 0 1
1273 1 6.5474661417315865 0.8352467014304825 10.948831224200484 0 0 0
3052 1 33.79183083158938 17.584742338399153 2.4131819639256378 0 0 0
1650 1 39.819998336833265 19.67985625720018 1.9737717921441125 0 0 1
1920 1 41.34612146097723 21.917416525240114 2.6033457004273695 -1 -1 2
1674 1 48.348813187110196 22.167212849723175 2.64333532633846 -2 0 1
3230 1 43.559655614348245 22.376733931563713 1.0296254393994733 -1 1 1
3349 1 38.463756586791646 12.963033941166502 0.665940286831707 1 0 0
2524 1 1.036322640051059 23.294591750816615 2.2941699578726573 -1 0 0
3306 1 47.69489040907564 2.5813670856659616 12.717558631705586 0 0 1
1842 1 7.663517853071149 24.048628612548974 2.6897228369059345 -1 1 1
1931 1 7.1763291582264515 13.114959059321333 0.2767242185995669 1 1 1
1023 1 25.079306147226454 8.059913217367011 1.6051873211605008 0 -1 1
1247 1 48.91591468917005 0.7580040004171426 6.432019000861474 0 -1 1
1174 1 12.182218110701264 17.94793477642822 0.29621424508108446 0 0 1
1419 1 41.26103083226563 8.71271219297572 0.968023033499237 1 -1 1
3825 1 25.139158483884152 24.41203151604716 1.514602810569731 0 0 1
1185 1 19.62603419022158 22.562582825279286 2.5049631226785585 0 0 0
1776 1 27.239321365526312 23.22445318247155 3.334761501754313 1 -1 1
2445 1 35.31681193838625 1.105677511976033 8.22173853957705 -1 0 0
3824 1 32.72169941704877 21.362751768834123 1.441525451929369 1 0 1
3464 1 42.773850020451704 1.9361820526374716 9.95280287467449 -2 0 0
3793 1 37.99428740272576 20.703707617967073 4.4492291891534475 0 0 1
1825 1 39.90205503218827 24.39908375870416 2.813791602008479 0 0 0
2981 1 46.05560656234019 24.203772271815687 13.514127280232199 0 1 0
2378 1 44.03829411493301 24.540547526530922 7.552362754796241 -1 0 0
1073 1 44.786449485280926 24.875185775099663 0.8317752898141434 0 0 0
1380 1 0.8851279578528053 23.974273318825848 8.41870891376635 1 -1 0
2510 1 3.3737587024727027 1.7571785483459985 5.47959165949724 1 1 0
2389 1 5.572560864787171 2.2672564248777656 3.9943007098622996 2 0 1
2303 1 11.901564172488364 0.22009476284879928 5.122365140176218 0 2 1
2345 1 9.311941407405248 1.0743278619600236 7.273970104247707 -1 1 0
3335 1 16.334668952517276 2.2920642729485263 3.9311724520314573 1 1 0
423 1 8.862911179919731 0.7501380613266706 1.3730804775669356 0 1 -1
2679 1 19.10653172362842 1.024043947527327 5.93314262964843 1 1 0
1391 1 24.55490915664357 1.9173796416719688 4.964176085799331 1 -1 0
266 1 27.26586881388514 2.096463766252894 4.77280867076087 0 0 -1
1527 1 29.45815230765091 3.2536835773396184 6.115895066787991 0 -1 0
3029 1 11.612857201490819 8.110079334640222 0.4043758831317671 0 1 -1
963 1 12.540243594484153 23.55810158719443 6.817009192320309 0 1 1
3056 1 36.69759943803386 1.4353750020889153 0.7846357606906185 0 1 1
2112 1 39.4355147663461 2.384060434440253 4.2089856595410255 0 1 -1
1339 1 33.63791559199562 4.244100300183662 1.0700419224002606 1 1 0
76 1 44.76871019083133 3.2318978979778743 4.488930358558235 -1 0 -1
1638 1 47.06033957499203 2.5073855343911626 3.0949274364034727 -1 0 -1
2458 1 0.6891075235700586 2.134798281290559 4.752134658821344 0 1 0
3232 1 0.9763125454539333 4.835985408331119 5.83088059711752 1 0 0
3923 1 7.359782357654013 3.832912038286881 4.8590333055523836 1 1 1
613 1 9.861764230038448 2.8440872896087597 5.356577940101515 1 1 0
1926 1 12.573848199970222 4.226513564610178 5.541431945738329 0 1 1
3796 1 14.549728508349498 4.235815824417714 7.3459389001417 0 0 0
2694 1 16.621772891866666 4.615521455206153 5.698369287753815 1 0 0
4068 1 15.586322955411529 6.766269872538264 3.847954521082133 0 1 1
3236 1 20.064140935665105 4.679818135126963 3.845386777473269 0 0 -1
1241 1 32.80070917772936 3.2325662416839753 3.319659473989341 0 1 1
1222 1 35.67946248990401 5.070517424593736 4.096322842520683 0 0 1
1613 1 33.45936636451734 4.936269640078758 5.660325822383819 -1 1 0
4023 1 40.729955502036134 4.46918898097331 6.598721653163716 0 0 1
4087 1 48.30532269757981 5.381576708492188 7.056936983042439 0 1 0
2160 1 4.7012852847023705 6.982508960062207 5.97820544131321 0 0 0
2353 1 6.615752540472465 6.351984767274154 4.053696817769069 0 1 2
41 1 8.390230928246899 8.513877157008327 3.897266287657417 1 0 1
1089 1 10.893080349670877 8.856371228327308 4.757095187610413 0 0 2
21 1 12.697365679092252 6.602688764623399 4.323049641213887 0 0 0
3743 1 16.646499668950955 9.249534608805531 2.707061387977945 -1 0 1
797 1 22.115225385086728 8.651108681934288 4.658815558919167 1 1 0
2599 1 25.510618782723792 9.872593416606797 5.406003383634856 -1 1 1
1598 1 25.299638893057185 6.444228212712203 6.971295408323449 1 0 1
3629 1 28.268657972494942 6.747254782605861 5.805250673285305 1 0 0
3813 1 32.018982871926084 8.55582996950881 3.4143983895520704 1 1 1
1823 1 37.92471491322971 6.592722950880791 4.065590250428621 -1 1 0
1880 1 41.59437859721335 5.976474830393069 4.493666806155419 -1 1 1
1536 1 45.86094972522035 9.213459106242006 3.929953934901331 -1 1 1
2911 1 42.87911282340319 8.193646954746338 5.876853631604821 0 1 1
670 1 48.34881776119448 9.082742956180363 4.750620824271474 0 1 0
2532 1 4.091220044216539 9.506795894900339 4.772441294328098 1 1 0
3489 1 6.248988417510174 10.70630823034847 4.030899490335996 0 1 0
979 1 10.446605477443393 12.28638901755146 3.8979766423978432 -1 0 0
831 1 14.659131506383467 10.43645861521563 6.460452327407984 1 -1 1
2834 1 19.65655311873326 11.704335967985783 4.530700237034383 -1 1 1
3361 1 22.541944608578294 11.550091160587762 4.3942049217159385 -1 1 0
1037 1 23.367913056690302 10.790214443489619 7.146236961858754 -1 0 1
916 1 24.81055567698854 8.715755158006612 8.49627968713169 0 0 1
1856 1 29.48662626558799 10.21126969521672 8.331399282570926 -1 1 1
2099 1 32.772728716324664 9.0293044531112 6.344114915355887 2 0 1
3244 1 35.5138180265525 7.615388151100779 6.019438319568817 -1 0 2
657 1 38.67015731724179 8.897221037484723 2.775261572994752 -2 1 0
953 1 39.95828489045965 10.96692847916905 3.8958958004940887 0 -1 0
843 1 42.374247842508396 10.04851381472567 3.3298701385824607 0 1 1
3277 1 48.363641280572466 11.83402527629222 4.995217198950057 0 1 0
775 1 1.3432901135703899 16.051050407614866 5.453216284852758 0 -1 0
135 1 2.61000010219014 12.96168137540543 3.5730388433765095 0 -1 1
3085 1 5.189277739290268 13.173749035937506 4.538493342890203 0 1 0
2975 1 10.022503817940082 16.51431671564023 4.78317611970507 0 1 1
3039 1 12.105554426205972 13.403427404971872 5.763071612890454 2 1 0
488 1 14.857747166570523 12.798471377010504 2.429152118005789 0 -1 0
1317 1 15.268697928311914 17.999166645042255 6.852052048455099 1 0 0
1086 1 16.722065821536763 14.154608124535667 4.349507564679428 0 0 1
4024 1 25.210854080325984 16.296591180469353 6.067701851435463 0 1 -1
852 1 32.88389803105085 14.932741016868324 4.89801580317901 1 0 0
1806 1 35.03757114627233 12.291913714222861 5.196804073121422 -1 0 -1
205 1 35.90926344359467 14.314057901415248 3.616694029335376 0 0 1
306 1 39.14218933654237 13.655670451342877 3.492655862506481 0 -1 0
1669 1 41.98170850485778 12.997122166037059 5.371946549378534 -1 0 0
3433 1 44.49887465572142 15.263995833528242 4.4333227615748605 -1 1 0
1647 1 0.7450035225842945 13.4004769871718 5.591031569134173 0 1 1
3636 1 3.5389089415340673 17.6368559789807 6.83028728350433 -1 0 1
411 1 6.679855852267891 14.499025659837015 2.8029431376258938 1 0 0
1269 1 10.16998346014332 16.925499259954577 7.602617823227656 0 -1 0
2623 1 13.20426158367842 16.31178363593369 3.977837907267824 0 1 0
91 1 18.25423109322332 18.760969239559923 3.522748650245151 0 -1 0
2950 1 18.050110501358724 16.678122928320263 5.50824314540451 0 0 -1
1829 1 21.167308024116018 15.781044762547236 5.26205160693626 1 0 2
2865 1 22.805797100640746 17.80530237066634 6.004661539949055 0 0 0
1478 1 26.764901033820856 16.271340138000767 3.850509132800744 0 -1 0
2140 1 33.19320967804353 14.561010687961117 8.039238595116991 2 0 0
1120 1 33.78688440933247 17.21362056558459 6.250244628613068 0 1 0
1618 1 42.02208261673131 14.518202714837267 2.9645080646547255 -1 0 1
1824 1 38.281695292967825 16.470113525917483 2.603472034192844 0 -1 1
2576 1 41.01255969384758 17.247017562835598 3.144445373881732 1 0 0
2395 1 47.43076233808404 19.649749960319216 3.0764041431615223 0 0 1
2455 1 49.459082738796766 18.2740163535659 1.7573791384969126 -1 0 -1
159 1 47.064192175496856 18.06395921234282 5.260201762133952 -1 0 0
4056 1 1.5045214634593107 20.490974279871136 3.193588436554893 -1 2 2
3060 1 49.64677417589513 17.97708629527155 6.752336309177605 0 1 1
1666 1 5.569450426602716 19.623838320349 5.340628376582563 0 -1 1
3075 1 7.295348758042589 17.348371899985267 4.4424466167393915 0 1 1
1517 1 9.357467375787046 21.932700737601728 3.6973915940743325 -1 0 0
1582 1 13.217173119504142 20.441894428779733 3.95379562229066 0 0 0
2693 1 15.760974718545386 21.10717082231044 2.648077425729215 0 0 1
1671 1 15.031207647383336 18.227607214196567 4.204965197365204 1 -1 1
1548 1 16.261933963581605 21.963655125753377 6.47671183888612 1 -1 1
4136 1 17.965832044273256 19.57014899760051 6.6750682705896045 0 0 1
400 1 21.33979662109923 19.396555295838667 9.987577176338359 -1 1 0
81 1 22.34821414529715 20.197142764404436 4.380683961230687 0 0 1
1496 1 28.928625594689272 17.334762663252484 5.1703958624376165 -1 0 1
3913 1 34.543016474389006 20.571006941442327 5.694330009172258 -1 0 0
3239 1 38.0295136279819 17.312539570904487 6.756744324334808 -1 0 2
2351 1 40.75760840142331 17.755108326507308 5.939294599812776 0 1 0
2483 1 42.68892648051374 21.000423945822448 4.595743025972761 -1 1 0
3917 1 49.13189067823451 6.4014996115760425 1.8675063631366844 -1 1 1
2781 1 3.5411259731399665 23.589650364925664 3.6959676708704032 0 0 -1
3679 1 37.403585697880274 23.060873863405103 7.528641119364804 0 0 0
1651 1 9.199743643721737 22.346264369066645 6.4522243875055185 1 1 2
1649 1 11.297642827479125 22.675925826328488 2.0127687899567666 0 0 2
2966 1 12.00397979258275 20.841312724121305 6.677842978881283 1 1 1
1452 1 14.235590021129552 20.26170947622464 7.959481672390754 0 1 1
2568 1 33.417666690526204 11.149815871909722 1.0469805899307039 1 0 -1
432 1 20.773702830054127 23.949064641590986 5.813168394605103 1 0 0
1459 1 23.473364555224155 22.614458917196874 5.796003552965756 0 0 0
3309 1 25.966128655348918 23.62211628805419 5.696603325469605 1 0 0
1123 1 28.880757772983966 21.072859195759126 4.632053790495938 0 1 1
2634 1 31.608119318026212 21.400277168534146 3.9672478758486758 0 1 1
333 1 32.898389681846766 0.18659590536484125 6.764051817646871 -1 1 2
4050 1 37.01572052190231 20.434442324308282 7.434670843949391 -1 0 0
2729 1 44.37678440607067 23.083731500647893 15.509843389162356 0 -1 2
996 1 46.38029723800729 24.001022647682085 3.5398226241645503 -1 -1 1
3321 1 44.6247458381237 22.775167729410484 5.493192998262415 0 1 0
3161 1 1.0354808157457749 20.204139996404503 5.855395015681264 1 1 -1
3453 1 4.2472097325226645 2.133374074586688 7.93598281602096 0 1 0
2977 1 8.81521343732338 1.9069092642321672 9.81656588791341 0 1 2
659 1 11.225625352579822 3.908229949954036 8.139067591456394 1 0 0
2831 1 21.306354100569674 7.7367739171083265 2.139154940020561 1 0 0
3717 1 37.53261544939711 10.013905832737354 15.830472395113121 -1 1 0
18 1 13.343722296672556 5.5535106531638005 15.254863781902543 1 0 0
1349 1 17.380495712842485 1.350131661951396 10.383010884084484 0 1 1
3558 1 24.106868294900874 1.0370132770847111 9.306123127630505 1 1 2
622 1 16.88118412979136 4.920011327575757 15.059032460121273 0 0 0
3432 1 44.13231599169981 0.9026762794643649 7.315121664060403 -1 0 -1
1689 1 28.110671599545213 6.336021390718505 8.813999020872837 0 0 1
1470 1 41.43324366985958 1.1533205706882943 2.68044791395246 0 -1 0
1438 1 35.3378076524628 3.874589949487731 7.87639606179167 0 -1 1
3460 1 39.365369203470934 1.519643924221427 7.009726453034283 0 0 0
1606 1 18.114376078265288 13.003392598814827 15.733456358274726 1 0 1
2716 1 46.94473593134589 1.6896440943671716 8.37861126957654 -1 1 0
1678 1 39.93964005669399 24.38781926003436 7.949872650332047 0 -1 1
1984 1 49.83570599402378 4.434141736263574 9.266407522422092 0 0 0
3194 1 2.9901521671363556 5.412507412861734 7.779424803499366 0 0 1
1194 1 6.148007805105979 4.3408478511299355 7.387043720193962 1 0 -1
2084 1 9.947642015999184 6.22540254191893 6.368462338976923 1 1 1
693 1 9.132761360068866 6.898268660282463 10.363025487839531 0 0 1
4083 1 12.991858761124751 4.65319355189303 10.20633773688308 0 1 1
955 1 19.11795419655344 3.6795839110728963 6.191704324396856 0 0 1
2910 1 22.8255910457876 5.421898051105068 4.260173811067084 1 1 0
46 1 15.245183732599498 1.9041101342895632 8.415916919589819 0 0 1
3569 1 25.39453572001701 2.759460113461487 7.575468283069537 1 1 1
2282 1 28.17279565987517 3.564559527710845 8.605390578646192 1 0 -1
1600 1 29.063828733411132 3.054687037496471 11.23441220646367 0 0 0
3475 1 32.025494054335404 3.0278306586676615 7.53826076176475 0 1 1
2993 1 38.051138517349386 4.304062329648314 8.379404441761736 1 0 0
1226 1 40.59596622127239 5.489325763196672 10.955911729227497 -1 0 0
2587 1 44.767029599879194 6.727341673928621 7.503479659710413 0 0 -1
3183 1 44.51668288980498 4.24143674806182 10.046424107235739 0 2 0
96 1 45.82380396270011 3.9986262377378483 6.967461959179543 0 1 0
3192 1 47.243254069411904 3.502559925510996 10.356553364983291 0 0 0
2798 1 5.164223697473084 9.67846912536636 7.73655314356162 1 0 0
3568 1 5.793814475610714 6.8880466082767775 9.021890540433521 1 2 1
518 1 8.171733087096653 8.051722679721818 7.742754270256807 1 -1 0
4069 1 14.797342221110693 6.706948861897561 9.15013734202736 -1 0 0
399 1 15.575397069006641 7.932094794029336 6.724128025867965 0 0 1
1951 1 19.389384930666033 9.087500907840885 5.0574541143615726 0 -1 1
3832 1 18.050437679160694 9.250784109037442 7.734355841659775 1 1 2
1672 1 23.324545399647004 4.53843958525076 7.185216431491389 -1 -1 1
3503 1 30.959101499818708 6.125110824731306 4.724617690041745 0 0 0
3003 1 30.392405168413767 5.676703930833823 11.170607744136444 -1 0 0
2581 1 30.71973963488042 7.422978293978822 7.851741454765261 0 1 0
3178 1 32.274117197368525 5.207069215818761 9.436449659826032 0 0 1
2659 1 35.1269909241979 8.859141772196427 8.515000204725611 1 1 0
3065 1 38.52181587569643 7.142628405568208 6.781239044460032 -1 0 1
3818 1 40.95287716212434 8.679244675898975 8.322424876161485 0 1 2
903 1 42.11137570610889 5.736333837488666 8.41522392287331 -1 0 0
516 1 46.39987056128986 7.913102102672684 9.514493480650545 0 1 0
198 1 48.23021053341249 8.020466231300837 7.203765967796192 -1 0 0
881 1 2.8277789726637037 11.630774817440683 6.755200381805697 0 1 0
3243 1 0.8891298640853053 9.2409909899945 7.2922512409959594 -1 1 1
862 1 7.234343234689852 10.874289563977193 9.264442284087403 1 0 0
1078 1 8.208976002556321 12.077994215229376 5.789731519506967 0 0 0
1221 1 10.106098221655454 10.04241966606553 7.096413761056884 -1 1 0
1839 1 12.58793705871751 11.446927363495528 7.895251473251629 0 0 1
1121 1 15.803380193096165 14.299550270994281 8.500101316039538 0 1 0
2049 1 16.455455146661965 11.503456844355133 9.161878459959333 1 0 2
610 1 17.235801615173163 12.224122192788847 6.214986001237258 1 0 0
4159 1 26.318235292950934 9.017861960786549 10.823890547069164 0 1 0
3231 1 27.14393180016706 11.999703809768718 7.298486947891801 1 1 -1
2213 1 36.342363877106095 9.741388159611692 4.390292184648499 0 1 1
517 1 31.865659503137298 11.788626105113575 8.108715883858524 -1 0 0
1796 1 38.988042258800405 10.298979891481581 6.6169757246314616 0 0 0
2117 1 36.91457815977999 10.79685280547472 8.457721803007738 -1 -1 0
3879 1 44.03276856613681 11.005713313896997 5.98330037786232 -1 1 2
2457 1 43.06219969118956 10.327927704897606 8.627651888432188 -1 0 -1
249 1 46.40873166364531 11.57981913220196 6.849447206201385 0 -1 1
561 1 46.6897489500912 10.552369642659153 9.407922314349898 -1 1 0
3892 1 5.083910893685194 14.03583827004256 7.136028734015694 0 0 1
1819 1 4.7487519444454325 12.431902234806763 10.772036407381435 0 1 2
3555 1 7.029534185546443 13.627896180155775 9.134682257014054 -1 0 0
2083 1 13.762327024062905 11.129804852587048 10.350871526445925 1 -1 0
772 1 14.546404657321862 14.856359026742957 5.957041633509768 0 1 1
478 1 18.175376963277888 15.926255387920573 8.721141951799797 0 0 1
36 1 20.236051796596808 11.436552770544338 7.815989523678874 0 -1 -1
2425 1 22.422164946115892 11.217026289056104 10.055068046060542 -1 0 0
792 1 24.557710893129418 13.489748036813332 7.566106615507309 -1 0 0
2014 1 32.16547723317237 11.60990707195916 4.936150424813487 -1 -1 0
2323 1 35.80721823845634 13.354454193405802 7.770592262288897 -1 0 1
3083 1 38.53325623363111 14.65516301541926 7.320961451955001 -2 1 -1
2969 1 40.31780121019169 12.607970142910057 7.525565324420616 0 0 0
3131 1 46.62290516366642 14.09997867189654 7.20507347526395 1 -1 0
833 1 0.16918256139164387 12.927837539600752 8.363428110599356 0 0 1
2475 1 6.082787076555225 16.47240099335304 6.6944467056612815 1 2 0
3010 1 2.845013390803161 16.71311480901033 9.1942168928657 0 1 0
1989 1 7.524444757525598 16.778748541325687 8.80783073410696 -1 0 2
3090 1 9.575331924189134 13.999641185191832 7.398282186342787 -1 0 0
2054 1 11.120490487303208 13.729392511841061 9.751396738561874 -1 0 1
2137 1 18.908539136385254 18.59896090513753 9.302807167955422 0 0 0
995 1 19.551044619919185 13.911697666831152 7.006675759705868 0 0 0
1504 1 22.994885377461284 14.351060937947883 10.061455422050663 -1 0 2
3814 1 30.158558707517713 16.48592948505708 8.40789861947759 0 1 2
3815 1 26.868012260736823 16.165439551646813 8.483148376085186 -1 1 0
313 1 30.291068946616186 15.003248211141251 5.704390118586754 -1 -1 1
3683 1 32.963380308512356 17.41500290394005 8.773402085271695 1 -1 1
3491 1 35.66876374763727 16.158581160265932 9.617593733101396 -1 0 0
3863 1 36.11398262331369 17.896855424722144 14.076154488681508 -1 0 1
1005 1 42.49166146562621 17.185193704540033 8.095177562102377 -1 1 0
3386 1 47.71163710899134 15.47521220801019 4.989965779511433 0 1 1
2200 1 43.620156783465276 18.284424940874683 4.070530561219439 -1 1 0
2036 1 43.82774776926357 14.641568506866417 7.130461397212958 1 -1 0
1458 1 47.29986507518716 17.168838921635125 8.303263894078901 -1 0 0
1366 1 48.25660555053942 14.726866598977676 9.491168109601986 0 -1 0
735 1 4.465250944502756 22.875846087562397 6.102769880685169 2 0 1
1852 1 0.6815689519140131 21.15064017279161 9.927072362133014 1 2 0
1373 1 3.360941229615126 20.78461617553635 7.393186372707065 1 0 1
2369 1 6.754424422709247 21.314596177042173 7.25188571286205 1 0 0
1461 1 7.492815434127529 19.717913182520714 9.293599461521955 1 -1 1
2501 1 10.309316286789805 19.556251046842196 8.515875781195094 0 2 0
3613 1 13.042238949107437 16.276564292498886 8.02300167573831 -1 0 0
1457 1 14.999118352996492 21.23882691267922 10.779201978804235 1 0 0
3247 1 16.631766586627986 22.919149488833114 9.366353926332538 -1 0 2
417 1 23.615272307134347 21.48220174704443 8.456443053867034 0 0 1
3169 1 21.28260520795941 22.173546295748316 9.68030734610983 1 0 1
3076 1 29.092931793981403 19.34637202231426 6.945473171212783 -1 1 0
3680 1 23.688137759593342 18.513405724781304 8.598631167783303 0 1 0
338 1 31.21449286716489 19.835789879776858 8.60244583048644 0 0 1
3497 1 33.27298531412316 21.80558994441998 8.032326901193358 1 1 0
2438 1 38.265676541491615 17.36357875940922 9.602212052398748 0 1 -1
2735 1 35.35761263721345 21.27420699132197 10.226633937082799 -1 -1 0
1510 1 45.039546807773135 18.061396646213723 6.918065632497898 -2 0 1
2763 1 45.12750029697611 20.703533417313825 7.565799777784653 -1 0 1
3356 1 47.00168746632795 22.206866864588015 8.853800033491897 -1 0 1
1614 1 29.030483884739947 24.812697921412585 12.5002812800701 0 0 0
2273 1 27.9180429126943 7.24947542613776 1.511407081867713 0 1 1
1972 1 7.000250261499469 23.870902229360766 8.672501193841406 0 -1 3
3775 1 17.74041783680315 24.817102546664827 13.384849840333775 1 0 1
812 1 14.335506762979396 24.18439117931669 8.892325069467553 0 0 0
1768 1 19.315607261005315 24.342801524573034 11.241736154792006 0 -1 1
521 1 19.247348039911767 22.168776115923304 7.513085457633192 0 0 -1
158 1 45.49805469207497 0.8185383604912218 15.829403350328741 -1 -1 0
1286 1 28.036391684819474 22.56342715066299 7.165846029988936 0 0 0
3426 1 26.252422987980204 22.43799464903505 9.397124066422881 0 0 1
3452 1 30.32175155233114 23.909519470824748 7.842315350307716 0 1 1
1923 1 31.183295185291286 22.513125320243617 9.84648955644994 0 0 0
1894 1 47.805791076832705 17.466192010832064 15.583575086740353 -1 1 0
1779 1 35.12472885939934 24.18343324650594 8.877263295613112 0 1 1
2607 1 40.41423283288715 20.456969318340157 6.070592899037033 0 2 1
1657 1 40.38051933237661 21.293877805773644 8.885267388698605 0 0 1
2207 1 10.003211587241944 15.925858552278614 15.70608672171428 -1 0 1
3612 1 36.64408015245637 13.446179461974515 13.077130833144675 0 1 0
997 1 49.211823353806025 21.948762656375578 6.87293357050634 -1 1 0
2468 1 1.5465253928317984 2.3181745003825784 8.805214318408668 0 0 -1
61 1 23.258489152429554 5.990589591200283 1.025300172035081 -1 0 1
1384 1 12.29477436688781 0.8709935458485947 7.96218582155301 0 1 1
1567 1 16.054224222927832 3.2419499229587667 12.422588297624843 1 0 0
3982 1 21.302332075448405 1.5985237263128809 9.852324962355006 1 2 1
3763 1 10.078866688540417 15.961455684221999 0.03355671314055815 0 1 1
1865 1 11.266567849588172 12.822390141497884 0.8570044802967905 0 0 1
568 1 31.88870408723965 1.6138259506093107 11.406577245262929 -1 0 0
436 1 37.6340112151029 23.41492320220259 4.783583568965082 -1 0 0
3290 1 35.68009007243279 3.4148701346150596 13.030687036825878 0 0 0
1441 1 39.829996313658626 2.4911646569378183 10.066678844424734 -1 -1 1
2104 1 37.9109357564905 1.9394357017894381 12.422702798053757 0 -1 1
1157 1 39.880008287901276 4.056177647623536 13.120337715063275 1 -1 1
3344 1 36.71697647273878 18.901106563519164 1.9903792533741669 -1 0 0
2527 1 42.0984304014098 3.1240865051549336 14.158327268061754 0 1 0
1249 1 47.90202105203288 4.154203363612508 14.850718948048891 1 2 0
3816 1 24.337078436530653 24.5905902213273 8.582399227964622 -1 0 0
3097 1 1.6182829313741176 4.689672686940574 12.783338783138262 1 -1 0
4142 1 8.366275495894223 4.571397744993745 9.11201425210872 1 1 1
3446 1 5.935247257446148 3.91068133906275 10.917250527360876 0 1 0
776 1 7.88450557709207 0.9815598867541672 13.863613623418422 0 0 1