
# Create simulation box of size 50 x 50 x 50 Angstrom
#
lattice	            sc 1
Lattice spacing in x,y,z = 1.0000000 1.0000000 1.0000000
region 	            all block 0 50 0 50 0 50 units box
create_box          1 all
Created orthogonal box = (0.0000000 0.0000000 0.0000000) to (50.000000 50.000000 50.000000)
  1 by 2 by 3 MPI processor grid

# fill box with 4175 randomly distributed atoms
#
create_atoms        1 random 4175 63782 all
Created 4175 atoms
  create_atoms CPU = 0.001 seconds
mass                1 18.015

# Define potential
#
pair_style          sw
pair_coeff          * * ML_mW.sw mW
Reading sw potential file ML_mW.sw with DATE: 2019-02-27

# Run minimization
#
minimize            1.0e-8 1.0e-8 10000 1000
WARNING: Using 'neigh_modify every 1 delay 0 check yes' setting during minimization (../min.cpp:187)
Neighbor list info ...
  update every 1 steps, delay 0 steps, check yes
  max neighbors/atom: 2000, page size: 100000
  master list distance cutoff = 6.0032907
  ghost atom cutoff = 6.0032907
  binsize = 3.0016454, bins = 17 17 17
  1 neighbor lists, perpetual/occasional/extra = 1 0 0
  (1) pair sw, perpetual
      attributes: full, newton on
      pair build: full/bin/atomonly
      stencil: full/bin/3d
      bin: standard
Per MPI rank memory allocation (min/avg/max) = 4.255 | 4.258 | 4.261 Mbytes
Step Temp E_pair E_mol TotEng Press 
       0            0    7792709.3            0    7792709.3    5898794.3 
     630            0   -45180.336            0   -45180.336   -154.07449 
Loop time of 1.15588 on 6 procs for 630 steps with 4175 atoms

99.5% CPU use with 6 MPI tasks x no OpenMP threads

Minimization stats:
  Stopping criterion = max force evaluations
  Energy initial, next-to-last, final = 
      7792709.32924461  -45180.0188663597   -45180.336116598
  Force two-norm initial, final = 2.0191930e+08 4.9721331
  Force max component initial, final = 1.0948746e+08 0.73126211
  Final line search alpha, max atom move = 0.053306038 0.038980685
  Iterations, force evaluations = 630 1000

MPI task timing breakdown:
Section |  min time  |  avg time  |  max time  |%varavg| %total
---------------------------------------------------------------
Pair    | 0.97172    | 1.0119     | 1.0472     |   2.6 | 87.54
Neigh   | 0.024164   | 0.024908   | 0.026014   |   0.4 |  2.15
Comm    | 0.062161   | 0.098452   | 0.13756    |   8.5 |  8.52
Output  | 0          | 0          | 0          |   0.0 |  0.00
Modify  | 0          | 0          | 0          |   0.0 |  0.00
Other   |            | 0.02063    |            |       |  1.78

Nlocal:        695.833 ave         704 max         685 min
Histogram: 1 1 0 0 1 0 0 1 0 2
Nghost:        1494.17 ave        1515 max        1468 min
Histogram: 1 1 0 0 0 0 1 1 1 1
Neighs:        0.00000 ave           0 max           0 min
Histogram: 6 0 0 0 0 0 0 0 0 0
FullNghs:      19997.0 ave       20462 max       19320 min
Histogram: 1 1 0 0 0 0 0 2 0 2

Total # of neighbors = 119982
Ave neighs/atom = 28.738204
Neighbor list builds = 26
Dangerous builds = 0

# Add velocity/set timestep
#
velocity            all create ${TEMP} 120598 rot yes dist gaussian
velocity            all create 230 120598 rot yes dist gaussian
timestep            5.0

# Define output
#
compute	            1 all msd
thermo	            100
thermo_style        custom step temp press vol etotal ke pe c_1[4] density

# Neighbor lists
#
neigh_modify        delay 0 every 1 check yes

# Set fixes
#
fix                 1 all momentum 10 linear 1 1 1 rescale
fix                 2 all nve
fix                 3 all temp/csvr ${TEMP} ${TEMP} 500.0 928347
fix                 3 all temp/csvr 230 ${TEMP} 500.0 928347
fix                 3 all temp/csvr 230 230 500.0 928347
fix                 4 all press/berendsen iso ${PRES} ${PRES} 1000.0 modulus 20000
fix                 4 all press/berendsen iso 500 ${PRES} 1000.0 modulus 20000
fix                 4 all press/berendsen iso 500 500 1000.0 modulus 20000

# Run 0.5 ns equilibration
#
dump                1 all custom 1000 eq.${NAME}.dump id type x y z vx vy vz
dump                1 all custom 1000 eq.liquid_density_MLmW.dump id type x y z vx vy vz
run                 100000
Per MPI rank memory allocation (min/avg/max) = 3.506 | 3.508 | 3.511 Mbytes
Step Temp Press Volume TotEng KinEng PotEng c_1[4] Density 
     630          230    892.42114       125000   -42318.699    2861.6373   -45180.336 2.7295415e-33   0.99914793 
     700    146.25148    338.69675    125052.66   -41440.064    1819.6464    -43259.71   0.27510993   0.99872717 
     800    180.37048    232.65008    124644.98   -40644.482    2244.1517   -42888.633   0.66266178    1.0019937 
     900    199.60222    270.39222    124040.49    -40196.72    2483.4311   -42680.151    1.1211291    1.0068768 
    1000    213.83675    646.43665    124142.49   -39906.999    2660.5357   -42567.535    1.5374017    1.0060495 
    1100    216.34727    518.62346    124237.92   -39705.603    2691.7714   -42397.374    2.0536322    1.0052767 
    1200    222.59903    591.99919    124174.84   -39725.175    2769.5552    -42494.73     2.519709    1.0057874 
    1300    219.83297    536.39191    124205.82   -39683.238    2735.1401   -42418.378    2.9668217    1.0055365 
    1400    223.77297    464.95574       124139   -39698.644    2784.1611   -42482.805    3.4637267    1.0060778 
    1500    228.36276    612.45272    124290.26   -39643.338    2841.2669   -42484.605    3.9487053    1.0048534 
    1600    232.79892    458.12705    124518.17   -39543.188    2896.4611   -42439.649    4.3153722    1.0030142 
    1700    227.29636    251.68277    124297.48   -39566.135    2827.9989   -42394.134    4.6681355    1.0047951 
    1800    227.69682    510.14691    124145.67   -39637.759    2832.9813   -42470.741    5.0998213    1.0060238 
    1900    229.54009    729.69955    124371.25   -39627.674    2855.9151   -42483.589    5.4839781     1.004199 
    2000     234.7681     461.8636    124473.24   -39600.405    2920.9615   -42521.367     5.937577    1.0033762 
    2100    234.57241    422.22443    124453.48   -39574.416    2918.5267   -42492.943    6.3956478    1.0035356 
    2200     233.0575    358.96315    124318.71   -39601.713    2899.6783   -42501.391    6.7191316    1.0046234 
    2300    232.69217    727.34817    124403.86   -39580.468     2895.133   -42475.601    7.1393623    1.0039358 
    2400    232.18088    415.12563    124618.23   -39591.163    2888.7715   -42479.934    7.4503166    1.0022088 
    2500    231.45957    436.91905    124956.25   -39546.616     2879.797   -42426.413    7.9267604   0.99949777 
    2600    233.54172    558.64377    124979.57    -39487.74     2905.703   -42393.443    8.3108786   0.99931127 
    2700     235.1199     465.9554     124890.7   -39519.203    2925.3386   -42444.541    8.6756162    1.0000223 
    2800    233.70334    648.21631    125269.34   -39501.521    2907.7139   -42409.235    9.0688001   0.99699965 
    2900    231.17542    467.83588     124972.8   -39565.357    2876.2617   -42441.618     9.460117   0.99936539 
    3000    226.80107     451.6702    125011.78   -39602.076    2821.8365   -42423.912     9.783303   0.99905376 
    3100    231.39102    611.24125    125042.63   -39586.018    2878.9441   -42464.962    10.127623   0.99880728 
    3200    230.38443    540.41994    125032.56   -39623.403    2866.4203   -42489.824    10.417274   0.99888775 
    3300    233.71009    618.28368    125279.52   -39616.941    2907.7978   -42524.739    10.767126   0.99691867 
    3400    228.68568    520.02572    125205.23    -39662.17    2845.2846   -42507.455    11.345793   0.99751014 
    3500    228.21677    564.54841    125161.96   -39684.668    2839.4504   -42524.119    11.714521   0.99785506 
    3600    225.95754    396.83175    125168.89   -39724.165    2811.3414   -42535.506    12.132799   0.99779974 
    3700    228.73515    756.92832    125320.68   -39797.049    2845.9002   -42642.949    12.444313   0.99659121 
    3800     226.7918    469.73523     125409.9   -39734.308    2821.7211   -42556.029    13.035469   0.99588225 
    3900    225.76344    506.05474    125342.24   -39777.824    2808.9263   -42586.751    13.404749   0.99641979 
    4000    227.72184    815.40279    125328.45   -39756.712    2833.2926   -42590.005    13.885189   0.99652948 
    4100    227.18948     525.9274    125265.45   -39733.993    2826.6691   -42560.662    14.275789   0.99703063 
    4200    228.57367    584.04053    125477.84   -39738.767     2843.891   -42582.658    14.720535   0.99534298 
    4300    231.70154    354.64188    125405.65   -39732.137    2882.8076   -42614.945    15.170537   0.99591601 
    4400    228.94094     533.7213    125219.16   -39723.587    2848.4606   -42572.048     15.48695   0.99739918 
    4500    227.26237    499.99123    125151.93   -39701.432    2827.5759   -42529.008    15.965556   0.99793498 
    4600    225.93607    561.41237    125034.29   -39745.793    2811.0742   -42556.867    16.246268    0.9988739 
    4700    231.26579    743.50585    125066.18   -39663.824    2877.3861    -42541.21    16.494319   0.99861918 
    4800    227.50731    464.88862    124951.95   -39715.677    2830.6235   -42546.301    16.726365   0.99953216 
    4900    232.52254    463.62654    125176.07   -39596.613    2893.0225   -42489.635    17.293916   0.99774257 
    5000    237.53137    498.70517    125164.61   -39547.738    2955.3418    -42503.08    17.663742    0.9978339 
    5100    233.01769    301.07557    125343.53   -39622.657     2899.183    -42521.84    18.119336   0.99640956 
    5200    228.56602     506.0599    125242.09   -39671.955    2843.7958   -42515.751    18.483778   0.99721664 
    5300    227.03056    459.11698    125049.58   -39649.868    2824.6918    -42474.56    18.852524   0.99875179 
    5400    225.39629    598.95288    124947.94   -39683.907    2804.3584   -42488.266    19.221032   0.99956426 
    5500     229.3733    586.36518    125019.47   -39688.531      2853.84   -42542.371    19.501806   0.99899229 
    5600    229.28999    457.56961     125068.8   -39688.533    2852.8034   -42541.336     19.72885   0.99859832 
    5700    230.06517    545.17984    125183.95    -39696.18    2862.4481   -42558.628    20.230147   0.99767977 
    5800    227.92874    433.83042    124981.47   -39719.343    2835.8668    -42555.21    20.667028   0.99929605 
    5900      230.601    354.73057    124737.39   -39757.505    2869.1148   -42626.619    21.204077    1.0012515 
    6000    224.69612    738.77811     124614.7   -39739.399    2795.6469   -42535.046    21.578196    1.0022372 
    6100    229.84967    477.76557    124560.68   -39669.462    2859.7669   -42529.229    21.988979    1.0026719 
    6200    229.56954    459.28359    124625.06     -39729.5    2856.2816   -42585.782    22.315547    1.0021539 
    6300    229.83591    657.65804    124512.99    -39693.58    2859.5956   -42553.176    22.693261     1.003056 
    6400    229.64938    679.03473    124723.53   -39654.871    2857.2749   -42512.146     23.08281    1.0013627 
    6500    229.02816    670.14367    124805.92   -39588.902    2849.5457   -42438.448    23.308149    1.0007017 
    6600    233.31794    357.35252    124892.73   -39688.555    2902.9188   -42591.474    23.745816    1.0000061 
    6700    224.77647    644.17669    124891.24   -39759.481    2796.6466   -42556.128    24.083862    1.0000181 
    6800    228.36877    707.72149    125146.91   -39685.542    2841.3416   -42526.884    24.509333   0.99797501 
    6900    233.10798    354.73561    124947.32   -39630.662    2900.3065   -42530.968     24.78881   0.99956923 
    7000    232.96542    488.48439    125085.98   -39615.876    2898.5327   -42514.409    24.892702   0.99846117 
    7100    233.66143    464.75091    125163.74   -39642.472    2907.1924   -42549.664     25.16312   0.99784082 
    7200    227.16908    569.50325    125017.71   -39695.085    2826.4152   -42521.501    25.620691   0.99900638 
    7300    224.07902    502.32973    124907.85   -39749.527     2787.969   -42537.496    26.107187   0.99988505 
    7400    226.55323    606.28347    124943.32    -39777.86    2818.7528   -42596.613    26.343593   0.99960115 
    7500    230.66586    661.69954     125045.1   -39740.398    2869.9218    -42610.32    26.636855   0.99878757 
    7600    222.89756    495.15309    124938.32   -39817.241    2773.2694   -42590.511     27.18003   0.99964121 
    7700    233.96146    475.23274    124896.44   -39703.023    2910.9254   -42613.948    27.480261   0.99997642 
    7800    232.79529    512.23886    124834.59   -39677.764     2896.416    -42574.18     27.61792    1.0004719 
    7900    226.79741    654.59907    124603.57   -39736.001     2821.791   -42557.792    28.021589    1.0023267 
    8000    228.97224    458.92845    124922.09   -39710.025      2848.85   -42558.875    28.465801   0.99977107 
    8100    226.00685    597.58113    124831.64   -39778.432    2811.9549   -42590.387    28.809081    1.0004955 
    8200    225.48151    565.81778    124946.64   -39783.433    2805.4186   -42588.852    29.334367   0.99957461 
    8300    227.82637    536.07259    124622.15   -39794.819    2834.5932   -42629.412    29.598597    1.0021773 
    8400    228.69021    516.38362    124471.27     -39730.2     2845.341   -42575.541    29.792006    1.0033921 
    8500    232.35371    382.87785    124548.05   -39665.972    2890.9219   -42556.893    30.105561    1.0027736 
    8600    228.07122     378.7483    124560.89   -39682.353    2837.6396   -42519.992    30.175126    1.0026702 
    8700     231.4344    446.53572    124594.78   -39657.151    2879.4839   -42536.635    30.512385    1.0023975 
    8800    232.13059     507.8383    124466.66   -39716.375    2888.1459   -42604.521    30.768664    1.0034292 
    8900    230.94224    532.40444    124457.15   -39797.308    2873.3605   -42670.668     31.20067    1.0035059 
    9000    228.24626     517.4435    124369.84    -39734.52    2839.8175   -42574.337    31.562454    1.0042105 
    9100     222.1683    556.53116    124623.29   -39785.689    2764.1961   -42549.885    31.863366    1.0021681 
    9200    228.80121    623.74333     124924.4   -39695.947     2846.722   -42542.669    32.154314   0.99975254 
    9300    226.59819    348.67467    124795.81   -39756.237    2819.3123   -42575.549    32.564316    1.0007827 
    9400    227.66747    447.56678    124824.46   -39712.889    2832.6161   -42545.505     33.07497     1.000553 
    9500    227.38186    638.46531    124657.67    -39722.62    2829.0627   -42551.683    33.383382    1.0018918 
    9600    227.77515    655.01847    124849.02   -39670.569    2833.9559   -42504.525     33.96061    1.0003562 
    9700    229.18295    509.07494    124692.68   -39599.972    2851.4716   -42451.444    34.242002    1.0016105 
    9800     228.4478    386.96569    124665.89   -39673.708     2842.325   -42516.033    34.642191    1.0018257 
    9900    226.14041    483.86786    124844.61   -39747.404    2813.6167    -42561.02    35.123375    1.0003915 
   10000    228.34956     308.9632    124920.52    -39756.73    2841.1026   -42597.833    35.521548   0.99978362 
   10100    227.78137    627.89043    124944.74    -39734.56    2834.0333   -42568.594    35.848558   0.99958984 
   10200    227.15891    528.32478    125037.89   -39784.693    2826.2887   -42610.982    35.962213   0.99884518 
   10300    226.08118    571.92032    125258.81   -39776.778    2812.8797   -42589.657     36.45774   0.99708352 
   10400    230.81002    493.62413    125317.42   -39697.338    2871.7155   -42569.053    36.907924   0.99661714 
   10500    226.81079    516.51196    125234.58   -39671.717    2821.9574   -42493.675    37.366087    0.9972764 
   10600    229.70936    430.10025    125094.71    -39595.63    2858.0211   -42453.651    37.564049    0.9983915 
   10700    232.41011    826.64239    125286.73    -39592.61    2891.6236   -42484.234    37.878967    0.9968613 
   10800    231.51954    368.72936     125285.7   -39571.655    2880.5433   -42452.198    38.223704   0.99686951 
   10900    230.49518    535.83118    125231.97   -39598.892    2867.7982    -42466.69    38.705357   0.99729717 
   11000    229.33504    549.82448    125039.36   -39576.404    2853.3639   -42429.767    38.996409   0.99883341 
   11100     230.1317    738.77929    125410.65   -39618.239    2863.2758   -42481.515    39.396645   0.99587631 
   11200    232.98748    340.32825    124862.76   -39614.058    2898.8071   -42512.865    39.939149    1.0002461 
   11300    231.43408    486.20575    124787.53   -39619.965    2879.4799   -42499.445    40.210263    1.0008491 
   11400    228.70753     566.2234    125005.82   -39638.577    2845.5565   -42484.133    40.683696   0.99910143 
   11500    232.33408    564.27626    124869.03   -39675.465    2890.6777   -42566.143    40.941311    1.0001959 
   11600    226.26825    610.17941     125012.7   -39685.319    2815.2072   -42500.527    41.295669   0.99904642 
   11700    230.07668    582.41193    124911.66   -39574.212    2862.5913   -42436.803    41.684144   0.99985457 
   11800    227.32922    512.03722     124982.7   -39633.534    2828.4077   -42461.942      41.9683    0.9992862 
   11900     226.1701    458.34137    124934.26   -39643.629     2813.986   -42457.615    42.224543   0.99967368 
   12000     230.2033      753.841    124880.35   -39632.891    2864.1667   -42497.058    42.558697    1.0001052 
   12100    224.99271    506.72152    124752.68   -39590.998    2799.3371   -42390.335    43.026487    1.0011287 
   12200    227.27593    620.21623    124740.36   -39602.418    2827.7447   -42430.163    43.414243    1.0012276 
   12300     229.9693    578.01278     124868.6   -39607.499    2861.2554   -42468.754    43.852125    1.0001993 
   12400    225.95749    397.62701    124633.86   -39589.634    2811.3408   -42400.975    44.397301    1.0020831 
   12500    225.45292    238.80442    124513.05    -39671.07    2805.0629   -42476.132    45.020185    1.0030554 
   12600    233.17878    581.09524    124180.58   -39576.787    2901.1873   -42477.975    45.386444    1.0057409 
   12700    233.90509    392.09737     124397.9   -39551.345     2910.224   -42461.569    45.729747    1.0039839 
   12800    232.95523    442.36506    124597.77    -39530.23    2898.4059   -42428.636    45.976689    1.0023734 
   12900     232.6784    349.96515    124570.77   -39591.884    2894.9616   -42486.846    46.474452    1.0025906 
   13000    234.96993     449.1562    124439.18   -39522.978    2923.4726   -42446.451    47.107105    1.0036508 
   13100    231.23674    700.98119    124485.61    -39512.24    2877.0246   -42389.265    47.367959    1.0032765 
   13200    232.81527    577.27671    124161.23   -39423.963    2896.6646   -42320.628    47.605006    1.0058976 
   13300    231.21763    367.89784     124431.7   -39455.413    2876.7869     -42332.2     48.17132    1.0037112 
   13400    225.91716    736.28942    124420.41   -39533.385    2810.8389   -42344.223    48.729863    1.0038023 
   13500    234.58646    491.06641    124143.79    -39577.14    2918.7016   -42495.842     49.45538    1.0060389 
   13600    229.34876    626.00661    124215.54   -39617.175    2853.5346    -42470.71     49.87728    1.0054578 
   13700    226.94983    338.17449    124288.49   -39647.849    2823.6873   -42471.536    50.398173    1.0048677 
   13800    232.01764     688.3414    124419.26   -39544.436    2886.7405   -42431.176    50.965531    1.0038116 
   13900     229.2896    364.80241    124536.93   -39612.168    2852.7986   -42464.966    51.384693    1.0028631 
   14000    233.38078     470.6179    124575.18   -39596.885    2903.7006   -42500.585    51.808425    1.0025551 
   14100     229.4239    546.14707    124736.75   -39606.869    2854.4695   -42461.338    52.077957    1.0012566 
   14200     229.0984    328.13505    124777.64   -39653.716    2850.4197   -42504.136    52.372175    1.0009285 
   14300    226.50417    310.80197    124541.47   -39716.624    2818.1426   -42534.767    52.660976    1.0028265 
   14400    231.30736    311.53398    124298.38   -39697.526    2877.9033   -42575.429    53.226015    1.0047878 
   14500    233.95293    623.77911    124297.86   -39648.939    2910.8193   -42559.758    53.666916     1.004792 
   14600    229.60008    473.14995    124285.68   -39645.974    2856.6615   -42502.636    54.117338    1.0048905 
   14700     228.8233    740.62405    124132.87   -39682.991    2846.9969   -42529.988    54.396081    1.0061275 
   14800    225.20106     292.9265    124045.88   -39706.494    2801.9293   -42508.424    54.729163    1.0068331 
   14900    223.84538    528.20302    124253.26   -39774.252    2785.0621   -42559.315    55.197732    1.0051526 
   15000    221.91157    261.57882    124144.15   -39757.713    2761.0019   -42518.715    55.613131    1.0060361 
   15100    220.02182    620.42916    124164.23   -39787.429    2737.4897   -42524.918    56.042458    1.0058733 
   15200    226.96085    677.93028    124137.11   -39728.741    2823.8244   -42552.565    56.326886    1.0060931 
   15300    224.52124    550.99499    124006.85   -39734.526    2793.4711   -42527.998    56.762051    1.0071499 
   15400    226.71875    398.36648    124161.67   -39728.093    2820.8123   -42548.905    57.130726    1.0058941 
   15500    224.86873    489.92244    124161.24    -39700.43    2797.7945   -42498.224    57.738819    1.0058976 
   15600    232.87264    639.82246    124309.05   -39619.582    2897.3783   -42516.961    58.100514    1.0047015 
   15700    228.23279    545.76192    124375.56   -39690.354    2839.6498   -42530.004    58.508703    1.0041643 
   15800    229.98301    400.29961    124594.13   -39686.984    2861.4259    -42548.41    58.784488    1.0024027 
   15900    227.55923    563.37853    124558.04   -39743.726    2831.2695   -42574.996    59.015642    1.0026931 
   16000     230.7484    460.09868    124594.97   -39680.786    2870.9487   -42551.734    59.300573    1.0023959 
   16100    232.49678    675.15185    124574.83   -39625.881     2892.702   -42518.583     59.71565     1.002558 
   16200    227.46989    504.29755    124497.79   -39682.361    2830.1579   -42512.519    60.253681    1.0031784 
   16300    230.10337    590.11132    124505.01   -39701.246    2862.9233    -42564.17    60.472714    1.0031202 
   16400    230.17983    602.10369    124484.84   -39599.704    2863.8747   -42463.579    61.286203    1.0032827 
   16500    235.36734    678.87489    124657.89   -39599.664    2928.4172   -42528.081    61.809531      1.00189 
   16600    234.40537    541.22269    124565.05   -39581.875    2916.4484   -42498.324    62.237509    1.0026367 
   16700     228.5842    364.74986    124416.39   -39615.038     2844.022    -42459.06    63.019951    1.0038347 
   16800    232.05704    502.83695    124448.89   -39583.135    2887.2307   -42470.366    63.478742    1.0035726 
   16900     231.4255    556.73623     124494.5   -39550.818    2879.3732   -42430.192    63.991803    1.0032049 
   17000    232.18316    601.12612     124704.7   -39567.759    2888.7999   -42456.559    64.484551    1.0015139 
   17100    233.53333    476.44261    124990.67   -39494.159    2905.5986   -42399.757    64.992431    0.9992225 
   17200    231.95751    496.11583    125172.46   -39499.316    2885.9924   -42385.309    65.633405   0.99777134 
   17300    232.73203    478.51238    125229.96   -39557.292     2895.629   -42452.921    65.895132   0.99731321 
   17400    228.39608    529.67745    124999.22   -39590.657    2841.6815   -42432.338    66.372413   0.99915418 
   17500    230.94099    559.11947    125004.06   -39577.942    2873.3449   -42451.287    66.788986   0.99911546 
   17600    234.60482    472.50218    125024.76   -39560.829      2918.93   -42479.759    67.344724   0.99895002 
   17700    231.29174    642.27053    124997.28   -39605.025     2877.709   -42482.734      67.8495   0.99916971 
   17800    225.51556    442.98938    125151.05   -39618.527    2805.8423    -42424.37    68.208178   0.99794202 
   17900     235.3803    380.00531    125150.97   -39580.594    2928.5784   -42509.173    68.214404   0.99794262 
   18000    238.81444    347.50089     125039.6   -39534.406    2971.3057   -42505.711    68.698859    0.9988315 
   18100    231.59551    511.73564    124938.13   -39635.277    2881.4885   -42516.765    69.080855   0.99964269 
   18200    230.28244    595.50559    124978.71   -39649.605    2865.1513   -42514.756    69.941231   0.99931816 
   18300    233.80878    515.76171    124937.27    -39559.27    2909.0257   -42468.296    70.645311   0.99964963 
   18400    231.03757    391.24113    124870.71   -39625.885    2874.5466   -42500.431    70.942448    1.0001825 
   18500     233.6325    515.24989     124546.3   -39578.606    2906.8324   -42485.438    71.293443    1.0027877 
   18600    231.30179    455.14574    124684.01    -39633.07     2877.834   -42510.904    71.727325    1.0016801 
   18700     227.1836    613.79465    124797.26   -39595.729    2826.5959   -42422.325    72.304576    1.0007711 
   18800    233.07191    620.93614    124823.83   -39545.975    2899.8577   -42445.832    72.681935     1.000558 
   18900    229.13453    425.05857    124755.72   -39574.515    2850.8692   -42425.384    72.865006    1.0011043 
   19000    232.79351      506.523    124448.91   -39562.515    2896.3938   -42458.909    72.977227    1.0035724 
   19100    228.08816    415.42986    124430.16   -39635.534    2837.8504   -42473.384    73.359946    1.0037236 
   19200    228.00091    586.93568    124663.41   -39623.687    2836.7648   -42460.452    74.140191    1.0018456 
   19300    233.08462    491.57508    124767.09   -39571.015    2900.0158   -42471.031     74.70947    1.0010131 
   19400    234.45021    592.58974    124852.09   -39591.887    2917.0063   -42508.893    75.203418    1.0003316 
   19500    230.31935    405.23614    125060.96    -39583.45    2865.6106   -42449.061    75.596056   0.99866092 
   19600     229.0411    496.06157    124708.62   -39613.887    2849.7067   -42463.594    75.999826    1.0014824 
   19700    237.68187    471.01443    124799.12   -39590.071    2957.2143   -42547.285    76.245818    1.0007562 
   19800    227.58101    544.55206    124533.42   -39619.753    2831.5405   -42451.293    76.673524    1.0028913 
   19900    231.64088     418.0013    124239.52   -39607.299    2882.0529   -42489.352    76.954604    1.0052638 
   20000    224.97189    660.40943    124271.71   -39640.582     2799.078    -42439.66    77.641401    1.0050034 
   20100    230.41277     694.6061     124305.2   -39587.538    2866.7729   -42454.311    78.265751    1.0047327 
   20200    228.91025    487.47838    124261.31   -39630.114    2848.0788   -42478.193    78.582481    1.0050875 
   20300    226.63191    436.09502    124361.28   -39663.432    2819.7318   -42483.163    78.754878    1.0042796 
   20400    225.28646     517.7258    124207.02   -39648.229    2802.9918   -42451.221    79.315275    1.0055268 
   20500    226.54367    588.69337    124366.88   -39602.346    2818.6339    -42420.98    79.915786    1.0042344 
   20600    231.26953    666.34611    124672.42    -39628.82    2877.4326   -42506.253      80.3304    1.0017732 
   20700    232.42301    644.09028     124592.2   -39562.692    2891.7842   -42454.477    80.834861    1.0024182 
   20800    228.20837    337.56934    124684.43   -39581.937     2839.346   -42421.283    81.325012    1.0016767 
   20900    229.85332    531.81311    124651.63   -39626.452    2859.8123   -42486.264     81.70871    1.0019403 
   21000    224.30529    548.04425    124622.92   -39720.428    2790.7843   -42511.213    82.087228    1.0021711 
   21100    225.43862      435.952    124809.79   -39741.144    2804.8851   -42546.029    82.736236    1.0006707 
   21200    232.57723    647.66043    124714.76   -39725.034     2893.703   -42618.737    82.902809    1.0014331 
   21300    230.18439    581.34223     124597.9   -39750.518    2863.9314    -42614.45    82.966138    1.0023724 
   21400    227.76654    507.10983     124700.3   -39728.223    2833.8487   -42562.072    83.384188    1.0015492 
   21500    229.29383    819.59345    124708.99   -39733.342    2852.8512   -42586.193    83.479832    1.0014795 
   21600     230.8376    548.22418    124800.39   -39692.948    2872.0586   -42565.007    84.001981     1.000746 
   21700    229.88934    542.02663     124826.3   -39657.651    2860.2604   -42517.912    84.598517    1.0005383 
   21800    230.04637    645.46196    124866.22   -39642.165    2862.2142   -42504.379    84.835701    1.0002184 
   21900    228.96902    231.38326    124946.14   -39661.391    2848.8099     -42510.2    85.189047    0.9995786 
   22000     229.5655    299.39763    124928.69   -39699.635    2856.2312   -42555.866    85.250028   0.99971822 
   22100    232.10004    615.45949    124827.32   -39640.389    2887.7658   -42528.155     85.58473    1.0005301 
   22200    228.61124      590.161    124880.32   -39681.093    2844.3585   -42525.452    85.955248    1.0001055 
   22300    227.23426    581.36558    124819.97   -39650.863    2827.2263    -42478.09    86.381338     1.000589 
   22400    228.43547    471.64062     124919.3   -39598.681    2842.1715   -42440.853    86.802978   0.99979338 
   22500    231.65731    247.46309     124862.7   -39602.618    2882.2573   -42484.876    86.965404    1.0002466 
   22600    231.74119    426.07828    124681.23   -39564.061     2883.301   -42447.362    87.508547    1.0017025 
   22700    230.19026    400.37145    124591.13   -39559.632    2864.0045   -42423.636    88.135451    1.0024268 
   22800    231.88983    449.49623    124556.77    -39530.19    2885.1503   -42415.341    88.341366    1.0027033 
   22900    231.87367    361.90636    124481.12   -39571.346    2884.9493   -42456.295     88.75627    1.0033128 
   23000    235.36321    500.50054    124443.93   -39541.038    2928.3658   -42469.404    89.005356    1.0036125 
   23100    227.69781    394.82455    124558.24   -39656.469    2832.9936   -42489.463    89.351502    1.0026915 
   23200    226.59064    564.60723    124455.69   -39590.994    2819.2184   -42410.213    89.768162    1.0035177 
   23300    228.81735    499.59803    124471.75   -39640.643    2846.9228   -42487.566    90.426429    1.0033883 
   23400    231.30505    475.49018    124517.29   -39567.205    2877.8746   -42445.079    90.783036    1.0030213 
   23500    224.96659    562.08983    124639.35   -39591.943    2799.0121   -42390.955    91.184528    1.0020391 
   23600     231.8715    424.03214    124662.28   -39566.208    2884.9222    -42451.13    91.786123    1.0018547 
   23700     229.0286    616.40034    124778.09   -39624.179    2849.5512    -42473.73    92.321181    1.0009248 
   23800    225.79256    352.31631    124620.06   -39688.895    2809.2888   -42498.183    92.930148    1.0021941 
   23900     228.5729    428.28855    124530.05   -39721.605    2843.8815   -42565.487    93.654028    1.0029185 
   24000    227.65891    360.24629    124317.15   -39642.896    2832.5096   -42475.406    94.004266     1.004636 
   24100    228.61992     350.6023    124476.65   -39633.851    2844.4664   -42478.318    94.639532    1.0033488 
   24200    229.97277    346.49601    124405.24   -39687.004    2861.2985   -42548.303    94.523584    1.0039247 
   24300    231.36722    707.95466    124536.93   -39662.752     2878.648     -42541.4    94.701793    1.0028631 
   24400    228.74349    555.91495    124397.03   -39708.645    2846.0039   -42554.649    95.062498    1.0039909 
   24500    226.76359    523.00068    124612.26   -39658.759    2821.3702   -42480.129    95.569196    1.0022569 
   24600    232.09954    595.52059    124770.01   -39645.592    2887.7595   -42533.352    96.195617    1.0009897 
   24700    227.55015    720.16669     124981.4   -39665.225    2831.1564   -42496.381    96.639616   0.99929665 
   24800    225.02251    669.40122    124807.42   -39653.679    2799.7079   -42453.387    96.410774    1.0006896 
   24900    230.13425    401.87149    124573.61   -39575.937    2863.3076   -42439.244    96.234742    1.0025678 
   25000    233.48451    170.73559    124527.48   -39557.793    2904.9912   -42462.785    96.882688    1.0029392 
   25100     230.7768    302.90038    124325.42   -39572.968    2871.3021   -42444.271    97.655251    1.0045693 
   25200    230.63416    433.49366    124532.24    -39623.63    2869.5274   -42493.157    98.209754    1.0029009 
   25300    227.59259     547.3322    124634.94   -39621.535    2831.6845   -42453.219    98.635221    1.0020745 
   25400    228.88148    553.37913    124518.84   -39621.108    2847.7208   -42468.829    98.797052    1.0030088 
   25500    231.62982    481.72663    124368.61   -39576.331    2881.9154   -42458.247    99.351807    1.0042204 
   25600    226.05359    314.27863    124338.07   -39671.282    2812.5365   -42483.819     99.99764     1.004467 
   25700     224.2512    448.27525    124350.46   -39669.539    2790.1112    -42459.65    100.47244     1.004367 
   25800    228.68572    471.62091    124264.81   -39645.875    2845.2852   -42491.161    100.73242    1.0050592 
   25900    230.27929    516.78852    124310.58   -39597.299    2865.1122   -42462.411    101.52169    1.0046892 
   26000    233.90936    537.10668    124581.87    -39542.09    2910.2771   -42452.367    102.14981    1.0025013 
   26100    229.21865    529.79978       124813     -39631.8    2851.9158   -42483.716    102.62565    1.0006449 
   26200    228.96091    495.92228    124563.95   -39626.553     2848.709   -42475.262    102.42928    1.0026456 
   26300    227.16432    593.06801    124731.09   -39593.878     2826.356   -42420.234    103.44579     1.001302 
   26400    234.26687    488.94013    124614.47    -39576.96    2914.7253   -42491.685    103.70589    1.0022391 
   26500    229.90633    480.55636    124478.47   -39613.643    2860.4718   -42474.115    103.99882    1.0033341 
   26600    228.78793    689.46813    124385.07   -39655.271    2846.5568   -42501.828    104.07897    1.0040875 
   26700    226.39736    531.64291    124338.43   -39670.429    2816.8135   -42487.243    104.51021    1.0044641 
   26800    231.13258    444.39626    124435.64   -39611.847    2875.7287   -42487.576    105.08284    1.0036794 
   26900    227.65813    583.37267    124306.69   -39626.877       2832.5   -42459.377    105.02376    1.0047206 
   27000    225.92061    754.10621    124407.87    -39662.66     2810.882   -42473.542    105.50086    1.0039035 
   27100    228.59946    406.46231    124577.04   -39678.689    2844.2119   -42522.901    106.50919    1.0025402 
   27200    226.34379    456.84799       124463   -39684.781     2816.147   -42500.928    106.72138    1.0034588 
   27300    225.87018    420.02052    124508.01   -39701.688    2810.2545   -42511.942    106.74939     1.003096 
   27400      227.247    501.21989    124399.91   -39625.484    2827.3847   -42452.868    107.02556    1.0039677 
   27500    229.43635    503.47092    124201.67   -39558.746    2854.6243    -42413.37    107.39817    1.0055701 
   27600    232.19918    414.15566    124177.24   -39592.585    2888.9992   -42481.584    107.61737     1.005768 
   27700    228.76243    356.28412    124264.34   -39602.363    2846.2395   -42448.602    108.04733     1.005063 
   27800    235.13089    438.82154    124180.46   -39516.761    2925.4753   -42442.237    108.92165    1.0057419 
   27900    232.94429    709.61579    124333.31   -39535.589    2898.2699   -42433.859    109.26651    1.0045055 
   28000    232.25483    497.54158    124386.81   -39571.685    2889.6916   -42461.377    109.54183    1.0040735 
   28100    230.53525    517.46001    124189.03   -39559.382    2868.2967   -42427.678    109.61545    1.0056725 
   28200    228.81759    492.63074    124193.82    -39587.32    2846.9259   -42434.246    109.72503    1.0056337 
   28300     226.6135    366.73968    124295.13   -39582.885    2819.5027   -42402.388    109.98683    1.0048141 
   28400    226.62545    474.76091    124349.28   -39626.648    2819.6514   -42446.299    110.79711    1.0043765 
   28500    226.53059    178.60718    124066.12   -39647.889    2818.4712    -42466.36    111.13106    1.0066688 
   28600     227.7415     380.6557     123862.5   -39596.257    2833.5373   -42429.795    111.35793    1.0083237 
   28700    229.02813    593.60493    123710.67   -39595.088    2849.5454   -42444.633    111.48102    1.0095612 
   28800    226.90028    520.12707    123720.86     -39541.5    2823.0709   -42364.571    111.87582    1.0094781 
   28900    235.58997     420.3691    123637.09   -39485.217    2931.1871   -42416.404    112.31289     1.010162 
   29000    226.01646    747.67292    123605.17   -39565.428    2812.0745   -42377.503      112.631    1.0104229 
   29100    230.45016    487.33712     123565.7   -39512.658    2867.2382   -42379.896     113.0582    1.0107456 
   29200    236.22433    336.55545    123849.38   -39465.251    2939.0797    -42404.33    113.59711    1.0084305 
   29300     234.1841    481.15628    123802.13   -39539.925    2913.6954    -42453.62    113.75527    1.0088153 
   29400    228.29564    724.41389    123695.93   -39605.599    2840.4318   -42446.031    114.14382    1.0096815 
   29500     225.9223    559.48008     123884.1   -39639.665    2810.9029   -42450.568    114.81868    1.0081479 
   29600    231.83176    849.99844    124076.31   -39561.693    2884.4278    -42446.12    114.78737    1.0065861 
   29700    227.21744    454.88398     123954.2   -39615.667    2827.0169   -42442.684     114.8923    1.0075777 
   29800    227.53662    584.47025    123919.21   -39579.725    2830.9882   -42410.713    115.23885    1.0078623 
   29900    228.45475    564.43407    123948.21   -39611.901    2842.4114   -42454.312    115.54869    1.0076264 
   30000    226.86805    513.53454    123922.46   -39577.372    2822.6699   -42400.042    115.74801    1.0078358 
   30100    231.57639     421.4379     123956.2   -39571.361    2881.2506   -42452.612    116.47147    1.0075614 
   30200    227.23645      727.768    124044.29   -39602.115    2827.2535   -42429.368    116.99098    1.0068459 
   30300    234.69249    309.74129    123970.04   -39581.595    2920.0208   -42501.616    117.12796     1.007449 
   30400    233.68147    401.59282    124055.57   -39587.063    2907.4418   -42494.505    117.76991    1.0067544 
   30500    233.02916       417.87    124011.92   -39583.311    2899.3258   -42482.637    118.27131    1.0071087 
   30600    231.65239    349.25721     123855.8   -39566.913    2882.1961    -42449.11    118.91195    1.0083782 
   30700    232.50848    595.23764    123956.31   -39583.811    2892.8476   -42476.659    119.49626    1.0075606 
   30800    231.37494    774.46951    124158.94   -39524.951    2878.7442   -42403.695    120.25999    1.0059162 
   30900    228.25862    435.44908    124525.36   -39646.282    2839.9712   -42486.253     120.8023    1.0029563 
   31000    223.52021    684.25499    124568.01   -39690.786    2781.0164   -42471.802    121.09919    1.0026129 
   31100    229.75672    526.86217    124684.51    -39688.53    2858.6104   -42547.141    121.46721    1.0016761 
   31200    227.15684    433.40908    124698.98     -39695.6     2826.263   -42521.863    121.81223    1.0015598 
   31300    227.77436    564.00456    124738.36   -39641.207    2833.9461   -42475.153    122.36626    1.0012436 
   31400    226.11835    670.25365    124644.09   -39593.132    2813.3421   -42406.475    122.52938    1.0020009 
   31500    225.60161    476.83721    124773.07   -39658.854    2806.9129   -42465.767     123.2109    1.0009651 
   31600    230.55043    477.02494    124654.36   -39597.656    2868.4857   -42466.142     123.5328    1.0019183 
   31700    227.54923    447.40157    124720.01   -39626.848    2831.1451   -42457.993    124.01497     1.001391 
   31800     234.2302    402.43293    124766.89   -39551.733     2914.269   -42466.002    124.24577    1.0010147 
   31900    232.34187    583.88278    124842.88   -39554.074    2890.7746   -42444.849    124.29733    1.0004054 
   32000    234.34279    492.57063    124903.93   -39554.423    2915.6698   -42470.093    124.70504   0.99991644 
   32100    234.06931    588.89555    125125.92   -39582.443    2912.2672    -42494.71    125.44281   0.99814246 
   32200    227.90368    698.50869    124929.59   -39585.158     2835.555   -42420.713    125.57729   0.99971106 
   32300    232.93826    433.72516    124941.86   -39565.274    2898.1948   -42463.469    126.07633   0.99961284 
   32400    233.51904     443.7884    124826.55   -39632.696    2905.4208   -42538.117    126.09385    1.0005363 
   32500    232.74528    511.16085    124731.09   -39651.748    2895.7937   -42547.541    126.57185     1.001302 
   32600    231.94172    604.71236    124654.12   -39595.754    2885.7959    -42481.55    127.18315    1.0019202 
   32700    230.38067    674.60877    124571.88    -39679.63    2866.3735   -42546.004    127.56663    1.0025817 
   32800    228.87156    449.45605    124618.36   -39717.341    2847.5974   -42564.939    127.77309    1.0022078 
   32900    230.73412    458.90179    124718.74   -39708.393    2870.7712   -42579.165    128.26219    1.0014012 
   33000    228.54882    276.87381    124671.46   -39762.656    2843.5818   -42606.238    128.55341     1.001781 
   33100    227.42105    713.61669    124703.08   -39683.067    2829.5502   -42512.617     128.9297    1.0015269 
   33200    228.01783    588.25507    124671.84   -39704.384    2836.9752   -42541.359    129.08755    1.0017778 
   33300    226.33924    681.87287    124662.99    -39628.79    2816.0904   -42444.881    129.02957     1.001849 
   33400    228.86235    309.90359    124471.45   -39719.024    2847.4827   -42566.507    129.29465    1.0033907 
   33500    231.44321    468.36831    124391.92   -39681.665    2879.5935   -42561.258     129.6266    1.0040322 
   33600    227.04149    600.48674    124447.28   -39643.654    2824.8278   -42468.482    130.02965    1.0035855 
   33700    229.23005    524.38125    124373.63    -39632.74    2852.0576   -42484.797    130.88875    1.0041799 
   33800     226.4325    544.91288    124235.17   -39614.292    2817.2508   -42431.542    131.06717     1.005299 
   33900    232.26261    650.72941    124302.71   -39620.063    2889.7884   -42509.852    131.54643    1.0047527 
   34000    233.89418    445.11996    124279.48    -39584.64    2910.0882   -42494.728    132.14776    1.0049405 
   34100    235.01545    495.30824    124177.03   -39633.247     2924.039   -42557.286    132.82917    1.0057696 
   34200    230.19074    544.71759       124334   -39645.645    2864.0104   -42509.655    133.00259    1.0044999 
   34300    227.68602    509.62832    124327.89   -39701.095     2832.847   -42533.942    133.45507    1.0045493 
   34400    226.57902    738.89538     124495.6   -39630.824    2819.0737   -42449.898    133.51656    1.0031961 
   34500    228.90331    449.36214    124191.67   -39645.868    2847.9924    -42493.86     133.8784    1.0056511 
   34600    232.03294    397.35608    124214.21   -39633.843    2886.9309   -42520.773    134.15786    1.0054686 
   34700     223.5984    595.31353    124300.35   -39712.621    2781.9892    -42494.61    134.27517    1.0047718 
   34800    229.73944    494.58962     124236.7   -39687.578    2858.3954   -42545.974    134.42213    1.0052866 
   34900    227.17232    468.16601       124353   -39699.608    2826.4556   -42526.064     135.1145    1.0043464 
   35000    224.24907    513.30128    124375.25   -39771.917    2790.0848   -42562.002    135.86141    1.0041667 
   35100    225.04467    207.36998    124269.26   -39701.073    2799.9835   -42501.056    135.94617    1.0050232 
   35200    228.53275    454.11569    124246.15   -39706.158    2843.3819    -42549.54    136.28491    1.0052101 
   35300    228.18858    427.33933    124182.99   -39704.888    2839.0997   -42543.987    136.41146    1.0057214 
   35400    228.84577    315.69975    124054.25    -39724.99    2847.2764   -42572.267    136.71241    1.0067651 
   35500    229.59961    213.37535    124259.06   -39622.181    2856.6557   -42478.836    137.39537    1.0051057 
   35600    229.75765    484.55713    124237.31   -39659.149    2858.6219   -42517.771    137.83362    1.0052817 
   35700    231.84599    531.70709    124094.58   -39615.667    2884.6049   -42500.272    137.82967    1.0064379 
   35800    229.04281    814.33423    124623.33   -39660.748     2849.728   -42510.476    138.23365    1.0021678 
   35900    231.43799    500.69691    124764.59   -39610.342    2879.5285   -42489.871     138.7098    1.0010332 
   36000    233.31339    539.28453    124619.29   -39581.649    2902.8621   -42484.511     138.9832    1.0022003 
   36100    231.86054    157.47303    124396.15   -39587.818    2884.7859   -42472.604    139.23505     1.003998 
   36200    230.64883    382.41017     124560.4   -39612.036    2869.7099   -42481.746    139.83246    1.0026742 
   36300    227.45074    573.67392    124468.42   -39684.431    2829.9196    -42514.35    140.73835    1.0034151 
   36400    229.15276    438.94733    124262.61    -39625.67    2851.0959   -42476.766    140.75977     1.005077 
   36500    233.62226    458.61555     124466.3   -39603.932    2906.7051   -42510.638    141.64489    1.0034321 
   36600    229.14918     515.6557    124490.29   -39742.525    2851.0515   -42593.577    142.14177    1.0032388 
   36700    228.74741     407.0275    124579.46   -39700.251    2846.0527   -42546.304     142.5592    1.0025207 
   36800    227.39956    407.51418    124423.29   -39672.658    2829.2828   -42501.941    142.40892    1.0037791 
   36900    229.29329    549.07921     124507.1   -39690.296    2852.8445   -42543.141    143.21966    1.0031034 
   37000    233.72225    606.66903    124521.23   -39633.384    2907.9491   -42541.333    143.37683    1.0029896 
   37100    227.75937    482.71866     124582.9   -39620.947    2833.7595   -42454.706    143.66995     1.002493 
   37200    228.03448      412.486    124663.13   -39682.209    2837.1824   -42519.391    144.19462    1.0018479 
   37300    226.18654     670.2608    124690.23   -39678.935    2814.1905   -42493.126    144.34352    1.0016301 
   37400     231.0341    370.35764     124799.8   -39714.286    2874.5035    -42588.79    144.86255    1.0007508 
   37500     228.7665    330.88181    124646.95   -39748.459    2846.2902   -42594.749    145.45516    1.0019779 
   37600     227.9573    192.90297    124663.01   -39685.352    2836.2221   -42521.574    145.72462    1.0018488 
   37700    230.46106    403.73299     124365.9    -39691.89    2867.3738   -42559.264    146.29163    1.0042423 
   37800    227.83011    482.98213    124179.65   -39780.627    2834.6397   -42615.267    146.49075    1.0057485 
   37900    229.17389    414.59814    124096.64    -39729.19    2851.3588   -42580.548    146.70174    1.0064212 
   38000    224.35818    461.36527    124205.73   -39686.916    2791.4422   -42478.359    146.75701    1.0055373 
   38100    228.85636    228.35949    124258.81   -39647.609    2847.4081   -42495.017    147.09599    1.0051078 
   38200     226.1198    674.65161    124146.47    -39646.18    2813.3602    -42459.54    147.37056    1.0060173 
   38300    225.08262    420.24099     124162.3   -39576.849    2800.4558   -42377.305    147.51534     1.005889 
   38400    232.36359    853.94401    124268.27   -39622.713    2891.0448   -42513.758    148.04544    1.0050312 
   38500    228.33041     356.7799     124181.9    -39642.27    2840.8644   -42483.135    148.33543    1.0057302 
   38600    227.43735      402.275    124385.95   -39580.569    2829.7531   -42410.322    149.49018    1.0040804 
   38700    228.49187    557.11144    124320.91   -39577.989    2842.8733   -42420.862     149.8989    1.0046057 
   38800    227.00564    648.31347    124210.12   -39614.109    2824.3818   -42438.491    150.30873    1.0055017 
   38900    230.11739    382.12859    124500.39   -39542.849    2863.0979   -42405.946    150.76287    1.0031575 
   39000    225.16418    603.25451    124485.62   -39569.816    2801.4705   -42371.286    151.31347    1.0032764 
   39100    231.68673    507.27894    124390.26   -39523.012    2882.6234   -42405.635     151.5414    1.0040456 
   39200    231.77882    392.86336    124261.56   -39548.247    2883.7692   -42432.016    151.90175    1.0050855 
   39300    231.34764    595.84261    124353.08   -39545.271    2878.4044   -42423.676    152.43955    1.0043458 
   39400    230.23922    644.14979    124430.11   -39507.731    2864.6136   -42372.344     152.9429     1.003724 
   39500    233.49159     462.4693     124411.9   -39496.698    2905.0793   -42401.777    153.30363     1.003871 
   39600    230.80494    508.45707    124394.25   -39549.188    2871.6523    -42420.84    153.97162    1.0040134 
   39700    233.21754     428.4398    124350.65   -39516.291    2901.6696    -42417.96     154.5347    1.0043654 
   39800    233.72461    550.40982    124339.06   -39599.961    2907.9785   -42507.939     154.5235     1.004459 
   39900    229.33732    386.17958    124475.77   -39644.483    2853.3923   -42497.875    154.70492    1.0033558 
   40000    228.58639    413.91791    124391.69   -39681.854    2844.0493   -42525.904    155.15875     1.004034 
   40100    232.22731    400.85248    124336.79   -39577.968    2889.3492   -42467.317    155.75466    1.0044774 
   40200    228.90738    586.11116    124328.26   -39588.309    2848.0429   -42436.352    156.48701    1.0045463 
   40300    228.20749    682.99622    124172.64    -39539.06    2839.3351   -42378.395    156.90561    1.0058053 
   40400     230.4067    514.59234    124335.02   -39442.289    2866.6974   -42308.986    157.67821    1.0044917 
   40500    232.25621    608.43791    124106.59    -39456.41    2889.7088   -42346.119    158.48818    1.0063406 
   40600    229.64649    562.24349       124100   -39492.029     2857.239   -42349.268    159.22717     1.006394 
   40700    224.03947    300.95198    123928.99   -39523.405    2787.4769   -42310.882    159.26149    1.0077827 
   40800    227.24501    434.06716    123904.28   -39563.424      2827.36   -42390.784    159.51344    1.0079837 
   40900    225.34762    549.00939    124078.99   -39590.176    2803.7528   -42393.929    159.89493    1.0065644 
   41000    230.54176    498.21558    123936.53   -39509.776    2868.3777   -42378.153    160.36985    1.0077214 
   41100    233.84108    329.69119    123812.19   -39496.755    2909.4276   -42406.183       160.66    1.0087334 
   41200    230.87554    532.46795    123903.17   -39503.222    2872.5306   -42375.753    161.41071    1.0079927 
   41300    223.16974    403.01513    123745.31   -39640.747    2776.6558   -42417.403    161.74198    1.0092786 
   41400    227.42625    415.49006    123795.27   -39584.177    2829.6149   -42413.792    161.74543    1.0088712 
   41500    226.38006      693.903    123752.36   -39576.753    2816.5983   -42393.351    161.94118    1.0092211 
   41600    227.64986     810.9229    124000.02   -39526.138    2832.3971   -42358.535    162.46491    1.0072054 
   41700    226.25753    431.46345    124111.47   -39522.926    2815.0738       -42338    162.77948     1.006301 
   41800     225.8802    469.64568    124202.06   -39542.435    2810.3791   -42352.814    163.17789     1.005567 
   41900     231.1703    679.98856    124220.35   -39524.208    2876.1981   -42400.406    163.13315    1.0054189 
   42000    231.42868     448.2568    124181.71   -39507.918    2879.4127   -42387.331    163.74603    1.0057318 
   42100    229.85707    499.25976    124256.18    -39514.41     2859.859   -42374.269    164.56521     1.005129 
   42200    230.13904    479.00657    124336.65   -39467.654    2863.3672   -42331.021    165.31842    1.0044785 
   42300    230.25093     612.5815    124401.58   -39453.164    2864.7593   -42317.924    165.97211    1.0039543 
   42400    235.26428    500.85037     124307.2   -39510.046    2927.1349   -42437.181     166.6802    1.0047165 
   42500    227.45232    444.08056    124275.48   -39503.575    2829.9393   -42333.514    167.20561     1.004973 
   42600    226.26781    601.06829    124184.86   -39499.325    2815.2018   -42314.527     167.6539    1.0057063 
   42700    230.29871    564.13152    123985.08   -39502.427    2865.3538    -42367.78    167.75665    1.0073268 
   42800     233.7474    723.97001    124225.48   -39470.557     2908.262   -42378.819    168.47131    1.0053774 
   42900    231.55621    521.20626    124020.97   -39539.285    2880.9995   -42420.285    168.83869    1.0070353 
   43000    228.55988    626.11155    124057.89   -39581.839    2843.7194   -42425.558    169.84466    1.0067355 
   43100    231.94119     336.2756     124078.9   -39559.422    2885.7893   -42445.212    170.25211    1.0065651 
   43200    234.07414    529.46487    124229.35   -39529.184    2912.3274   -42441.512     170.8424    1.0053461 
   43300    225.63581    444.22487     123996.7   -39529.337    2807.3385   -42336.675    171.04092    1.0072324 
   43400    235.95675    391.29862    124091.08   -39488.507    2935.7505   -42424.258    171.22433    1.0064663 
   43500    229.90165    522.93435    124148.73   -39497.671    2860.4137   -42358.085    171.88759    1.0059989 
   43600    235.14757    600.83972    124219.74   -39388.827    2925.6828    -42314.51    172.48784    1.0054239 
   43700    232.08134    256.92059    124228.66   -39415.876    2887.5331   -42303.409    172.53032    1.0053517 
   43800    234.94397    361.65941    124405.27   -39428.157    2923.1496   -42351.307    173.37234    1.0039244 
   43900    233.69106    446.43139    124454.63   -39492.133    2907.5611   -42399.695     174.2196    1.0035263 
   44000    230.27612    546.49698    124111.12   -39527.128    2865.0728   -42392.201    174.46679    1.0063038 
   44100     229.6831    670.32992    124028.46   -39545.574    2857.6944   -42403.268     174.7044    1.0069745 
   44200    226.91239    424.06444    124192.15   -39579.793    2823.2215   -42403.014    174.93339    1.0056473 
   44300    226.77046    516.03948    124139.25   -39594.471    2821.4556   -42415.926    175.09361    1.0060758 
   44400    233.74602    475.19033    124351.77   -39555.787    2908.2449   -42464.032    176.09215    1.0043563 
   44500    228.86053    461.47425    124150.59   -39596.363    2847.4601   -42443.823      176.605    1.0059838 
   44600    229.11579    530.41465    124364.77   -39659.327     2850.636   -42509.963    177.47348    1.0042514 
   44700    229.94263    577.72886    124515.19   -39635.346    2860.9235   -42496.269    177.94304    1.0030382 
   44800    227.93834    576.38815    124547.29   -39600.412    2835.9862   -42436.398    178.40722    1.0027797 
   44900    231.44586    489.31836    124591.79   -39556.199    2879.6265   -42435.825    178.92925    1.0024215 
   45000    227.69303    507.61466    124535.81   -39546.077    2832.9342   -42379.011    179.23722    1.0028721 
   45100     234.8556    536.85842       124613   -39490.278    2922.0502   -42412.328    179.29625    1.0022509 
   45200    230.26331    329.91993    124567.86   -39561.479    2864.9133   -42426.392    179.34605    1.0026141 
   45300    233.11357     371.5676    124475.93     -39586.8     2900.376   -42487.176    179.76113    1.0033545 
   45400     230.5624    531.61862    124462.63   -39561.556    2868.6346    -42430.19    180.35842    1.0034618 
   45500    229.74002    655.79134    124617.53   -39559.813    2858.4026   -42418.216    180.92831    1.0022145 
   45600    237.56211    564.29375    124638.89   -39573.748    2955.7243   -42529.472    181.40839    1.0020427 
   45700    230.14026    393.81307    124842.79   -39607.294    2863.3824   -42470.677    182.79862    1.0004061 
   45800    236.89258    422.11052    124983.27   -39555.352    2947.3941   -42502.746    183.33325   0.99928171 
   45900    232.09924    631.14407    124947.77   -39499.578    2887.7558   -42387.334    183.26986   0.99956562 
   46000    230.15646     356.4962    124983.98   -39469.147    2863.5839   -42332.731    183.79417   0.99927599 
   46100    237.39966    640.37265    124967.64   -39419.738    2953.7031   -42373.441    183.91888   0.99940665 
   46200    236.38821    402.32271    124962.63   -39410.309    2941.1188   -42351.428    184.05202   0.99944676 
   46300      234.734    524.08309    125056.92   -39446.227    2920.5372   -42366.764     183.9472   0.99869318 
   46400    231.20561    567.26839    124912.17   -39484.916    2876.6373   -42361.553    184.64543    0.9998505 
   46500    234.55652    436.67383    124901.34   -39503.723     2918.329   -42422.052    185.00141   0.99993719 
   46600    236.57579     544.3622    125170.44   -39514.004    2943.4525   -42457.457    185.29335   0.99778746 
   46700    229.33344    353.61969    125128.66   -39609.998     2853.344   -42463.342    185.58608   0.99812062 
   46800    226.49103    326.15703    124786.25   -39666.655    2817.9791   -42484.634    185.11788    1.0008594 
   46900    232.25214    569.75467    124786.84   -39586.996    2889.6582   -42476.654     186.0849    1.0008547 
   47000    232.99456    524.10046    124652.45   -39570.196    2898.8952   -42469.091    186.09441    1.0019337 
   47100    231.54493    415.20627    124645.27   -39527.909    2880.8591   -42408.768     186.9333    1.0019914 
   47200    232.60928     379.2564    124471.85   -39587.548    2894.1017   -42481.649    186.89146    1.0033875 
   47300    227.01127    537.30834    124426.12   -39614.621    2824.4517   -42439.073    187.77918    1.0037562 
   47400    229.16105    390.88977    124485.47   -39576.751    2851.1992    -42427.95    188.66001    1.0032777 
   47500    228.36599    733.02163     124612.5   -39503.691     2841.307   -42344.999    189.47706    1.0022549 
   47600    231.31977    488.71076    124744.51   -39457.378    2878.0577   -42335.435    189.81241    1.0011943 
   47700    232.15057    475.86395    124792.09   -39495.123    2888.3944   -42383.518    190.46173    1.0008126 
   47800    231.76729    413.23911    124608.19   -39507.261    2883.6257   -42390.887    191.22021    1.0022896 
   47900    229.13047    405.51495    124333.71   -39597.215    2850.8186   -42448.034    191.26301    1.0045023 
   48000     226.8705    644.67857    124173.28   -39613.753    2822.7004   -42436.453    191.04403       1.0058 
   48100    230.02492    427.13399    124146.58   -39585.563    2861.9473    -42447.51    191.37034    1.0060164 
   48200    228.09046    796.97051    124296.42    -39618.73     2837.879   -42456.609    192.19186    1.0048036 
   48300    232.32614    434.44916    124556.21   -39605.933    2890.5789   -42496.512    193.32464    1.0027079 
   48400     233.4201    238.41977    124457.98   -39510.317    2904.1898   -42414.507    193.86434    1.0034993 
   48500    226.09963    520.12313    124358.07   -39574.097    2813.1092   -42387.207    194.34254    1.0043054 
   48600     231.9189    413.06845    124482.69   -39577.754     2885.512   -42463.266    194.75562       1.0033 
   48700    230.98735     468.3086    124235.59   -39522.082    2873.9218   -42396.004    195.17356    1.0052956 
   48800    231.32705    648.53025    124594.82    -39548.92    2878.1483   -42427.068    195.94841    1.0023971 
   48900    234.03748    625.48262    124878.28   -39551.155    2911.8712   -42463.027    196.42413    1.0001218 
   49000    232.56307    656.77247    125171.24   -39609.827    2893.5267   -42503.354    197.40585   0.99778101 
   49100    232.60551    458.81801    125004.88   -39605.913    2894.0548   -42499.968    197.56914   0.99910894 
   49200    229.02033    477.98798    124935.95    -39633.79    2849.4483   -42483.238    197.71257   0.99966019 
   49300    230.65711    792.89108    124979.54   -39575.754     2869.813   -42445.567    198.40789   0.99931147 
   49400    232.61655    580.53395     124999.5   -39559.015    2894.1922   -42453.207    199.34531   0.99915195 
   49500     230.3105     441.2719    124769.87   -39587.407    2865.5005   -42452.907    199.39772    1.0009908 
   49600    229.41468    515.71069    124694.12   -39585.595    2854.3547   -42439.949    199.72046    1.0015988 
   49700    233.50143    485.66469    124924.23   -39612.749    2905.2017   -42517.951    200.25493   0.99975391 
   49800    232.94997     444.0077    125188.46   -39676.267    2898.3405   -42574.607    201.30104    0.9976438 
   49900    231.57245    259.00424     125083.9   -39574.311    2881.2015   -42455.513    201.39675   0.99847775 
   50000    234.73742    674.40943    125124.21   -39597.893    2920.5797   -42518.473    201.27517   0.99815611 
   50100    232.32889    755.81385    125219.02   -39609.491     2890.613   -42500.104    202.22476   0.99740031 
   50200    225.51149    370.45997    125350.28   -39650.451    2805.7916   -42456.243    202.49965   0.99635588 
   50300    230.10989     366.3595    125025.11   -39628.741    2863.0045   -42491.746    202.25887   0.99894729 
   50400    231.12802    443.78499    124809.38   -39661.077     2875.672   -42536.749    202.59383    1.0006739 
   50500    234.30419    447.26492    124827.85    -39706.43    2915.1896    -42621.62    203.02245    1.0005259 
   50600    222.64116    458.98973    124792.18   -39728.329    2770.0793   -42498.409    203.48277    1.0008119 
   50700    227.41284    511.40875    124858.56   -39725.974     2829.448   -42555.422    203.78193    1.0002798 
   50800    226.51221    388.22672    124994.89   -39721.325    2818.2426   -42539.568    204.70812   0.99918874 
   50900     230.3425    691.15864    125260.08   -39628.744    2865.8987   -42494.643    205.35657   0.99707337 
   51000    231.32239    613.93824    125227.66   -39660.523    2878.0904   -42538.613     205.9026   0.99733151 
   51100    228.80513    375.87436    125280.76   -39713.779    2846.7708   -42560.549    206.09253   0.99690877 
   51200    227.53562    428.17345    125128.75   -39709.093    2830.9756   -42540.069     206.4355   0.99811986 
   51300     226.2068    488.75544    125219.48   -39781.239    2814.4426   -42595.682    207.12422   0.99739666 
   51400    226.32347    589.69008    125251.96   -39803.881    2815.8942   -42619.776    207.11853   0.99713798 
   51500     228.4181    415.40473    125132.11   -39796.015    2841.9554   -42637.971    207.64602   0.99809309 
   51600     229.2357    474.11964    125214.97   -39732.996    2852.1279   -42585.124    208.23724   0.99743262 
   51700    231.05405    503.67118    125193.49   -39711.752    2874.7517   -42586.504    208.48646   0.99760371 
   51800    222.89911    477.02157    125351.68   -39750.256    2773.2888   -42523.545    208.67069   0.99634475 
   51900    225.41327    436.81688    125157.35    -39787.51    2804.5696    -42592.08    208.83808   0.99789182 
   52000    225.83252    626.74508    125297.22   -39795.317    2809.7859   -42605.103    209.59165   0.99677781 
   52100    230.41627    559.96856    125288.11   -39744.882    2866.8165   -42611.698    210.09322   0.99685033 
   52200    225.22835     668.2345    125296.56   -39769.968    2802.2688   -42572.236    210.45815   0.99678309 
   52300    228.17793    402.29802    125261.79   -39757.101    2838.9673   -42596.068    210.94088    0.9970598 
   52400    229.99322     459.6154    125216.17   -39705.481    2861.5529   -42567.034    211.17501   0.99742303 
   52500     229.6023    507.51454    124994.64   -39701.218    2856.6892   -42557.907    212.01695   0.99919078 
   52600    230.92515    470.85012    124981.84   -39734.313    2873.1479   -42607.461     212.0928   0.99929311 
   52700    226.41473    477.82598    125045.19   -39761.691    2817.0297    -42578.72    212.71457   0.99878687 
   52800    225.85181    564.69042    124940.88   -39696.314    2810.0259    -42506.34    212.91735   0.99962075 
   52900    228.32276     507.3201    124589.13   -39684.954    2840.7692   -42525.723    212.48112    1.0024429 
   53000    227.68598     694.2505    124521.45   -39639.273    2832.8465    -42472.12    212.58375    1.0029878 
   53100    230.03809    562.04577    124622.23   -39681.031    2862.1112   -42543.142    213.09983    1.0021767 
   53200     231.0801    583.99242    124876.87   -39689.804    2875.0758    -42564.88    213.78521    1.0001331 
   53300    227.91638    617.93128    124806.81   -39688.105    2835.7131   -42523.818    214.25317    1.0006945 
   53400    228.77632    555.08937    124909.91   -39764.466    2846.4123   -42610.878     214.8915   0.99986855 
   53500    225.93999    313.08767    124791.58   -39784.768     2811.123   -42595.891    214.93235    1.0008166 
   53600     225.1957    613.84461    124497.45   -39781.603    2801.8626   -42583.465    214.82762    1.0031811 
   53700    225.55707    660.67313    124722.24   -39805.008    2806.3588   -42611.367    215.69252    1.0013731 
   53800    228.33114    434.50408    124786.25   -39663.512    2840.8735   -42504.386    216.52649    1.0008594 
   53900    226.20786    596.87714    125013.88   -39712.038    2814.4558   -42526.494    216.96135   0.99903703 
   54000    227.50943     373.2905    125017.59   -39668.783    2830.6499   -42499.432    217.65079   0.99900736 
   54100    226.76912    413.38158    124946.55   -39671.656     2821.439   -42493.095    218.04988   0.99957533 
   54200    223.94267    435.16072    124984.29   -39642.569    2786.2726   -42428.842    218.59904   0.99927353 
   54300      227.863    398.44143    124948.96    -39595.89    2835.0489   -42430.939    218.62526   0.99955609 
   54400    227.33824    333.71754    124739.02    -39623.61    2828.5199    -42452.13    219.05467    1.0012384 
   54500     228.3066    333.70666       124765   -39594.716    2840.5681   -42435.285    219.64091    1.0010299 
   54600    234.56926    474.12786    124680.13   -39496.221    2918.4875   -42414.709    219.62052    1.0017113 
   54700    234.39716    592.16043    124797.94   -39507.238    2916.3463   -42423.585    219.87716    1.0007656 
   54800    230.38479    480.89064    124945.66   -39581.718    2866.4248   -42448.142    220.38705   0.99958248 
   54900    229.14568    475.64689    125024.32   -39631.869    2851.0079   -42482.877    220.70878   0.99895357 
   55000    226.90703    581.36494    125170.04   -39695.922    2823.1549   -42519.077    221.16517   0.99779061 
   55100    230.96077     411.7524    125089.74   -39657.622     2873.591   -42531.213    221.27064   0.99843112 
   55200    231.09796    651.19337    125324.05   -39689.389     2875.298   -42564.687    222.18679   0.99656444 
   55300    227.43295    563.73214    125373.27   -39665.698    2829.6983   -42495.396    222.56707   0.99617317 
   55400    230.36929    592.23943    125302.22   -39652.899     2866.232   -42519.131     223.0451   0.99673804 
   55500    233.64637     592.9557    125536.06   -39613.726    2907.0051   -42520.731    223.54342   0.99488137 
   55600     221.9102    472.62216    125394.26   -39652.274    2760.9848   -42413.258    223.84584   0.99600647 
   55700    231.43072    333.70379    125448.54   -39645.191    2879.4381   -42524.629    224.12296   0.99557546 
   55800    227.69991    395.58321    125276.09   -39671.452    2833.0198   -42504.472    224.62319   0.99694593 
   55900    232.02287     364.1389    125349.98   -39642.505    2886.8056    -42529.31     225.2779   0.99635831 
   56000    233.26353     483.8528    125245.36   -39647.109    2902.2418    -42549.35    225.43261   0.99719055 
   56100    234.08472    269.83956    125222.31   -39621.905     2912.459   -42534.364    225.41928   0.99737412 
   56200    231.65292    502.69447    125152.62   -39630.769    2882.2027   -42512.972    225.73792   0.99792949 
   56300     225.5566    489.89146    125029.34   -39644.046    2806.3529   -42450.399    226.30599   0.99891348 
   56400    227.25347     333.8421    124703.23   -39625.263    2827.4653   -42452.728    226.40445    1.0015257 
   56500    226.40707    517.52269     124693.2    -39701.64    2816.9344   -42518.575    226.36954    1.0016063 
   56600    229.00687    620.00993     124797.6   -39712.726    2849.2808   -42562.007    226.97187    1.0007684 
   56700    222.65745    799.88081    125062.96   -39740.378     2770.282    -42510.66    227.90616   0.99864492 
   56800    228.43433    737.91905    125141.26   -39675.737    2842.1573   -42517.894    228.51247   0.99802008 
   56900     229.9201    565.94831    125304.98   -39663.603    2860.6431   -42524.246    228.94172   0.99671611 
   57000    230.85213    408.38887    125173.29   -39618.952    2872.2393   -42491.191    229.39973   0.99776474 
   57100    231.16667    510.81539    125266.28   -39686.497    2876.1529    -42562.65    229.19555   0.99702403 
   57200    230.45019    465.98444    125081.25   -39739.223    2867.2385   -42606.462    229.56098   0.99849887 
   57300    225.91145    508.15785    125093.63    -39799.08     2810.768   -42609.848    229.88724   0.99840006 
   57400    224.49959     389.5968    125165.61   -39803.147    2793.2018   -42596.349    231.18031   0.99782595 
   57500    221.51429    508.53474       125044   -39853.753    2756.0588   -42609.811    231.15045   0.99879634 
   57600    221.90696    537.66634    124994.11    -39792.49    2760.9444   -42553.435    231.60205   0.99919504 
   57700    226.35234    390.18312    124863.57   -39834.367    2816.2535   -42650.621    231.47994    1.0002396 
   57800    225.43972    400.69666    124826.85   -39845.348    2804.8987   -42650.247    231.59659    1.0005339 
   57900    224.24251    335.08842    124913.68   -39796.136    2790.0031   -42586.139    232.20697   0.99983841 
   58000    226.68395    804.48455    125311.27   -39800.924    2820.3792   -42621.303    232.99051   0.99666608 
   58100    230.23509    436.61583     125315.8   -39731.303    2864.5622   -42595.865    233.39596   0.99663001 
   58200    228.84326    391.31967    125084.96   -39676.046    2847.2453   -42523.291    233.56707   0.99846926 
   58300    227.28215    580.76119    124917.58   -39607.088     2827.822    -42434.91    233.52077   0.99980718 
   58400    233.32934    423.44784    124903.58   -39606.817    2903.0606   -42509.877    234.00077   0.99991922 
   58500    234.61297    484.49545    124984.32   -39599.915    2919.0313   -42518.947    235.01291    0.9992733 
   58600    229.91951    560.28365    124933.47   -39571.862    2860.6358   -42432.498    235.07753   0.99968001 
   58700    231.72287    506.50572    124844.47   -39578.661    2883.0731   -42461.734     234.9833    1.0003927 
   58800    231.03007    329.43195    124907.33   -39631.743    2874.4533   -42506.196    235.82288   0.99988921 
   58900    229.75307    493.43041    124933.01    -39676.34     2858.565   -42534.905    235.54233   0.99968365 
   59000    229.26467    538.96797    124719.82   -39655.302    2852.4883   -42507.791    235.90587    1.0013925 
   59100    228.03702    512.62556    124831.97   -39644.699     2837.214   -42481.913    236.83816    1.0004928 
   59200    231.09761    580.97863    124515.06   -39649.811    2875.2936   -42525.104    237.44175    1.0030392 
   59300    230.59171     592.3079    124630.48   -39638.154    2868.9992   -42507.153    237.95883    1.0021103 
   59400    223.64136    454.85967       124408   -39710.919    2782.5237   -42493.443    238.25759    1.0039024 
   59500    228.44267    545.57071     124564.8   -39669.131    2842.2611   -42511.392    238.58573    1.0026387 
   59600    229.99316    604.30337    124686.77   -39644.704    2861.5521   -42506.256    239.06334    1.0016579 
   59700    227.62602    523.61333    124841.37   -39661.126    2832.1004   -42493.226    239.36403    1.0004175 
   59800    226.24387    308.32165     124836.3   -39658.787    2814.9038   -42473.691    239.38707    1.0004581 
   59900    226.70263    438.10043    124828.39   -39626.003    2820.6117   -42446.614    239.97455    1.0005215 
   60000    230.75685    458.13579    124961.11   -39684.915    2871.0539   -42555.968    240.18103   0.99945885 
   60100    228.92003    451.04896    124849.39   -39641.712    2848.2004   -42489.913    240.03064    1.0003532 
   60200     231.0333    385.36466    124836.34   -39627.837    2874.4935    -42502.33    240.16445    1.0004578 
   60300    232.75654     456.3755    124696.93   -39595.029    2895.9338   -42490.963    240.57719    1.0015763 
   60400    234.96821    628.01191    124600.71   -39556.546    2923.4513   -42479.997    240.66822    1.0023498 
   60500    226.73883    264.60488    124461.29    -39588.02    2821.0621   -42409.082    240.95972    1.0034726 
   60600    227.97742    382.58416    124489.07   -39643.052    2836.4725   -42479.525    241.43068    1.0032487 
   60700    226.74662    447.12751    124359.85   -39651.508     2821.159   -42472.667    241.81504    1.0042911 
   60800    232.35127    389.99108    124285.45   -39595.139    2890.8915   -42486.031      242.061    1.0048923 
   60900    226.33835    502.18274     124365.9   -39589.657    2816.0793   -42405.736    242.33863    1.0042423 
   61000    230.81443    551.87746    124177.24   -39625.239    2871.7704   -42497.009    242.14871     1.005768 
   61100    229.55175     560.1577    123991.39   -39660.314    2856.0602   -42516.374    242.49475    1.0072755 
   61200    225.59728    543.53266    124058.67   -39648.222    2806.8591   -42455.081    242.87351    1.0067292 
   61300    230.55848     411.2336    124006.43   -39622.294    2868.5858    -42490.88    243.15387    1.0071533 
   61400     226.6382    506.74913    123887.55   -39668.682      2819.81   -42488.492    243.65681    1.0081198 
   61500    225.97647    594.49548    124161.15   -39667.697    2811.5769   -42479.274    244.45577    1.0058983 
   61600    225.86967    486.27737    124465.08   -39618.528    2810.2481   -42428.776    245.53049     1.003442 
   61700    226.74767    490.06172    124004.94   -39702.081    2821.1722   -42523.253    245.25409    1.0071654 
   61800    225.73169    497.40049    124063.52   -39741.977    2808.5314   -42550.509    246.06811    1.0066899 
   61900    226.24956    371.14874    124231.52   -39669.683    2814.9747   -42484.657    247.15048    1.0053285 
   62000    229.02485    374.46222    124295.56   -39606.025    2849.5046    -42455.53    248.00621    1.0048106 
   62100    223.46082    604.16152    124119.92   -39627.116    2780.2774   -42407.393    248.18145    1.0062324 
   62200    227.12087    412.03721    124243.86   -39581.483    2825.8154   -42407.298    248.33576    1.0052287 
   62300    226.61621    322.31999    124314.89   -39606.333    2819.5365    -42425.87    248.93025    1.0046543 
   62400    234.28062    522.85796    124256.58   -39536.494    2914.8963    -42451.39    249.23756    1.0051258 
   62500    231.31091     599.1396    124474.32   -39558.627    2877.9475   -42436.574    249.57944    1.0033675 
   62600    233.41732    493.09844    124376.64     -39571.3    2904.1553   -42475.455    250.08419    1.0041555 
   62700    229.86019    413.33093    124438.12   -39612.854    2859.8978   -42472.752     250.4453    1.0036594 
   62800    230.97807    718.42708    124459.79   -39601.232    2873.8064   -42475.038    251.36136    1.0034846 
   62900    233.44048     347.4901    124619.25   -39559.435    2904.4434   -42463.879     252.2531    1.0022007 
   63000     231.3231     462.0732    124812.84   -39527.253    2878.0992   -42405.352    252.76092    1.0006462 
   63100    234.08945    555.08525    124697.25   -39513.437    2912.5177   -42425.955    252.75707    1.0015737 
   63200    231.70149    688.96854    124674.25   -39544.066     2882.807   -42426.873     253.0661    1.0017585 
   63300    232.64401    637.22181    124650.59   -39580.807    2894.5338   -42475.341    253.63791    1.0019486 
   63400    233.47228    592.78072    124672.28   -39517.381     2904.839    -42422.22    254.06495    1.0017743 
   63500    227.70438    488.26172    124517.55   -39611.594    2833.0754    -42444.67    254.13906    1.0030192 
   63600    232.60703    479.76744    124553.46   -39620.411    2894.0737   -42514.485    254.75162      1.00273 
   63700    230.73492    488.55479    124598.91   -39631.989    2870.7811    -42502.77    255.01469    1.0023642 
   63800    225.60098    487.25722    124432.06   -39751.221     2806.905   -42558.126    255.52212    1.0037083 
   63900    224.89434    468.52927    124558.24   -39745.308    2798.1132   -42543.422    256.42178    1.0026915 
   64000     226.6761    518.56977     124543.9   -39745.438    2820.2816    -42565.72     256.7761     1.002807 
   64100    228.03037    422.84696    124643.66   -39652.661    2837.1313   -42489.792    256.94349    1.0020044 
   64200    229.36722     427.9983    124567.01   -39629.271    2853.7643   -42483.036    257.00616     1.002621 
   64300    228.82756    575.31606    124608.59   -39512.142    2847.0499   -42359.192    257.83116    1.0022864 
   64400     234.5028     566.6917    124519.79   -39537.496    2917.6607   -42455.157    258.38233    1.0030011 
   64500    234.01822    550.17314    124637.36   -39536.709    2911.6315   -42448.341    258.82321     1.002055 
   64600    228.84482    395.47974    124705.91   -39604.214    2847.2647   -42451.479    259.57526    1.0015042 
   64700    230.00769    543.55801    124723.74   -39613.238     2861.733   -42474.971    260.00481     1.001361 
   64800    224.27251    578.52435    124426.93   -39624.281    2790.3764   -42414.657     260.7417    1.0037497 
   64900    229.79567    624.71368    124309.11   -39609.574     2859.095   -42468.669    261.36358     1.004701 
   65000     228.4687    389.01486    124342.89   -39562.058     2842.585   -42404.643    262.30422    1.0044281 
   65100    233.08726    383.06505    124300.61   -39585.875    2900.0486   -42485.923    262.67092    1.0047697 
   65200    235.27331    532.69289    124332.75   -39580.118    2927.2472   -42507.365     263.4597      1.00451 
   65300    233.49101    529.35423    124471.17   -39582.447    2905.0721   -42487.519    263.46356     1.003393 
   65400    232.38244    619.57521    124504.98   -39516.418    2891.2794   -42407.697    263.97309    1.0031204 
   65500    231.94205    632.45696    124779.89   -39585.933       2885.8   -42471.733    265.54518    1.0009105 
   65600    228.75314    325.83301    124887.27   -39642.471    2846.1239   -42488.595    265.65112    1.0000498 
   65700    227.54559    300.18046    124716.26   -39683.026    2831.0997   -42514.125    265.74352     1.001421 
   65800    226.71366     470.5049    124538.68   -39691.251     2820.749       -42512    266.01858     1.002849 
   65900    225.18435    439.66131     124526.9   -39650.159    2801.7214   -42451.881    266.09479    1.0029439 
   66000    233.73359    762.97441    124701.83    -39540.76    2908.0902    -42448.85    266.11005     1.001537 
   66100    235.26251    292.38438    124760.76   -39492.295    2927.1128   -42419.408    266.31715    1.0010639 
   66200    235.72867    460.23092    125007.39   -39467.902    2932.9128   -42400.814    267.05701   0.99908885 
   66300    233.06254     511.0088    124877.72   -39508.567    2899.7411   -42408.308    267.41192    1.0001263 
   66400    232.39212     407.9488    124665.34   -39548.728    2891.3997   -42440.128    267.95002    1.0018301 
   66500    234.22444    559.27645    124741.24   -39607.782    2914.1973   -42521.979    268.42137    1.0012205 
   66600    232.41181    624.05898    124923.49   -39647.762    2891.6448   -42539.406    269.50833    0.9997599 
   66700    227.84544    667.95907    124866.66   -39694.403    2834.8305   -42529.233    269.91537    1.0002149 
   66800    231.29679    402.94341    124949.68   -39627.744    2877.7718   -42505.515    270.15252    0.9995503 
[...]
   84600    221.99361    572.88268    124444.19   -39694.815    2762.0225   -42456.838     345.1948    1.0036105 
   84700    226.19989    482.34141    124072.57    -39708.16    2814.3566   -42522.517    344.21899    1.0066165 
   84800    229.28556    498.83849     124374.7   -39697.831    2852.7483   -42550.579    344.71662    1.0041712 
   84900    230.23947     627.7855    124568.63   -39684.406    2864.6168   -42549.022    345.13132    1.0026079 
   85000    230.95281    586.73264    124977.16   -39652.077    2873.4921   -42525.569     345.0696   0.99933053 
   85100     228.7862    451.65974    125009.49   -39677.939    2846.5353   -42524.474    346.13718   0.99907211 
   85200    233.08719    646.09624    124960.08   -39695.378    2900.0478   -42595.425    346.63353    0.9994671 
   85300     225.6569    789.27661    125126.52    -39726.08    2807.6008    -42533.68    348.28492   0.99813766 
   85400    232.04754    374.64784     125050.4   -39722.849    2887.1126   -42609.962    348.77097   0.99874524 
   85500    231.15108     643.2667    125079.11   -39673.493    2875.9589   -42549.452    348.94357     0.998516 
   85600     231.7557    242.61173    124855.61   -39638.709    2883.4816   -42522.191    349.40209    1.0003034 
   85700    227.98357    563.51763    124837.27     -39666.3     2836.549   -42502.849    349.18706    1.0004503 
   85800    226.93057    640.78654    124811.58   -39656.067    2823.4477   -42479.515    348.91853    1.0006563 
   85900    231.79942    500.20994    124960.79   -39535.215    2884.0255   -42419.241    349.52968   0.99946145 
   86000    230.02424    491.71345     125040.4   -39585.111    2861.9389    -42447.05    349.90422   0.99882509 
   86100    236.14564    497.32533    125032.31   -39578.603    2938.1007   -42516.704    350.32823   0.99888974 
   86200    234.60734    334.17342    125134.27   -39563.001    2918.9613   -42481.962    351.11159    0.9980758 
   86300    227.15618    541.58696    124897.66   -39612.602    2826.2548   -42438.857    351.07309    0.9999666 
   86400    226.38366    454.34028    124995.74   -39630.519    2816.6431   -42447.163    351.73606   0.99918195 
   86500     233.0804    715.94634    124838.75   -39594.819    2899.9633   -42494.782    352.23878    1.0004385 
   86600    231.02582    545.93972    124990.71   -39547.054    2874.4005   -42421.455    352.67303    0.9992222 
   86700    231.48552    837.38592    124908.57   -39541.844    2880.1199   -42421.964    353.16215   0.99987927 
   86800    230.37492     434.6538     124942.7   -39605.593     2866.302   -42471.895    353.30715   0.99960616 
   86900    229.81801    359.73825    124862.27   -39572.773     2859.373   -42432.146    353.59948    1.0002501 
   87000    228.95105    616.09189    124842.84   -39565.374    2848.5864    -42413.96    354.20444    1.0004057 
   87100    230.55032    357.11871    124892.04   -39588.397    2868.4843   -42456.881    354.36779    1.0000116 
   87200    233.24468    771.51819    124881.25   -39579.827    2902.0072   -42481.834    354.59496     1.000098 
   87300    238.90748    499.85506    124950.66   -39596.483    2972.4632   -42568.947     355.4677   0.99954249 
   87400    231.69951    385.36941    124699.86   -39606.759    2882.7824   -42489.541     355.3765    1.0015528 
   87500    232.43115    665.66844    124849.59    -39624.38    2891.8854   -42516.266    356.11293    1.0003517 
   87600    230.28223    500.53234    124948.63   -39650.304    2865.1487   -42515.453    356.78715   0.99955872 
   87700    222.29904    532.14549    124761.82   -39666.502    2765.8227   -42432.325    356.29933    1.0010554 
   87800    226.77506    285.12545     124686.4   -39632.862    2821.5129   -42454.375    355.85068    1.0016609 
   87900    227.12159    524.37239    124721.96   -39651.045    2825.8244    -42476.87    356.15678    1.0013753 
   88000    229.69514    640.07337    124698.34   -39683.921    2857.8443   -42541.765    357.07722     1.001565 
   88100    231.86573    576.89934    124819.53   -39607.432    2884.8505   -42492.282    356.99779    1.0005926 
   88200    232.99428    462.96746    124938.14   -39594.738    2898.8918    -42493.63     358.2023   0.99964261 
   88300    236.11687    301.77953    124834.59   -39645.674    2937.7428   -42583.417    358.79533    1.0004718 
   88400    226.68037    406.12732    124532.15   -39766.742    2820.3347   -42587.076    358.32721    1.0029016 
   88500    231.84332    653.11056    124602.15   -39665.771    2884.5716   -42550.343    358.11468    1.0023382 
   88600    232.36272    475.02406    124728.11   -39628.557    2891.0341   -42519.591    358.43354    1.0013259 
   88700    228.76176    574.36848    124676.69   -39597.709    2846.2312    -42443.94     358.9478    1.0017389 
   88800    235.08131    628.37453    124574.64   -39529.741    2924.8584     -42454.6    358.86411    1.0025595 
   88900    231.53738    614.17808    124671.89   -39568.994    2880.7652    -42449.76    359.05844    1.0017775 
   89000    232.29603    446.05949    124674.18    -39541.63    2890.2043   -42431.834    359.53337    1.0017591 
   89100    229.17486    360.76447    124882.59   -39625.795    2851.3709   -42477.166    360.41519    1.0000873 
   89200    227.39328     461.7218    124588.46   -39663.053    2829.2047   -42492.257    360.65382    1.0024483 
   89300    229.87581    505.86224    124782.14   -39666.384    2860.0921   -42526.476    361.38896    1.0008923 
   89400    229.75792    587.53484    124892.07   -39701.647    2858.6253   -42560.272    362.36267    1.0000114 
   89500    229.00667    298.00808     124855.6   -39749.729    2849.2784   -42599.007    362.93769    1.0003035 
   89600    227.59559    412.50757    124773.51   -39806.146    2831.7219   -42637.868     363.1568    1.0009616 
   89700    223.94302    428.02452       124729    -39783.17     2786.277   -42569.447    363.06641    1.0013188 
   89800    225.09036    475.97707    124568.55   -39731.751     2800.552   -42532.302    362.33459    1.0026085 
   89900    222.48054    372.12104    124523.81   -39779.294    2768.0808   -42547.374    362.53491    1.0029687 
   90000    229.94167     521.9034    124854.66    -39680.42    2860.9115   -42541.331    363.63015    1.0003111 
   90100    222.90681     600.0522    124833.12   -39690.039    2773.3845   -42463.424     364.1532    1.0004836 
   90200     227.3108    484.63224    125035.66    -39727.71    2828.1785   -42555.889    365.38835   0.99886295 
   90300    224.70791    796.87029    125134.19   -39736.342    2795.7936   -42532.136    366.16994   0.99807644 
   90400    226.82526    380.72272    125239.03   -39738.585    2822.1375   -42560.722    367.02807   0.99724094 
   90500    231.67916    428.22718    125292.07   -39699.967    2882.5293   -42582.496    366.89867    0.9968188 
   90600     237.5837    406.53254    125573.27   -39612.928    2955.9929   -42568.921    367.29173   0.99458657 
   90700    231.03021    209.79204     125259.8   -39629.708    2874.4551   -42504.163    366.94013   0.99707562 
   90800    232.30327    479.58971    125043.39   -39677.921    2890.2943   -42568.216    366.50952   0.99880123 
   90900     224.0785    427.89946    125095.73   -39770.016    2787.9625   -42557.978    366.66272   0.99838333 
   91000    227.60653    359.23558    124966.94   -39798.592    2831.8579    -42630.45    366.41331   0.99941225 
   91100    231.74601    665.93283    124939.98   -39796.278     2883.361   -42679.639    366.42995   0.99962789 
   91200    228.19554    578.56801    124939.38   -39762.387    2839.1863   -42601.573    366.64388   0.99963269 
   91300    235.55607    408.69112    124951.65   -39672.111    2930.7654   -42602.876    367.33139   0.99953455 
   91400    230.57594    532.05189    124868.93   -39638.513    2868.8031   -42507.316    368.44544    1.0001967 
   91500    233.12761    138.66737    124784.68   -39639.232    2900.5507   -42539.783    368.80775     1.000872 
   91600    233.64157    588.49908    124623.68   -39678.351    2906.9453   -42585.296    368.94458     1.002165 
   91700    228.45472    607.84961    124606.93   -39753.132    2842.4111   -42595.543    368.41399    1.0022997 
   91800    230.07001      477.388    124508.52   -39717.315    2862.5083   -42579.824    368.76485    1.0030919 
   91900    227.93395    536.26285    124816.15   -39716.013    2835.9316   -42551.945    370.01281    1.0006196 
   92000    228.23955    711.27872    124931.78   -39710.959    2839.7339   -42550.693    370.26649   0.99969351 
   92100    228.44394    512.97419    124853.32   -39748.364    2842.2769   -42590.641    370.23114    1.0003217 
   92200    229.09399     469.9086    124653.01   -39667.139    2850.3648   -42517.503    370.20606    1.0019292 
   92300    233.28898    537.01449    124531.12   -39571.743    2902.5585   -42474.301    371.00658    1.0029099 
   92400    229.84806    428.19356    124685.41   -39555.985    2859.7468   -42415.732    371.92382    1.0016689 
   92500     229.7297    481.86551    124457.63   -39578.738    2858.2742   -42437.012    371.85365    1.0035021 
   92600    231.23139    530.01462    124605.97   -39556.303    2876.9582   -42433.262    372.88089    1.0023074 
   92700    231.70307    546.15677     124496.1    -39554.15    2882.8267   -42436.977    373.69299     1.003192 
   92800    231.22329    557.39262    124361.87    -39603.96    2876.8573   -42480.818    374.43968    1.0042748 
   92900     234.3805    492.14593    124766.68   -39581.523     2916.139   -42497.662    375.18259    1.0010164 
   93000    229.63798    476.96332    124678.45   -39625.723    2857.1331   -42482.856      375.236    1.0017248 
   93100    235.84671    385.18887    124661.09   -39574.329    2934.3814   -42508.711    375.46367    1.0018643 
   93200    231.18331    408.82945    124711.29   -39602.322    2876.3599   -42478.682    376.22462     1.001461 
   93300    233.22573     596.9215    124817.11   -39621.238    2901.7715   -42523.009    377.06074     1.000612 
   93400    230.90709    621.80986    124842.85   -39672.736    2872.9232   -42545.659    377.39889    1.0004056 
   93500    227.06161    544.34223    124713.52    -39721.45    2825.0781   -42546.528    378.00426     1.001443 
   93600    228.75132    498.35744    124567.32   -39776.126    2846.1013   -42622.228     377.4379    1.0026184 
   93700    226.18814    524.02619    124620.59   -39732.538    2814.2105   -42546.748    377.87303    1.0021899 
   93800    229.10057    546.85458    124758.38   -39691.528    2850.4466   -42541.975    378.44616     1.001083 
   93900    228.82612    373.24806    124664.17   -39656.901     2847.032   -42503.933     378.6604    1.0018395 
   94000    229.46927    597.82552     124604.5   -39659.684     2855.034   -42514.718    379.02308    1.0023192 
   94100    228.10044    669.65833    124560.46   -39649.982    2838.0032   -42487.985    379.12223    1.0026736 
   94200    227.14483     338.6953    124303.87   -39643.077    2826.1135   -42469.191    378.79823    1.0047434 
   94300    229.70826     433.4236    124294.83   -39598.268    2858.0074   -42456.275    379.09493    1.0048164 
   94400    228.24814    525.44929    124514.68   -39580.916    2839.8408   -42420.757    379.99816    1.0030423 
   94500    234.16441     490.3499    124710.36   -39504.498    2913.4504   -42417.948     380.7023    1.0014685 
   94600    233.17813    518.91646     124738.9   -39556.341    2901.1793    -42457.52    381.62437    1.0012393 
   94700     226.3758    582.62334    125068.07   -39598.649    2816.5453   -42415.194     382.7104    0.9986041 
   94800    229.42155    496.87353    124958.99   -39599.451    2854.4402   -42453.891    382.87929   0.99947587 
   94900    228.39281    393.65664    125076.54    -39570.54    2841.6408   -42412.181    382.97552   0.99853652 
   95000    235.92291    405.97172    125263.43   -39567.518    2935.3296   -42502.848    383.59501   0.99704672 
   95100     234.5956    623.02777       125131   -39571.967    2918.8153   -42490.782    384.38165   0.99810191 
   95200    227.38873    355.31805    125147.64   -39593.438     2829.148   -42422.586    384.61202   0.99796921 
   95300    233.80778     597.4729    125046.02   -39482.562    2909.0133   -42391.576    384.61536   0.99878019 
   95400    232.16554    428.95989    125085.39    -39547.74    2888.5807   -42436.321    384.99764   0.99846588 
   95500    230.30139    396.66557    124895.39   -39555.597    2865.3871   -42420.985    385.92951   0.99998483 
   95600    231.04478    324.72243    124674.62   -39540.373    2874.6363   -42415.009    385.61271    1.0017555 
   95700    232.73008    276.33944    124401.19   -39598.955    2895.6047    -42494.56    385.20029    1.0039573 
   95800    227.12149    390.92438    124477.28    -39636.81    2825.8231   -42462.634    385.36366    1.0033437 
   95900    228.98198    485.10936    124548.11   -39577.205    2848.9711   -42426.176    385.39777    1.0027731 
   96000    225.93888    535.93554    124549.46    -39657.03    2811.1092   -42468.139    386.51765    1.0027622 
   96100      231.317    570.75016    124218.96   -39598.682    2878.0232   -42476.705    386.97253    1.0054302 
   96200    223.71071    475.69203    124226.71   -39640.955    2783.3866   -42424.342    387.52164    1.0053675 
   96300    230.28147     575.8903    124202.04   -39585.306    2865.1393   -42450.445    387.65914    1.0055672 
   96400    229.89042    277.21193    123847.52   -39566.199    2860.2739   -42426.473    387.00999    1.0084456 
   96500    232.59789    540.37873    123938.11   -39614.385    2893.9599   -42508.345    387.63707    1.0077085 
   96600    229.15208    435.18164    124093.47    -39605.51    2851.0875   -42456.597    388.41916    1.0064469 
   96700    228.62875    415.19562    124173.49   -39691.927    2844.5763   -42536.504    388.99683    1.0057984 
   96800     227.4494    440.33385    124253.49   -39750.749     2829.903   -42580.652    390.04057    1.0051507 
   96900     227.5965    683.07531    123980.38   -39671.027    2831.7331    -42502.76    390.52306     1.007365 
   97000    224.89428    640.87569    124180.18   -39656.185    2798.1124   -42454.297    391.40176    1.0057442 
   97100    229.14962    524.38933    124215.58   -39654.044    2851.0569   -42505.101    391.85869    1.0054575 
   97200    236.00015    521.00238    124347.59   -39691.358    2936.2905   -42627.649    391.85568    1.0043901 
   97300    225.90858     476.1988    124271.64    -39689.82    2810.7322   -42500.552    391.78773    1.0050039 
   97400    228.32786    696.39493    124206.57   -39699.112    2840.8326   -42539.944     392.1127    1.0055305 
   97500    226.52648    374.75584    124104.58   -39623.217    2818.4201   -42441.637    392.37421    1.0063569 
   97600    229.15527    491.18528    124094.77   -39694.075    2851.1272   -42545.202    393.12015    1.0064363 
   97700    235.36284    631.40292    124382.24   -39633.264    2928.3612   -42561.626    393.79713    1.0041103 
   97800    230.84629    542.91612    124319.03   -39604.969    2872.1667   -42477.135    393.72178    1.0046209 
   97900    232.34391     349.1816     124293.9   -39569.093       2890.8   -42459.893    394.22041     1.004824 
   98000    228.22351    590.38658    124455.24   -39570.165    2839.5344   -42409.699     395.9361    1.0035213 
   98100    223.18537    586.42159    124326.81   -39638.696    2776.8503   -42415.547    396.16698     1.004558 
   98200     228.5989    453.45413    124378.31   -39600.569     2844.205   -42444.774     397.0902    1.0041421 
   98300    232.96067    658.05481    124600.15   -39641.633    2898.4737   -42540.106    398.24082    1.0023542 
   98400    225.56143    409.59648    124361.42   -39660.506    2806.4131   -42466.919    397.99884    1.0042784 
   98500     225.5816      553.547    124308.63   -39662.493     2806.664   -42469.157    398.57091    1.0047049 
   98600     230.0047    426.35134    124414.86   -39680.608    2861.6958   -42542.304    398.76156     1.003847 
   98700    224.56566    616.24733     124455.6   -39729.132    2794.0238   -42523.155    399.67306    1.0035185 
   98800    227.75876    633.26242    124490.31   -39703.448     2833.752     -42537.2    399.82098    1.0032386 
   98900    224.83013    572.49066    124512.55   -39727.647    2797.3143   -42524.961    400.50233    1.0030595 
   99000    229.00008    586.19329    124423.78   -39775.336    2849.1964   -42624.533     401.1952    1.0037751 
   99100    229.59712    488.27319    124611.59    -39696.61    2856.6247   -42553.235    401.42781    1.0022622 
   99200    229.12398    370.09837    124480.38   -39686.581    2850.7379   -42537.319    400.88135    1.0033187 
   99300     231.1694    613.80047    124642.05    -39635.96    2876.1868   -42512.147    402.06662    1.0020173 
   99400    233.19614    423.55324    124654.97   -39605.296    2901.4033   -42506.699    402.48632    1.0019134 
   99500    233.50659    632.98952    124538.52   -39485.752    2905.2659   -42391.018      402.377    1.0028503 
   99600    234.09581    673.16758    124658.05   -39516.439    2912.5969   -42429.035    402.88502    1.0018887 
   99700    230.93238    494.64706    124645.05   -39520.903    2873.2379   -42394.141    403.11942    1.0019932 
   99800    233.84041    758.95889    124853.08   -39536.579    2909.4192   -42445.998    404.00314    1.0003236 
   99900    229.07421    606.19133     124784.6   -39595.707    2850.1187   -42445.826    404.49288    1.0008727 
  100000    228.57079    566.68411    124723.58   -39599.685    2843.8552    -42443.54    404.72123    1.0013623 
  100100    228.71427    665.35782    125019.16   -39516.626    2845.6404   -42362.267    405.54261   0.99899482 
  100200    234.87446    605.55665    124894.53    -39531.96    2922.2848   -42454.244    406.28721   0.99999172 
  100300      233.758    346.68613    124754.15   -39528.264    2908.3939   -42436.658    406.64079    1.0011169 
  100400    230.92504    318.00886       124793   -39572.786    2873.1466   -42445.932    407.23611    1.0008053 
  100500    232.46029    597.95442    124976.05    -39491.31     2892.248   -42383.558    408.15889   0.99933939 
  100600    233.59952    337.97986     124887.5   -39580.867    2906.4221   -42487.289    408.18677     1.000048 
  100630    233.19385    552.17809    124900.55   -39574.124    2901.3748   -42475.499    408.17582   0.99994345 
Loop time of 111.933 on 6 procs for 100000 steps with 4175 atoms

Performance: 385.944 ns/day, 0.062 hours/ns, 893.388 timesteps/s
98.9% CPU use with 6 MPI tasks x no OpenMP threads

MPI task timing breakdown:
Section |  min time  |  avg time  |  max time  |%varavg| %total
---------------------------------------------------------------
Pair    | 85.788     | 88.876     | 99.432     |  50.8 | 79.40
Neigh   | 5.3531     | 5.3852     | 5.438      |   1.1 |  4.81
Comm    | 4.3743     | 14.94      | 18.091     | 124.1 | 13.35
Output  | 0.16559    | 0.16685    | 0.17177    |   0.5 |  0.15
Modify  | 1.8334     | 1.8639     | 1.9363     |   2.6 |  1.67
Other   |            | 0.7017     |            |       |  0.63

Nlocal:        695.833 ave         707 max         686 min
Histogram: 1 1 0 1 0 1 1 0 0 1
Nghost:        1498.17 ave        1508 max        1488 min
Histogram: 2 1 0 0 0 0 0 0 0 3
Neighs:        0.00000 ave           0 max           0 min
Histogram: 6 0 0 0 0 0 0 0 0 0
FullNghs:      20123.3 ave       20558 max       19608 min
Histogram: 1 0 0 1 0 1 1 1 0 1

Total # of neighbors = 120740
Ave neighs/atom = 28.919760
Neighbor list builds = 5842
Dangerous builds = 0

undump              1
unfix               2
unfix               3
unfix               4


################################################
#######         Run Simulation         #########
################################################

reset_timestep      0
log                 log.run_${NAME}
log                 log.run_liquid_density_MLmW
