LAMMPS data file via write_data, version 29 Oct 2020, timestep = 800000

4175 atoms
1 atom types

-0.6437045710552418 50.64370457105772 xlo xhi
-0.6437045710552418 50.64370457105772 ylo yhi
-0.6437045710552418 50.64370457105772 zlo zhi

Masses

1 18.015

Atoms # atomic

477 1 2.116180569841309 0.3908371245504356 1.2378985362646957 0 0 0
665 1 50.629016383676316 0.9286292518436294 0.6150927091613867 0 0 0
2782 1 11.054369102042465 -0.33077489552074035 0.4664252298182494 0 1 0
360 1 41.21700022192711 -0.12829298860074978 13.414999929525603 0 0 0
680 1 13.438715729438076 0.731745923670921 0.06716173390905578 0 0 0
569 1 14.26375527209887 2.413110558128991 1.9709735532150652 0 0 0
530 1 18.4382317720595 0.5321275157773675 1.7528967819533952 0 0 0
521 1 23.467347143074793 1.95293350902837 0.8721521758533859 0 0 0
255 1 40.06825072915255 6.97343260651124 0.3464325491537784 0 0 0
241 1 25.97184076946377 2.0390796240919755 1.400957445352577 0 0 0
225 1 28.62207401344376 1.6907904843822679 0.4734399141957202 0 0 0
583 1 35.2910996564291 0.389026326332774 0.35754275661030666 0 0 0
2543 1 26.601837589330767 24.4806617726008 8.530495639628096 0 0 0
1506 1 43.79736327418955 1.609793261077649 0.3148392315152688 0 0 1
2580 1 46.325073631281654 0.8925939065001951 0.5822891714169196 -1 1 0
1339 1 1.779747043227622 5.010277042174378 1.010888128991754 1 0 0
598 1 0.0323834915786253 4.4584187207535075 3.174373786439233 0 0 0
3246 1 30.031396286222442 -0.34181496281795315 12.536526273803542 0 1 0
2203 1 5.597709214113164 3.3351804356162593 0.9110748759107152 0 1 0
336 1 9.91191436892415 4.1443778191530125 2.0516700641892984 0 0 0
370 1 12.919214320956911 4.680042924554114 2.335652319663579 0 0 0
682 1 16.983707039630065 2.7531489164614316 1.1606528936121614 0 0 0
1484 1 20.50331771248038 5.334287137044958 1.203276247634746 0 0 1
593 1 17.989428083587136 5.4265179813492 1.9741515993159786 0 0 0
654 1 26.750432118828765 4.644896654665133 1.9012880985569112 0 0 0
31 1 9.64560875139148 18.408296292475175 -0.4884140148360463 0 0 0
604 1 32.56618492066205 4.0502580869035505 0.3930797469305054 0 0 0
353 1 35.09787019208544 4.761809475511849 0.23618701452035507 0 0 0
1748 1 35.626775900597025 4.8082336665821686 2.973259959362612 0 0 1
2653 1 40.19463305867919 3.367275737667998 2.765715689198376 0 1 0
22 1 17.342178437974976 -0.2889101148487599 9.721169646299263 0 0 0
403 1 47.03315936699457 4.211649416298758 0.040346232109896185 0 0 0
156 1 3.108904163719294 7.763560992294565 1.197983255998282 1 0 0
373 1 8.290798348108765 8.046670140920156 2.8769792119387634 0 0 0
540 1 9.748429531182964 2.1900250150660714 0.13269517108363504 0 0 0
2235 1 8.800723608720881 6.361588987198089 0.8430938404376622 1 1 0
2032 1 14.042935923374493 6.998821383814633 0.9424583419643009 0 0 1
667 1 13.185210943061556 9.570501175551591 1.4742144040554774 0 0 0
1984 1 16.5693876079633 6.721067366862479 -0.011255188595801102 0 0 1
203 1 21.320349932484415 7.877107191786253 0.7771420834658784 0 0 0
1538 1 23.884415514689294 7.5140163741379045 0.10279319514041696 0 0 1
1919 1 31.30420701664507 6.425851262527219 0.7346179999157127 0 0 1
299 1 33.390895951807536 8.46319953593543 0.1614270584732973 0 0 0
433 1 40.980891577756765 6.223930931855823 2.793935178929909 0 0 0
128 1 39.84443049825893 10.93057836715894 -0.1271280683896402 0 0 0
295 1 44.11100331050234 7.925339485915316 0.4166657767330382 0 0 0
603 1 49.53887701025977 6.4508281457127685 2.484651936415248 0 0 0
1440 1 6.748113014979871 5.610989303549033 -0.6190945091399553 0 0 1
284 1 1.177479879891924 9.575001076392832 0.8376645751757914 0 0 0
130 1 2.127802266795259 12.076344916939977 1.8050170419087057 0 0 0
706 1 6.269316978536161 10.651110604673978 0.12016518658647668 0 0 0
1972 1 8.495785998678624 10.797559746797518 1.5681318254519354 0 0 1
196 1 14.923611323654509 11.848604541176215 1.5006498780092326 0 0 0
668 1 17.467882127453105 10.812307106131867 1.2330995903016513 0 0 0
426 1 23.29460860721139 12.87501970261772 0.8411600655173992 0 0 0
2243 1 17.839038231332786 23.174652659685478 -0.6092855423188601 0 0 0
1539 1 29.11663589560168 9.596161418115878 0.4200074486155161 0 0 1
67 1 26.995964673578747 11.325026376956195 0.3362316890543119 0 0 0
1746 1 31.401371055003924 10.402396784754899 -0.5197615277354422 0 0 1
1781 1 32.299984086208696 11.895169636297279 1.7027952982307006 0 0 1
420 1 36.208961508348125 11.05142338771034 2.0360841924970825 0 0 0
406 1 10.882721227987965 10.194512791043147 0.11281467637553322 0 0 0
94 1 19.424627171843454 -0.34719531768880074 -0.5577073323668498 0 0 0
1992 1 5.286701299529428 8.037969903254469 -0.4594822521341246 0 0 1
536 1 44.37777542706489 12.308099979622677 1.4308341132867843 0 0 0
375 1 45.99182245236558 10.057905203085157 0.8403863717188178 -1 0 0
377 1 -0.3005118094385159 13.632207658640876 1.14544019125535 0 0 0
107 1 4.565003453327552 12.81866726649402 0.5250735946138523 0 0 0
2320 1 45.1826452925247 -0.15558085062704718 4.5525002768025935 0 1 0
997 1 8.393752484776163 13.647670745000712 1.4539802724831996 1 0 0
1607 1 10.892182698084488 15.042529398272755 1.6766354393895564 0 0 1
1501 1 12.105718974686345 13.091379285414053 3.508321333241639 0 0 1
615 1 16.22522392108325 14.92532984138611 0.9073459376562754 0 0 0
201 1 18.687215466463325 13.338777651256104 0.9686367976439991 0 0 0
435 1 26.374630599880568 -0.608155979982189 14.304695033748663 0 0 0
1968 1 26.607356934738984 12.764819300010332 2.5797863200687283 0 0 1
1768 1 25.510874790881417 15.002883380010568 1.3683363695174804 0 0 1
1693 1 29.712539291206618 14.459737349579903 -0.05426590638608697 0 0 1
2041 1 30.964600728247742 14.278017727574223 2.43746329895925 0 0 1
2028 1 34.59763700528066 13.202547127387025 0.5647570990960951 0 0 1
519 1 46.38594514464786 14.181391739032925 1.791085820549005 0 0 0
2135 1 0.4632916759408805 18.28208539339142 -0.10051417959431774 0 0 0
4158 1 0.13080413871863805 16.39224461082245 1.8691399986210913 0 0 1
1560 1 4.688020154249296 15.66052354195525 0.4168011974080936 1 0 1
55 1 5.653740579557954 18.08637917511827 1.6986411876970928 0 0 0
221 1 4.3692783550504215 24.18510904347057 5.285092046063748 0 0 0
2342 1 10.905906616345785 17.727173323428918 1.9329180998402906 0 0 0
607 1 17.010090101535052 17.57473825762985 0.4240163335294205 0 0 0
1877 1 18.427043047552473 18.4558521164856 3.0121675618872517 0 0 1
3862 1 23.459843778732978 20.469735388399833 -0.13634693474905646 0 0 1
577 1 27.591074282824177 16.444327920108037 0.45400840374514306 0 0 0
1416 1 28.691561280265326 18.39100575034787 2.0136837388346343 0 0 1
3591 1 32.56004745211558 16.531766496050544 2.8285091307227197 0 0 1
1996 1 35.15562103556492 15.843667569906707 1.5484177739001166 -1 0 1
2034 1 36.40948254877054 17.797664792411542 0.1538937725168461 -1 0 1
2510 1 39.19178317976689 17.5939394647534 -0.39609463390549615 0 0 0
2054 1 40.86966539921576 16.120572431326252 1.0308765074687234 -1 0 1
262 1 42.986552168732416 18.111635248501845 1.1602546008966945 0 0 0
2696 1 7.764239078921438 24.44335028210693 0.8175350888596473 0 0 0
168 1 47.465850731874426 18.193515380858354 0.0473124951273215 0 0 0
2404 1 49.077433277209465 18.145843510424907 2.315470449905798 -1 0 0
490 1 1.5309222720057822 20.274864657615424 1.1489146480590167 1 0 0
651 1 7.3716371513903045 19.53864941647882 0.1601331313195986 0 0 0
1869 1 13.539321991557287 18.54335038332493 2.7567206958118127 0 0 1
492 1 14.970172189261293 19.49982437438845 0.5368558804930832 0 0 0
1696 1 15.523125496597018 22.356425691995728 0.45607379323553454 0 0 1
549 1 20.19066018853401 20.13940702209408 1.5383154409634852 0 0 0
1950 1 23.833995616351803 21.072615406311165 2.547864725758612 0 0 1
47 1 46.06332473871058 15.90745710024676 -0.35267415309266636 0 0 0
1485 1 27.661196805876866 20.657057974384813 0.5815434055760582 0 0 1
90 1 31.515283626881743 18.947291527736688 2.1812989603908366 0 0 0
526 1 4.633048304197105 15.107191741709912 16.07914346356648 0 0 0
2672 1 49.00262947391816 24.047856973964905 10.276443251964299 0 0 0
50 1 36.56072063623152 20.355094225298032 2.7073018270533145 0 0 0
1865 1 40.68209437187794 19.68749382914809 0.6371198736060986 0 0 1
154 1 45.07112616774012 19.864807732503696 -0.057123882146581484 -1 0 0
2316 1 50.466542185758186 20.484445158938644 2.722165320760282 -1 0 0
3936 1 6.964310094848532 1.0055762187936956 -0.021587286276267492 1 1 1
3641 1 1.2307639517655486 23.224322577043633 2.5302963668229546 1 0 1
2502 1 22.024206800985027 18.157657829750097 0.1976552147527627 0 1 0
325 1 6.038034854024808 22.45952536649545 1.2663980613765013 0 0 0
3681 1 10.942232507413866 22.5145274389125 -0.2822009225800067 0 0 1
78 1 1.510208675961298 9.30728173110616 16.23125209286812 0 0 0
2048 1 19.84357000869896 22.996149289234904 1.4853217728433967 0 0 1
2387 1 22.544297347120096 23.479895530065065 1.2808659766936121 0 0 0
2485 1 26.382192141605806 21.823629546751953 2.6400471522398594 0 0 0
2 1 29.356897468800714 22.810137298063246 0.16250099304383703 0 0 0
4174 1 31.017670234006317 24.477201914167523 1.5620935657476358 0 0 1
3496 1 33.4202053626845 23.456783342871862 2.4855573872917707 0 0 1
4144 1 34.91830182159333 23.386640125675374 0.08954080890218996 0 0 1
1459 1 37.68724022243073 23.844890705564712 0.5436133588299763 0 0 1
2555 1 38.43842317649221 22.214442635821356 2.707420331376362 0 0 0
3638 1 44.11347930081736 23.988725331829066 1.3629435828659306 0 0 1
2455 1 45.730467442220714 21.535870482151953 2.0446626516614654 0 0 0
132 1 26.161803386719203 24.810691067593275 2.2934972236833886 0 0 0
500 1 48.352221508710215 22.27961751239401 2.1507699104666864 0 0 0
1788 1 49.10216936612322 23.298388158298742 -0.4334383823848017 0 0 1
174 1 2.1078367006379524 0.5414813987044405 4.070783322973454 1 0 0
1915 1 8.662722944038533 0.6388642264575852 5.089565552833961 0 0 1
97 1 11.389703178167668 0.2863203128119405 5.061159166527341 0 0 0
1477 1 13.11684949463173 2.334181884348435 5.956488829677825 0 0 1
556 1 15.504410319257971 1.7479936360526263 4.698545273015514 0 0 0
120 1 48.55463749321348 23.471303141882657 14.636263631916629 0 0 0
474 1 19.669695113977145 2.2240861515737116 3.7362287351842776 0 0 0
1405 1 20.64143646400874 0.11891240897332123 5.631688173781166 0 0 1
2716 1 25.674238232733163 0.852272698444331 4.038735094985024 0 1 0
399 1 29.476643575043994 24.708722312350233 14.482624915767477 0 0 0
576 1 29.81291404666302 2.079482984650417 3.6005275706705273 0 0 0
612 1 32.160803893796185 2.5470316864034013 2.562089963387328 0 0 0
2162 1 35.20779077721781 1.2498720202770237 5.97298655214901 0 1 0
2395 1 37.482582898989065 0.6533132655001375 4.503839276121091 0 1 0
167 1 42.50817078362785 2.197956568071951 2.843828356082749 -1 0 0
2469 1 42.24933625482839 -0.14974216830100123 4.031711208813531 0 1 0
1597 1 3.0918415655068414 2.789789438659983 0.07074493882676747 0 0 1
671 1 47.197608566860964 1.7496730801078688 3.3307898398180997 0 0 0
280 1 50.04758508433423 1.880846472331923 3.265365015757754 -1 0 0
256 1 1.5291811524012116 4.425004319070769 5.3366235976223795 1 0 0
259 1 3.7289143374504885 2.84232213047315 5.228530635514973 1 0 0
123 1 5.725985383127126 3.972136269870507 3.5069967745599744 1 0 0
591 1 8.499048988049216 3.231360125979951 3.91559886074052 0 0 0
98 1 9.270328357123864 4.561387670186838 6.291358436606506 1 0 0
563 1 13.594215268395718 5.037545272630232 5.224337009212963 0 0 0
572 1 17.791866307884952 3.510988029364519 4.863202787601699 0 0 0
291 1 21.755201647328498 3.6632143898118654 2.67861169178772 0 0 0
413 1 22.90718658654518 5.327449014348034 4.752568622842271 0 0 0
482 1 28.791850246015635 4.5493953341169835 3.8444859590901572 0 0 0
58 1 33.91353795278641 3.4474249006119804 4.604034526103018 0 0 0
2701 1 37.89356362900932 3.3427118243509617 4.058065361940074 0 1 0
2814 1 38.49196727706881 4.6273449856823525 6.315280897034934 0 1 0
2630 1 43.871468804250824 4.569530428269378 3.760385455045137 0 1 0
2769 1 46.50531283344638 4.140018059723888 2.762729299671708 0 1 0
73 1 48.58512385186525 2.8355427123177335 6.213711164964842 0 0 0
619 1 48.112157402600786 5.41283900026563 4.623964517935447 -1 0 0
704 1 2.148366616246701 7.20137159931404 5.780734307557245 0 0 0
657 1 4.197843641918084 7.924933676858009 3.9438834419215807 0 0 0
947 1 6.269330573787978 6.433471214030138 4.266319060832909 0 0 0
8 1 7.211247421284122 6.30384110784155 6.898927285707987 1 0 0
1577 1 10.64649289459775 8.027256137059071 4.305763206363224 0 0 1
2233 1 11.246087855329211 6.275577685434621 6.118749627156742 0 1 0
1969 1 15.56962100609977 6.743021939036052 6.148461662399775 0 0 1
429 1 17.943075684132573 6.7340735275484835 4.76025308737601 0 0 0
1158 1 22.007880639908457 7.931312083108319 5.620151881963552 0 0 0
1945 1 24.52168503545259 6.407258356665995 2.634781393525825 0 0 1
105 1 26.298802072950174 7.905170209814495 4.189623157945613 0 0 0
469 1 28.788005028949872 8.877376510580335 3.098525879739628 0 0 0
2318 1 30.425263037050787 6.698503651495236 3.296646706987786 0 1 0
696 1 31.96698805038343 6.988881935779522 5.722046493637715 0 0 0
348 1 33.75698240870713 8.98977456544721 6.0928551939223645 0 0 0
35 1 36.499946255609956 7.449464387756294 3.0127731342012622 0 0 0
2698 1 40.04166210392793 7.064079736000469 5.229358462345287 0 1 0
393 1 43.663590074499325 7.251252712652205 3.0570539858959993 0 0 0
1851 1 50.191637899286235 9.134704351226706 2.9788673565168398 0 0 1
475 1 -0.11677536055281124 8.617989575778534 5.3973604987652495 1 0 0
263 1 4.6179992911113095 10.363004875288157 5.13306969160385 0 0 0
631 1 7.236338896130834 11.409604237033578 4.392665794854407 1 0 0
1699 1 9.404478065306746 10.012774702967008 6.077196391143899 0 0 1
1886 1 12.232981309792317 10.32204593650917 3.8211339611924178 0 0 1
946 1 14.549515724424621 9.239137919372288 5.686922086027967 0 0 0
1695 1 16.856331279991615 10.594521018980036 5.712184539468752 0 0 1
1790 1 18.167731087836057 9.254067693118248 3.643184201297445 0 0 1
686 1 20.82672911346241 9.29876412831995 3.2313722149360946 0 0 0
112 1 21.876074035405658 11.86036108220339 3.07410746405244 0 0 0
560 1 20.94791948116731 11.874637248085376 5.934259767775691 0 0 0
2406 1 25.11975895686236 9.994580976636595 5.582218028945169 0 1 0
143 1 29.85142005011338 10.96361299556188 4.816456486938059 0 0 0
662 1 34.29674281855522 9.09245653414043 2.734563673286162 0 0 0
2069 1 32.681083302722556 11.234309519627585 4.4316741548351875 0 0 1
503 1 37.737207503051025 11.564876978459669 4.1119454351131095 0 0 0
1567 1 38.301301576843215 9.547905082224261 5.836449675367625 0 0 1
1729 1 39.868166402718714 12.057422099979666 2.602147462113138 0 0 1
2795 1 43.53095637219383 9.670732428272986 4.626163967931583 0 0 0
91 1 42.48673904132755 12.088613942992707 3.688041369490449 0 0 0
9 1 46.32868546047352 9.67169328627325 5.129400029997089 0 0 0
341 1 47.866623812279414 10.221434765578977 2.883373443023563 0 0 0
416 1 2.532171555012656 12.083615973252256 4.584367860749133 0 0 0
707 1 3.456306699205542 14.81884049347103 5.295988181998668 1 0 0
517 1 6.165914452122709 13.702705406418964 5.483837889186072 0 0 0
459 1 8.093531483550516 14.752531946574123 3.9802349995580375 0 0 0
159 1 10.433144526676218 14.547839139800615 5.279450438578325 0 0 0
495 1 9.802077213540437 12.62072325841446 7.171880886063206 0 0 0
1761 1 14.94924786080158 14.16088729829288 3.186178238743674 0 0 1
1512 1 16.803946827131803 13.270352202296834 4.8250159918671764 0 0 1
1808 1 19.52715346202046 13.436822923491976 3.634753229230185 0 0 1
705 1 24.488413433681764 12.021975135700066 4.2099507135536465 0 0 0
687 1 29.05804629772286 13.464038505795076 4.1321912355829395 0 0 0
2082 1 33.832163106145956 13.448352324052125 5.546698645418715 0 0 1
346 1 36.465521406189055 13.820396285210725 5.0844995299784985 0 0 0
10 1 37.12875240976467 15.883002835976779 3.4218183255955337 0 0 0
675 1 39.68600762776546 14.809579392308347 3.098275843985772 0 0 0
663 1 40.848392045357244 14.916443974401906 5.5831970486237665 0 0 0
515 1 42.830700776757126 13.164323142445289 6.225421657255619 0 0 0
471 1 48.740102372106165 12.876467860697145 2.7209308317534227 0 0 0
244 1 49.366187741506195 13.440746766424185 5.572827242973289 0 0 0
381 1 1.9831229532734254 16.873625761209368 3.99749364360704 1 0 0
136 1 6.939481841930596 17.123127475718924 3.9630127249441074 0 0 0
1815 1 9.13029038967342 18.602001964848814 3.6735464642480906 0 0 1
155 1 13.9614840897142 16.418225502725658 4.4870421271357595 0 0 0
2325 1 15.868948095797158 17.14476908418422 6.300071955536034 0 0 0
333 1 20.029346183667766 16.179575546988108 3.8968914461501436 0 0 0
52 1 22.388297346476776 16.718087232769623 2.7565309423972786 0 0 0
2679 1 24.919809385074007 16.181446503516465 3.6581572269325164 0 0 0
95 1 27.185144282951036 18.150542270189604 4.459101538651185 0 0 0
1852 1 33.28112715799419 16.24770824823191 5.556505510532296 0 0 1
2137 1 37.58184413290263 18.51576533277211 4.347326337155854 0 0 0
669 1 42.03652147519786 17.641061474171718 5.613967670171257 0 0 0
485 1 43.842732452259625 18.38526684249708 3.701167683190299 0 0 0
108 1 45.60211174387922 16.06147434990247 4.2245624530491215 0 0 0
758 1 47.78984585726417 17.83124624128395 4.732819180596062 0 0 0
62 1 -0.37769310268988815 20.524286696032043 5.31320374582218 0 0 0
1985 1 3.335304496285059 19.00844567965496 3.0045480545008667 0 0 1
2230 1 4.059395553851406 20.929272225384064 4.679078233966094 0 0 0
1654 1 7.802584673070433 20.880097186342486 3.2053396375149346 0 0 1
1641 1 12.726340293752491 20.875290815177976 3.7801477519374282 0 0 1
421 1 17.685665708052102 19.07119020259485 5.533603719897406 0 0 0
2369 1 17.12108533930502 21.84710333775309 4.775083258016199 0 0 0
1609 1 20.543926248228765 19.01574038895928 6.555352165848559 0 0 1
2068 1 21.782623494952198 19.295436692585486 3.8878763819544107 0 0 1
2071 1 24.258572183280627 18.96019279186539 5.846220578455692 0 0 1
2729 1 27.46248740541962 20.88625282871342 5.112115688406907 0 0 0
2197 1 31.980503924769895 20.11766965545085 4.524814723929866 0 0 0
303 1 34.31344290339719 21.405445577942654 4.135023165759045 0 0 0
2452 1 40.873975083710704 20.761256954284427 3.3694820805030306 0 0 0
518 1 39.812170960005474 19.28870143227923 5.42965524755577 0 0 0
2056 1 44.75369892296426 20.76249850405997 4.545728572427046 0 0 1
601 1 1.6122040052635187 22.278965941987536 5.076533793750849 0 0 0
2200 1 28.944403887626144 -0.5987666184772096 6.825539003036 0 1 0
2632 1 4.0154516343721545 23.9146901417438 2.4868227640193714 0 0 0
4016 1 6.728153068617761 21.867497297829903 5.358092874975613 0 0 1
1816 1 10.526388537308119 21.831664847868936 2.3261093411424048 0 0 1
2188 1 10.893803693329497 24.145516879958535 3.6240712176043886 0 0 0
454 1 14.932851649542863 22.598985258301294 3.194323648155634 0 0 0
533 1 19.231484468858916 23.538706254622184 4.140268774826091 0 0 0
512 1 23.45162292965358 23.039935141160928 4.97856100333609 0 0 0
1352 1 1.0716912630797797 24.918539916089 15.942592056541574 0 0 0
3652 1 30.252401514407154 24.324960093115823 4.28411214479684 0 0 1
1916 1 29.903340161087414 22.050806450096744 5.294607658594958 0 0 1
698 1 38.1250541157723 24.029428015214915 4.813694062260769 0 0 0
157 1 43.79022029893923 21.600315101622428 15.29290105466561 0 0 0
204 1 42.39258197092968 23.160069920470566 3.2720657749813413 0 0 0
361 1 43.993696053895036 22.91521395705113 5.789820366776772 0 0 0
30 1 48.39932721714426 24.180990368184148 4.842701017153757 0 0 0
2201 1 5.7763793640931365 0.6508972058357625 8.42577124723166 0 1 0
2609 1 8.364252520542951 0.6356861750901497 7.775249411124447 0 1 0
305 1 13.825896329387051 1.9727243258125546 8.443209585520634 0 0 0
542 1 14.223737688560908 16.077084925148153 16.221513604531896 0 0 0
1958 1 21.149798026202436 2.1137451254128616 7.420782089973674 0 0 1
1786 1 21.610480447888673 0.7217855331622802 9.799229277306056 0 0 1
1983 1 25.698654603095253 2.3669527239620036 6.4920127747738405 0 0 1
82 1 27.06195814646156 1.0604256194483754 8.721541954378543 0 0 0
1245 1 31.102765589196764 1.7623768361264034 6.082853722181763 0 0 0
2347 1 46.19908900300564 24.426178418176413 6.710329494007649 -1 0 0
2368 1 34.611406729039714 1.6623422575255797 8.607042690262452 0 1 0
220 1 32.52566797007694 0.5407155078075234 9.86781924254172 0 0 0
2225 1 41.076638453732 0.39678252789190416 6.7289678795452845 0 1 0
875 1 46.04454882296193 2.0162808302117723 6.574068085900828 0 0 0
2365 1 45.418456849625926 1.3806991320289863 9.141132634493674 0 1 0
314 1 50.06522730447577 0.9753887119667879 8.199237922977204 0 0 0
455 1 0.062173088883888394 3.75119343788566 7.6965921329462965 1 0 0
3024 1 1.9314364048623092 3.0343277372788213 9.58303290543985 1 1 0
245 1 4.319221525554323 3.0479561623098617 8.234304589789772 0 0 0
321 1 5.736265799387645 5.061398683966136 8.92217368991393 0 0 0
195 1 9.434673307069435 3.0865348113257824 8.957714971032006 0 0 0
1526 1 15.573278891850794 5.045721781825365 8.27416901396404 0 0 1
114 1 16.454083163842032 2.34430659202814 9.521096799104914 0 0 0
1745 1 18.663097822404374 3.3861483031876043 7.569649343369035 0 0 1
2360 1 23.64481896194361 4.96964483363762 9.471536420194038 0 1 0
1131 1 23.528144358123303 3.831757406692848 6.861824491216609 0 0 0
479 1 28.099502222995028 4.122725442938495 6.445169140451391 0 0 0
2810 1 29.57012942259246 2.8111100783450382 8.47287561815001 0 1 0
285 1 32.24196360953438 4.544776519938561 6.611045224380259 0 0 0
1939 1 34.160950859134175 4.251472488215194 8.573836975812164 0 0 1
3580 1 40.04817815081316 2.9671647298631187 7.6621758756957306 0 1 1
2029 1 42.280741318072245 4.417288529766262 7.849606425278928 0 0 1
2303 1 44.396001199917535 4.318012945145862 6.3960711327317235 -1 1 0
546 1 3.0368280946803474 8.30338416325457 8.143496166325074 0 0 0
1082 1 11.613813668515016 7.6789600309177715 8.543908517189937 0 0 0
306 1 19.599448573815796 7.775816669404934 6.639792555832221 0 0 0
3810 1 19.30770551565649 6.047181602163472 8.624356799640823 0 1 1
115 1 25.97508516732263 6.354844017923464 9.208073041979807 0 0 0
2797 1 27.37139924635617 6.71521309812331 6.713484709857215 0 1 0
2242 1 29.8864629457223 7.517173992072765 7.5126654395409 0 1 0
491 1 29.908960702292266 5.408050994639573 9.211214548802875 0 0 0
96 1 36.19740712256869 7.818240737004089 5.824267931754545 0 0 0
489 1 36.42098499800272 5.691130083533425 7.9313537509151555 0 0 0
358 1 41.35772840200701 7.1784635307022855 7.6215230035558115 0 0 0
401 1 39.79825163505686 8.253443427305974 9.412786933331207 0 0 0
948 1 44.81209474087153 8.186797050775807 8.900847504215067 0 0 0
446 1 45.93072227329763 5.79110772675142 8.09313805651368 -1 0 0
222 1 47.390114485824995 7.329539139489604 6.488694166848182 0 0 0
169 1 49.80692744149604 5.859193283317444 8.897683807876827 -1 0 0
57 1 49.701669675974614 8.445009479028368 7.727183661622002 -1 0 0
267 1 0.16160605574175202 11.496471271878574 5.961488683030262 1 0 0
278 1 0.8553553817232935 9.188474057355208 9.120282849466191 0 0 0
388 1 0.6357456317509442 11.86574171303447 8.810863303568865 1 0 0
476 1 5.172534436535652 10.124465947459944 7.711647100105413 0 0 0
239 1 7.889763494864972 8.890588142528014 8.07021432471719 0 0 0
135 1 9.776086986673924 8.979904980056926 10.060487400080456 0 0 0
265 1 13.374705510838735 9.648142747185025 8.223298150067004 0 0 0
447 1 12.149639720141902 12.083924699580988 8.708648355343334 0 0 0
184 1 18.863456936472733 10.38295630425444 7.2728916879380225 0 0 0
866 1 17.648141503878563 10.990775540226766 9.386698704027877 0 0 0
387 1 22.892590411464845 10.054957875271937 7.203301751660052 0 0 0
699 1 26.483069893173493 10.725161530092436 7.931849290485754 0 0 0
1775 1 29.37495377914439 10.380930560258895 7.775244227874833 0 0 1
571 1 33.45407916866614 9.754428549899355 8.600790802417544 0 0 0
456 1 38.46103192567392 10.397191880962707 8.461993887802599 0 0 0
69 1 42.92607317354458 9.35496038802626 7.264906460051578 0 0 0
359 1 42.26711429057396 11.570836244569254 8.361150788541156 0 0 0
693 1 48.293002299342106 10.631260244470317 8.934540694680079 -1 0 0
2657 1 5.443795549561994 12.170807210271873 9.562656618553328 0 0 0
214 1 7.364052485902782 13.575028898552159 8.002338543176542 0 0 0
1561 1 9.498584609608397 14.250006289725688 9.99251044915286 1 0 1
592 1 16.735462323543704 13.65656093768031 9.261837247093473 0 0 0
452 1 17.41616515973258 15.105647401983527 6.844526306717896 0 0 0
656 1 21.924238522028002 14.05088430111844 7.248334080268368 0 0 0
296 1 24.36248137358894 14.613928376394838 5.710048705757501 0 0 0
329 1 26.268713247559095 13.601147347280607 7.589441793379715 0 0 0
1667 1 28.75224439312035 14.336987776267268 6.949184335719417 0 0 1
614 1 30.74311009288373 12.968514202064444 8.837957859605549 0 0 0
504 1 33.42394471338356 12.495028795564863 8.185217391410369 0 0 0
271 1 35.046483302676165 14.615635841225485 9.747067703821017 0 0 0
1836 1 36.667973592465586 15.32255370263745 7.525603790913632 0 0 1
122 1 39.76220183626262 12.836442354062685 8.985086397098469 0 0 0
555 1 39.37077305657698 15.219204184097885 7.928855936676234 0 0 0
559 1 47.0232123871143 12.105064412678736 6.692947071249822 0 0 0
838 1 45.49636722230565 14.523224763206427 6.426526336049597 0 0 0
170 1 0.31964771035159345 17.852190007611142 5.839267527891868 0 0 0
1180 1 1.9894255800507081 17.8937687723603 8.15526831704336 1 0 0
2553 1 3.3993621917220382 15.50932679605236 7.8758424786578445 1 0 0
2633 1 6.0089958462483315 16.055060070063995 8.172988517654165 0 0 0
189 1 11.949507325337235 16.727771990648307 6.704549998943351 0 0 0
466 1 10.154049126069857 18.88964313278569 6.027617170892756 0 0 0
2296 1 11.627146882489795 15.847202579598843 9.275148882886905 0 0 0
2541 1 14.514316404164857 18.253056965794933 8.361156866719517 0 0 0
236 1 19.994563212520323 15.956982073139333 7.036271003902636 0 0 0
483 1 19.393637763562523 17.12448826070268 9.447332264601696 0 0 0
543 1 24.38313113876023 16.896518345934833 7.5752491082341304 0 0 0
1772 1 29.01433231169804 17.023567280460867 6.297190696253602 0 0 1
302 1 27.078595720246792 16.856524717861028 8.588471825193873 0 0 0
2043 1 31.512180551803713 18.046042723494217 6.172447461070677 0 0 1
337 1 35.520419688076316 17.69492928783249 6.313319529692471 0 0 0
636 1 40.39401914533656 17.294127614655906 9.303943366967676 0 0 0
71 1 42.794320434247865 17.64950575323971 8.28243315065551 0 0 0
428 1 45.08538474100138 16.01996171600498 8.483245817180249 0 0 0
648 1 47.94902390763508 16.59972764222675 8.98974038203436 -1 0 0
158 1 49.333389179911464 16.123793918588948 6.5089831329444285 0 0 0
340 1 3.7081078205317253 19.995684449190886 7.419268981522118 0 0 0
3887 1 5.616870734240169 21.79725653939101 8.530508397798231 1 0 1
2755 1 5.792443580496485 18.218893718649046 6.39847823388888 0 0 0
2411 1 11.727852061573115 21.082913782495442 6.157319049751526 0 0 0
672 1 14.096019780672334 20.797467479529256 7.75165666907893 0 0 0
463 1 20.23715506238354 21.554401875526363 7.478865222443838 0 0 0
231 1 22.15199694235305 21.225860765410882 9.327265974119193 0 0 0
3899 1 24.07415079106846 21.216137258006473 7.1128159448539 0 0 1
350 1 27.640587597046967 19.814205920054842 9.266095332388486 0 0 0
2073 1 32.05747245686352 18.312718573823602 8.903745166824082 0 0 1
339 1 34.67950448819438 19.577644525738393 8.349443393947544 0 0 0
1631 1 35.010801640326264 21.688699877659236 6.782072386392607 0 0 1
102 1 39.851699031456704 20.922721566920508 7.644369236543739 0 0 0
42 1 43.59235051717913 20.036446731512964 9.185810838915376 0 0 0
2686 1 42.15682142572639 21.981027669395985 7.949898908412925 0 0 0
645 1 46.97897845999066 20.10648634180109 5.978948206470724 0 0 0
498 1 46.199137194977794 20.288287141040527 8.573698671047193 0 0 0
17 1 48.927823603049674 21.877256144103935 6.394501324594167 -1 0 0
356 1 1.504089246857649 23.757183096872758 7.408658487145207 0 0 0
2482 1 3.72703505049326 23.851480605009534 9.416980768256716 0 0 0
2807 1 38.98947027362935 3.0562342011924177 0.18769827835599073 0 1 0
666 1 7.817273133261089 19.906539065423765 7.308391983060614 1 0 0
2337 1 10.550866042134826 23.580629297980494 6.377188502190055 0 0 0
246 1 16.205460163042904 22.63073300047499 7.213580933733711 0 0 0
60 1 18.236018623596816 22.80228980341046 9.082935576595657 0 0 0
3655 1 21.109242517514534 23.654379927500255 6.019708695978498 0 0 1
3519 1 28.066814330701515 24.989255244903433 11.424616267769098 0 0 1
2060 1 26.83388660874286 21.774151522680373 7.539639178904141 0 0 1
3441 1 8.414972386742587 -0.5977401226831915 13.950747436896046 0 1 0
298 1 31.065762851603758 22.2026030173154 7.766622584605086 0 0 0
694 1 33.5194112538605 23.914018802783875 7.738423061882065 0 0 0
2608 1 37.406501418670416 22.588470471617 6.999685558540555 0 0 0
281 1 49.05397852143648 5.875828895306116 -0.0722748797090278 0 0 0
161 1 41.460801431358476 24.05588380259047 9.525873115196047 0 0 0
622 1 16.501876799850546 12.454342967430495 15.834242853471668 0 0 0
110 1 46.72752687584354 22.946566851279066 8.925131094992652 -1 0 0
2802 1 -0.45903903668567647 22.417168016359128 8.688790390244414 0 0 0
1098 1 1.4002372537102228 1.0454562171616602 11.286480292247807 1 0 0
5 1 3.180533215335577 -0.1460144283994364 12.847339015310553 0 0 0
282 1 5.547053753532698 0.45114120205712505 11.101727911082719 0 0 0
2436 1 11.7690642076517 1.4960907103175192 12.185243238164105 0 1 0
1433 1 32.779863194671634 0.07052753383728594 1.3985574878222349 0 0 1
2312 1 28.07540827545999 -0.22383945145084955 3.741021381390402 0 1 0
1392 1 18.52389290365428 1.0023883234796926 12.955409834934454 0 0 0
2583 1 23.723660375959327 0.8869390406514532 11.484597187529348 0 1 0
2693 1 19.4927301154957 22.557325686626566 15.14919250722141 0 0 0
472 1 30.37990134641453 2.1776217922041905 11.115010839396309 0 0 0
3140 1 35.581624828206856 0.817482097827616 13.097417709059137 0 1 0
581 1 36.549792047750316 0.7938817254662385 10.23050489378704 0 0 0
162 1 38.899780500773545 2.2845245761164277 10.047921973593828 0 0 0
1278 1 41.2581640534887 1.1208207672612864 10.98422246580019 0 0 0