
# Create simulation box of size 50 x 50 x 50 Angstrom
#
lattice	            sc 1
Lattice spacing in x,y,z = 1.0000000 1.0000000 1.0000000
region 	            all block 0 50 0 50 0 50 units box
create_box          1 all
Created orthogonal box = (0.0000000 0.0000000 0.0000000) to (50.000000 50.000000 50.000000)
  1 by 2 by 3 MPI processor grid

# fill box with 4175 randomly distributed atoms
#
create_atoms        1 random 4175 63782 all
Created 4175 atoms
  create_atoms CPU = 0.001 seconds
mass                1 18.015

# Define potential
#
pair_style          sw
pair_coeff          * * ML_mW.sw mW
Reading sw potential file ML_mW.sw with DATE: 2019-02-27

# Run minimization
#
minimize            1.0e-8 1.0e-8 10000 1000
WARNING: Using 'neigh_modify every 1 delay 0 check yes' setting during minimization (../min.cpp:187)
Neighbor list info ...
  update every 1 steps, delay 0 steps, check yes
  max neighbors/atom: 2000, page size: 100000
  master list distance cutoff = 6.0032907
  ghost atom cutoff = 6.0032907
  binsize = 3.0016454, bins = 17 17 17
  1 neighbor lists, perpetual/occasional/extra = 1 0 0
  (1) pair sw, perpetual
      attributes: full, newton on
      pair build: full/bin/atomonly
      stencil: full/bin/3d
      bin: standard
Per MPI rank memory allocation (min/avg/max) = 4.255 | 4.258 | 4.261 Mbytes
Step Temp E_pair E_mol TotEng Press 
       0            0    7792709.3            0    7792709.3    5898794.3 
     630            0   -45180.336            0   -45180.336   -154.07449 
Loop time of 1.16707 on 6 procs for 630 steps with 4175 atoms

99.3% CPU use with 6 MPI tasks x no OpenMP threads

Minimization stats:
  Stopping criterion = max force evaluations
  Energy initial, next-to-last, final = 
      7792709.32924461  -45180.0188663597   -45180.336116598
  Force two-norm initial, final = 2.0191930e+08 4.9721331
  Force max component initial, final = 1.0948746e+08 0.73126211
  Final line search alpha, max atom move = 0.053306038 0.038980685
  Iterations, force evaluations = 630 1000

MPI task timing breakdown:
Section |  min time  |  avg time  |  max time  |%varavg| %total
---------------------------------------------------------------
Pair    | 0.87304    | 0.99199    | 1.0498     |   6.3 | 85.00
Neigh   | 0.024364   | 0.02475    | 0.025458   |   0.3 |  2.12
Comm    | 0.072713   | 0.13027    | 0.24985    |  17.6 | 11.16
Output  | 0          | 0          | 0          |   0.0 |  0.00
Modify  | 0          | 0          | 0          |   0.0 |  0.00
Other   |            | 0.02006    |            |       |  1.72

Nlocal:        695.833 ave         704 max         685 min
Histogram: 1 1 0 0 1 0 0 1 0 2
Nghost:        1494.17 ave        1515 max        1468 min
Histogram: 1 1 0 0 0 0 1 1 1 1
Neighs:        0.00000 ave           0 max           0 min
Histogram: 6 0 0 0 0 0 0 0 0 0
FullNghs:      19997.0 ave       20462 max       19320 min
Histogram: 1 1 0 0 0 0 0 2 0 2

Total # of neighbors = 119982
Ave neighs/atom = 28.738204
Neighbor list builds = 26
Dangerous builds = 0

# Add velocity/set timestep
#
velocity            all create ${TEMP} 120598 rot yes dist gaussian
velocity            all create 210 120598 rot yes dist gaussian
timestep            5.0

# Define output
#
compute	            1 all msd
thermo	            100
thermo_style        custom step temp press vol etotal ke pe c_1[4] density

# Neighbor lists
#
neigh_modify        delay 0 every 1 check yes

# Set fixes
#
fix                 1 all momentum 10 linear 1 1 1 rescale
fix                 2 all nve
fix                 3 all temp/csvr ${TEMP} ${TEMP} 500.0 928347
fix                 3 all temp/csvr 210 ${TEMP} 500.0 928347
fix                 3 all temp/csvr 210 210 500.0 928347
fix                 4 all press/berendsen iso ${PRES} ${PRES} 1000.0 modulus 20000
fix                 4 all press/berendsen iso 0 ${PRES} 1000.0 modulus 20000
fix                 4 all press/berendsen iso 0 0 1000.0 modulus 20000

# Run 0.5 ns equilibration
#
dump                1 all custom 1000 eq.${NAME}.dump id type x y z vx vy vz
dump                1 all custom 1000 eq.liquid_density_MLmW.dump id type x y z vx vy vz
run                 100000
Per MPI rank memory allocation (min/avg/max) = 3.506 | 3.508 | 3.511 Mbytes
Step Temp Press Volume TotEng KinEng PotEng c_1[4] Density 
     630          210    801.42152       125000   -42567.537    2612.7992   -45180.336 2.7295415e-33   0.99914793 
     700    134.20794   -11.456779    125461.47   -41765.706    1669.8019   -43435.508   0.24261063   0.99547292 
     800    164.53509   -134.01164    125547.91   -41042.035    2047.1294   -43089.165   0.56276328   0.99478752 
     900    182.96188    38.225433    125246.06   -40636.903    2276.3937   -42913.296   0.93673072   0.99718501 
    1000    194.18194   -63.835929    125443.27   -40367.966    2415.9925   -42783.958    1.3118419   0.99561729 
    1100    201.68471    57.180385     125441.3   -40216.104    2509.3412   -42725.445    1.6976225   0.99563295 
    1200    201.43177    117.08466    125554.08   -40249.464    2506.1942   -42755.658    2.0484886   0.99473858 
    1300    205.86219   -253.80973    125596.48    -40239.29     2561.317   -42800.607    2.3642913   0.99440276 
    1400    206.00452    116.66785    125421.76   -40265.096    2563.0878   -42828.184    2.6352995   0.99578809 
    1500    204.50059    79.123357     125474.6   -40231.278    2544.3761   -42775.654    2.9226906   0.99536875 
    1600    211.95371   -120.05784    125639.18   -40152.765    2637.1071   -42789.872     3.265116   0.99406481 
    1700    210.74618   -100.27465    125515.75   -40201.639    2622.0832   -42823.722    3.5712955   0.99504238 
    1800    205.83273    167.80244    125738.92   -40293.321    2560.9505   -42854.271    3.9167884    0.9932763 
    1900     210.4787   -77.720503    125882.06    -40290.54    2618.7552   -42909.295    4.2109848   0.99214684 
    2000    213.24077    25.222813    126028.11   -40248.782    2653.1206   -42901.903    4.4859474    0.9909971 
    2100    211.29857   -132.30583    125967.83   -40219.123    2628.9559   -42848.079    4.8522363    0.9914713 
    2200    211.09256   -35.677823    126093.99   -40257.754    2626.3928   -42884.147    5.1549333   0.99047935 
    2300    213.50514    9.2536236    126394.58   -40246.265    2656.4098   -42902.675    5.3426031   0.98812383 
    2400    214.76879    213.26007    126774.56   -40288.669    2672.1321   -42960.802    5.5476005   0.98516207 
    2500    216.57229    59.852604    126965.09   -40278.195     2694.571   -42972.766    5.7756003   0.98368372 
    2600    213.02414   -62.436997    126744.38   -40254.548    2650.4253   -42904.973    6.0542117   0.98539665 
    2700    218.29072    21.492373     126592.8   -40294.209    2715.9516    -43010.16    6.3184701   0.98657654 
    2800    214.82238    61.195941    126863.85   -40293.853    2672.7988   -42966.652    6.4719228   0.98446874 
    2900    215.53565   -66.812024    127016.85     -40383.2    2681.6733   -43064.873    6.8703498   0.98328283 
    3000    211.97434    182.03646    127007.63     -40430.5    2637.3638   -43067.864    7.0373408   0.98335424 
    3100    210.81825    -156.0809    127026.59   -40408.999    2622.9799   -43031.979    7.2064523   0.98320749 
    3200    209.82845   -146.13227    126991.37   -40458.631    2610.6649   -43069.296    7.4585028   0.98348011 
    3300    212.59301   -184.03006    126804.45   -40448.163    2645.0612   -43093.225    7.5474711   0.98492989 
    3400    208.05684    65.740972    127020.18   -40489.489    2588.6226   -43078.112    7.7691033   0.98325706 
    3500    209.86974    209.55944    127114.37   -40510.056    2611.1785   -43121.235    8.0604629   0.98252846 
    3600    208.95535    124.53788    127225.43   -40568.128    2599.8018   -43167.929    8.1951038   0.98167083 
    3700    207.02821    106.03872    127520.53   -40632.939    2575.8245   -43208.763    8.3549074   0.97939908 
    3800    207.50597   -38.479667    127589.46   -40585.828    2581.7688   -43167.596    8.3677552   0.97886995 
    3900    207.69033    31.862731     127559.3   -40624.872    2584.0625   -43208.934     8.567565   0.97910141 
    4000    209.98048    120.49849    127754.37    -40646.85    2612.5564   -43259.407    8.8520018   0.97760639 
    4100    207.91297    77.295587    127926.01   -40645.507    2586.8326   -43232.339    9.0045089   0.97629476 
    4200    210.71921    9.1910709    127838.66   -40662.357    2621.7476   -43284.105    9.1123952   0.97696186 
    4300     207.6356    149.06406    127917.89   -40681.812    2583.3816   -43265.194    9.3002816   0.97635672 
    4400    206.82135    170.62663     127969.4   -40689.675    2573.2508   -43262.926    9.5342791   0.97596371 
    4500    206.70112   -73.982263    128252.11    -40703.19    2571.7549   -43274.945    9.7259534    0.9738124 
    4600    207.14431    92.897983    128185.12   -40753.311     2577.269    -43330.58    9.8711073   0.97432128 
    4700    213.97127      175.661    128156.46   -40682.391    2662.2094     -43344.6    10.011364   0.97453921 
    4800    208.97763   -11.111456    128342.53   -40737.931     2600.079    -43338.01    10.097784   0.97312629 
    4900    213.20254   -56.267433    128409.33   -40631.761     2652.645   -43284.406    10.218449   0.97262005 
    5000     213.8838    29.538565    128195.81   -40593.868     2661.121   -43254.989    10.311896   0.97424004 
    5100    210.78535   -89.903489     128111.8   -40657.484    2622.5705   -43280.055    10.472269   0.97487894 
    5200    210.62425   -35.864449    128292.65   -40705.556     2620.566   -43326.122    10.619869   0.97350464 
    5300    211.71301    -5.068073    128356.91   -40694.533    2634.1123   -43328.646    10.711525   0.97301729 
    5400    210.11511    41.562008    128413.35   -40755.591    2614.2315   -43369.822    10.813722    0.9725896 
    5500    206.85842   -150.41911    128367.78   -40768.088     2573.712     -43341.8    10.762917   0.97293488 
    5600    207.78582    27.945298    128166.95   -40789.069    2585.2507   -43374.319    10.852196   0.97445941 
    5700    205.93718   -7.9873642    128272.56   -40800.092    2562.2501   -43362.342    10.863908   0.97365716 
    5800    208.58154    127.62422    128259.92   -40836.874    2595.1509   -43432.025    11.093228   0.97375308 
    5900    207.75257   -47.326801     128332.6   -40875.164    2584.8369   -43460.001    11.160411   0.97320162 
    6000    207.97219   -103.96654    128273.55    -40884.71    2587.5694   -43472.279    11.297049   0.97364958 
    6100    210.59463    266.29805    128258.36   -40808.236    2620.1976   -43428.434    11.484904   0.97376489 
    6200    202.68752   -129.47736    128304.54   -40867.745    2521.8181   -43389.563    11.511614   0.97341446 
    6300    208.76478    43.804877    128281.65   -40837.654    2597.4308   -43435.085    11.649436   0.97358815 
    6400    210.88234    28.621796     128324.2   -40817.552    2623.7773    -43441.33    11.735261   0.97326531 
    6500    208.14868    10.312847    128550.06   -40774.707    2589.7653   -43364.472    11.871351    0.9715553 
    6600    208.90682   -128.72655    128656.22   -40851.742    2599.1981    -43450.94    12.028955   0.97075362 
    6700    208.71897   -93.692693    128712.27   -40933.082    2596.8608   -43529.942    12.278358   0.97033086 
    6800    209.80754    162.52273    128911.21   -40867.875    2610.4046   -43478.279    12.445325   0.96883342 
    6900    208.81282   -39.655998    128895.83   -40830.898    2598.0285   -43428.927    12.525298   0.96894906 
    7000    210.27899    30.874022    128928.73   -40823.498    2616.2704   -43439.768    12.711328   0.96870182 
    7100    210.34888    64.953964     129016.9   -40850.114      2617.14   -43467.253    12.797388   0.96803977 
    7200    204.01907      63.0398    129260.07   -40898.274    2538.3851   -43436.659    12.957187   0.96621865 
    7300    205.01119    46.711975     129329.9   -40963.894     2550.729   -43514.623    12.991622   0.96569698 
    7400    207.60896   -120.17301     129515.6   -40990.139    2583.0501   -43573.189    13.041527   0.96431233 
    7500    207.49336      92.5848    129528.93   -40968.264    2581.6119   -43549.876     13.28524   0.96421313 
    7600    208.47951   -110.33364    129555.56   -41060.612    2593.8815   -43654.493    13.335446   0.96401491 
    7700    206.69217     20.97641    129578.97   -40972.384    2571.6436   -43544.028    13.521847   0.96384075 
    7800    212.09291    140.88219    129514.23   -40953.196     2638.839   -43592.035    13.584475   0.96432256 
    7900    205.67437    -81.16553    129379.76   -41017.202    2558.9802   -43576.183    13.728791   0.96532477 
    8000    207.94468   -57.181933    129552.25     -40985.4    2587.2271   -43572.627    13.864071   0.96403955 
    8100    203.64124    54.678849    129536.87   -41056.302    2533.6842   -43589.986    13.853604   0.96415396 
    8200     207.0617    9.4561188    129465.86   -41051.294    2576.2412   -43627.535    13.909048   0.96468282 
    8300    205.14093   -112.00405    129531.29   -41036.757    2552.3431     -43589.1    13.864241   0.96419555 
    8400    207.04834    42.204308    129649.71    -40991.77     2576.075   -43567.845    13.899385   0.96331482 
    8500    212.08724   -75.897741    129599.93   -40906.998    2638.7684   -43545.767    13.982389   0.96368488 
    8600    207.90096   -46.460287    129410.97   -40927.274    2586.6833   -43513.957    13.947097   0.96509201 
    8700    208.36746    117.69199     129392.4   -40902.897    2592.4874   -43495.385    14.240203   0.96523049 
    8800    213.46818    32.611362    129499.18   -40943.497      2655.95   -43599.447    14.213416   0.96443461 
    8900    203.68808    82.034481    129579.14   -41012.443     2534.267    -43546.71    14.250763   0.96383952 
    9000    207.15165    252.21369    129667.55   -40960.087    2577.3603   -43537.447    14.379493    0.9631823 
    9100    206.33617    29.254476    129871.97   -41030.022    2567.2143   -43597.236    14.539911   0.96166625 
    9200    210.55961   -12.471316     130174.2   -40939.216    2619.7618   -43558.978    14.670375   0.95943353 
    9300    209.15852   -57.400542    130090.35   -40998.588    2602.3296   -43600.917      14.7815   0.96005192 
    9400    208.06974   -104.75423    130135.97   -40966.118    2588.7831   -43554.901    14.934885   0.95971539 
    9500    208.54948   -5.4091159    129959.66    -40984.06     2594.752   -43578.812     14.99372   0.96101735 
    9600    210.02085    24.837101    130252.14   -40956.021    2613.0587    -43569.08    15.181512   0.95885941 
    9700    215.31764    14.817925    130319.21   -40909.782    2678.9608   -43588.743    15.222676   0.95836594 
    9800    210.69923    173.51005    130236.29   -40980.651    2621.4989   -43602.149    15.342694   0.95897612 
    9900    209.53647    123.28954    130500.55   -41050.081     2607.032   -43657.113    15.439937   0.95703421 
   10000    207.02985   -16.117288    130377.34   -41056.852    2575.8449   -43632.697    15.389531   0.95793862 
   10100    207.34991    191.07353    130501.69   -41036.401    2579.8271   -43616.228    15.521876   0.95702585 
   10200    208.49176    31.452781    130524.43   -41095.163    2594.0338   -43689.196    15.629829   0.95685911 
   10300     207.1245   -14.777069    130695.54   -41107.267    2577.0225   -43684.289    15.702292   0.95560637 
   10400    209.63707     173.2235    130723.42   -41070.141    2608.2837   -43678.425    15.756021   0.95540258 
   10500    210.38224   -21.433536    130722.74   -41057.892     2617.555   -43675.447    15.868009   0.95540757 
   10600    213.60953   -97.466611    130660.59   -41003.916    2657.7086   -43661.625    16.014435   0.95586201 
   10700    210.72774   -80.887649    130752.99   -40994.128    2621.8538   -43615.982    16.140496    0.9551865 
   10800    212.96167    91.201709    130511.75   -40990.976    2649.6481   -43640.624     16.13442    0.9569521 
   10900    216.08102    35.472562    130494.67   -41028.823    2688.4586   -43717.282    16.277457   0.95707733 
   11000    213.30287   -56.550066    130248.69   -41031.792    2653.8932   -43685.685    16.319214   0.95888482 
   11100    210.20981    143.82702    130277.45   -41074.341    2615.4097   -43689.751    16.397017   0.95867313 
   11200    207.41709    75.497547    130431.89   -41067.665    2580.6629   -43648.327    16.352099   0.95753803 
   11300    207.42284     49.75789    130461.74   -41060.967    2580.7344   -43641.702    16.460085   0.95731888 
   11400    208.69549   -177.45988    130392.17    -41065.93    2596.5687   -43662.499     16.55569   0.95782967 
   11500    205.59399    159.52973    130239.56   -41093.722      2557.98   -43651.702    16.691223   0.95895203 
   11600    206.72286    49.037787    130203.71   -41103.259    2572.0253   -43675.285    16.674892   0.95921607 
   11700    208.79906    56.226922    130494.96   -40995.594    2597.8573   -43593.452    16.749591   0.95707524 
   11800    208.75533    50.954738    130487.72   -41064.576    2597.3132   -43661.889    16.757672   0.95712828 
   11900    211.09935    231.57233    130574.98   -41084.481    2626.4772   -43710.958    16.916414   0.95648872 
   12000    210.60789    73.197428    130601.71   -41089.482    2620.3625   -43709.845    17.280043   0.95629289 
   12100    214.02854    14.462577    130503.55   -41049.577     2662.922   -43712.499    17.509908   0.95701223 
   12200    211.40161    111.56602    130538.48   -41054.407     2630.238   -43684.645    17.473959   0.95675613 
   12300    211.40721    74.287738    130471.27   -41076.303    2630.3076   -43706.611    17.582183   0.95724901 
   12400     213.1321   -25.332155    130576.72   -41053.869    2651.7686   -43705.638    17.501127   0.95647596 
   12500    206.21634   -66.860137    130507.32   -41136.316    2565.7233   -43702.039    17.563499   0.95698458 
   12600     211.0361    54.751931     130503.4    -41055.18    2625.6902    -43680.87    17.689366   0.95701331 
   12700    209.40784   -23.528124     130453.2   -41030.532    2605.4317   -43635.963    17.838059   0.95738156 
   12800    211.28453    44.215843    130509.65   -41014.338    2628.7812   -43643.119    17.931272   0.95696747 
   12900    211.63341    18.627228    130292.35   -41063.232     2633.122   -43696.354    18.086389    0.9585635 
   13000    211.82837    63.743583    130242.57   -41011.594    2635.5477   -43647.142    18.114578    0.9589299 
   13100    216.15168    74.335309       130103   -41020.217    2689.3378   -43709.555    18.167423   0.95995861 
   13200    212.99769    113.16911    130271.97   -40946.507    2650.0963   -43596.603    18.192114   0.95871348 
   13300    215.65281    115.67158    130228.62   -40981.185     2683.131   -43664.316    18.329016    0.9590326 
   13400    209.44917    55.952563    130429.08   -41062.702    2605.9458   -43668.648    18.362444    0.9575586 
   13500     212.9586    272.46089    130484.14   -41105.271    2649.6099   -43754.881    18.322946    0.9571546 
   13600    208.38414    77.830422    130481.02   -41134.184    2592.6949   -43726.879    18.436144   0.95717745 
   13700    210.32503    87.430455    130433.05   -41135.325    2616.8432   -43752.168    18.624325   0.95752949 
   13800     211.5762    40.144633    130420.09   -41052.353    2632.4102   -43684.763    18.748718   0.95762467 
   13900    210.82008    16.569201    130447.55   -41103.865    2623.0026   -43726.868    18.708961   0.95742308 
   14000    213.34609   -19.877815    130481.11   -41091.842     2654.431   -43746.273    18.808224   0.95717682 
   14100    212.16968    89.032283     130585.9   -41111.451    2639.7942   -43751.245    18.874794   0.95640867 
   14200    207.71915    94.174355    130596.99   -41163.039    2584.4212    -43747.46    19.056988   0.95632751 
   14300    207.22936    27.551331    130554.58   -41210.508    2578.3273   -43788.836    19.078677   0.95663815 
   14400    213.54357   -8.9194631    130767.39   -41194.916     2656.888   -43851.804    19.031772   0.95508134 
   14500    209.27744    75.087168    130864.25   -41142.314    2603.8093   -43746.123    19.003095   0.95437443 
   14600    211.10963   -168.14721    130922.18   -41158.808    2626.6051   -43785.413    19.143717   0.95395215 
   14700    207.37208    54.439469    130970.09   -41202.428    2580.1029   -43782.531    19.142716   0.95360317 
   14800    205.45581   -70.626083     130896.3   -41241.676    2556.2609   -43797.937    19.287334   0.95414075 
   14900    207.31033    176.31943    130965.48   -41324.511    2579.3346   -43903.846    19.420348   0.95363675 
   15000    207.42733   -43.977143    131072.05   -41332.859    2580.7903   -43913.649      19.4228   0.95286135 
   15100    206.50037   -23.566849    130994.22   -41354.216    2569.2572   -43923.473    19.398606   0.95342753 
   15200    209.03015    -83.09767    130862.73    -41288.59    2600.7325   -43889.322     19.42659   0.95438552 
   15300    206.77845    5.7938912    130846.21   -41291.587    2572.7171   -43864.305    19.448559     0.954506 
   15400    210.28985   -65.723441    131026.98   -41280.598    2616.4055   -43897.003    19.531076    0.9531891 
   15500    208.45699   -98.327776    130965.37   -41278.464    2593.6013   -43872.066    19.567038   0.95363752 
   15600    213.04488    10.184533    130958.31   -41214.084    2650.6833   -43864.767    19.730839   0.95368894 
   15700    202.98042   -27.622513     130834.6   -41285.606    2525.4624   -43811.069    19.880597   0.95459066 
   15800    202.95076   -11.456937    130815.57   -41279.243    2525.0934   -43804.336    19.788948   0.95472954 
   15900    206.85371     -51.0377    130789.99   -41318.039    2573.6534   -43891.692    19.900965    0.9549163 
   16000    209.90494   -17.539627    130849.73   -41253.667    2611.6166   -43865.283    19.806945   0.95448033 
   16100    213.53851    118.28377    130750.13   -41207.263     2656.825   -43864.088    20.041319   0.95520737 
   16200    210.16494   -28.170377    130783.87   -41270.307    2614.8514   -43885.159    20.114862   0.95496096 
   16300    208.26947    83.810591    130897.02   -41286.559    2591.2682   -43877.827    20.326215   0.95413545 
   16400    214.26701    22.831203    130996.63    -41203.41    2665.8889   -43869.299     20.29442   0.95340994 
   16500    214.13621   -115.29627     131014.4   -41209.826    2664.2615   -43874.087    20.314201   0.95328066 
   16600    214.54683   -112.22323    130916.05   -41199.685    2669.3704   -43869.055     20.46896    0.9539968 
   16700    213.91827   -80.179082    130978.76   -41230.045    2661.5499   -43891.595    20.445029   0.95354005 
   16800    209.74671    73.278679    130905.37   -41230.235    2609.6478   -43839.882    20.410655   0.95407461 
   16900     211.8077    -193.1527    130959.03   -41200.695    2635.2905   -43835.986    20.317626   0.95368371 
   17000    208.42967    79.307396    131001.95   -41215.247    2593.2613   -43808.508    20.498475   0.95337121 
   17100    210.88196   -58.059866    131138.88   -41139.402    2623.7725   -43763.175    20.658687   0.95237573 
   17200    211.49069    37.792018    131047.58   -41157.249    2631.3462   -43788.596    20.954651   0.95303925 
   17300    212.39102    117.59318    130939.83   -41215.982    2642.5481    -43858.53    20.984948   0.95382356 
   17400    212.58243   -60.314044    131025.51   -41237.309    2644.9296   -43882.239    20.891233   0.95319983 
   17500    210.03586   -22.642433    130953.95   -41221.281    2613.2454   -43834.526    20.806146   0.95372065 
   17600    209.24608    170.30038    131068.05   -41208.913    2603.4191   -43812.333    20.945215   0.95289044 
   17700    209.40011   -99.623516    131107.73   -41230.197    2605.3355   -43835.533    21.039343   0.95260207 
   17800     207.5316   -3.2880428    131046.06   -41221.326    2582.0877   -43803.414    21.201266    0.9530503 
   17900    212.33957    -44.28585    131092.61   -41192.822    2641.9079    -43834.73     21.28876   0.95271188 
   18000    214.65544    118.34252    131211.92    -41142.02    2670.7218   -43812.741    21.571778   0.95184564 
   18100    209.44163    121.33948    131438.95   -41258.569     2605.852   -43864.421    21.625998   0.95020151 
   18200    212.20305    37.785454    131378.98   -41273.878    2640.2094   -43914.087    21.703873   0.95063528 
   18300    212.47546   -70.086113     131312.5   -41199.244    2643.5987   -43842.843    21.726947   0.95111653 
   18400    213.68057    96.954096    131431.69   -41268.123    2658.5925   -43926.715    21.651581   0.95025399 
   18500    211.24947    -91.15011    131471.96   -41234.662     2628.345   -43863.007    21.673054   0.94996296 
   18600    209.57133   -171.57582    131589.16   -41284.511    2607.4657   -43891.976    21.653301    0.9491169 
   18700    212.61004    157.37314    131651.26    -41255.72    2645.2731   -43900.993    21.764684    0.9486692 
   18800    213.25014    17.692163    131511.91   -41228.096    2653.2371   -43881.333    21.889155   0.94967436 
   18900    210.84222   -75.860116    131406.54    -41252.21     2623.278   -43875.488    22.014255    0.9504359 
   19000    212.33202    55.494284    131475.87   -41225.613     2641.814   -43867.427    21.887311   0.94993467 
   19100    209.11563    9.2345399    131505.28    -41278.05     2601.796   -43879.846    21.961329   0.94972223 
   19200     210.6662    127.45483    131529.77    -41258.95    2621.0881   -43880.038    22.206454   0.94954541 
   19300    209.80225   -24.479099    131429.18    -41207.81    2610.3389   -43818.148    22.104502    0.9502722 
   19400    215.30548   -26.353891    131594.09   -41222.298    2678.8095   -43901.107     22.35003    0.9490813 
   19500     213.6515   -79.550558    131748.42   -41211.604    2658.2309   -43869.835    22.438099   0.94796953 
   19600    209.87991    60.440964    131748.23    -41253.82     2611.305   -43865.125    22.436544    0.9479709 
   19700    212.60543   -10.760368    131656.82    -41230.87    2645.2158   -43876.086    22.501121   0.94862912 
   19800    209.47188    24.756124    131673.92   -41277.426    2606.2284   -43883.654    22.526566    0.9485059 
   19900    209.55144     26.82799    131742.03   -41291.722    2607.2183    -43898.94    22.496437   0.94801555 
   20000    209.21742   -84.319685    131773.88   -41338.342    2603.0625   -43941.405    22.512683   0.94778638 
   20100    212.06507   -22.809843    131736.39   -41297.587    2638.4926    -43936.08    22.473839   0.94805615 
   20200     207.8646   -72.151026    131727.36   -41352.815    2586.2308   -43939.045    22.633715   0.94812113 
   20300    207.62675   -10.669075    131642.58   -41382.714    2583.2716   -43965.986    22.846303   0.94873172 
   20400    206.92329    83.006194    131701.95   -41383.816    2574.5191   -43958.335    22.884201   0.94830406 
   20500    207.84098   -93.385675    131866.12   -41351.673    2585.9369    -43937.61    22.834563   0.94712341 
   20600    207.81108   -22.686217    131701.02   -41384.256    2585.5649   -43969.821     22.91802   0.94831071 
   20700    213.03186   -32.929353    131755.39   -41332.521    2650.5213   -43983.043    22.944215   0.94791943 
   20800    208.23863    -66.14635    131682.05   -41336.802    2590.8845   -43927.686    22.846353   0.94844734 
   20900    212.19206   -54.446319    131676.71   -41376.675    2640.0727   -44016.748    22.904434   0.94848584 
   21000    205.67568   -28.912128    131735.21   -41471.983    2558.9965   -44030.979    22.851834   0.94806463 
   21100     205.7749    68.213564    131786.18   -41499.235     2560.231   -44059.466    23.123151   0.94769796 
   21200    206.89199   -20.975812    131786.36   -41470.145    2574.1296   -44044.275    23.208219   0.94769666 
   21300    210.19899    143.54583    131696.62   -41477.147    2615.2751   -44092.422    23.187777   0.94834239 
   21400    205.87903   -96.876309    131774.31   -41438.129    2561.5266   -43999.655    23.197348    0.9477833 
   21500    210.23892   -69.797614    131720.59    -41420.85    2615.7718   -44036.622    23.148708   0.94816981 
   21600    211.92769   -38.814289     131727.8   -41364.144    2636.7833   -44000.927    23.209141   0.94811795 
   21700    209.24102   -61.688705    131721.08   -41343.243    2603.3561     -43946.6    23.334646   0.94816632 
   21800    210.90816   -72.577804    131829.77   -41328.204    2624.0984   -43952.302      23.3286   0.94738457 
   21900    209.30934    175.35479    131879.11   -41348.511    2604.2062   -43952.718    23.500597   0.94703015 
   22000    213.55993   -67.379014    131904.75   -41396.921    2657.0916   -44054.013    23.396675   0.94684603 
   22100    211.67504    67.363917    131994.35   -41348.285      2633.64   -43981.925    23.552501   0.94620328 
   22200    212.11289   -13.663045    132109.48    -41381.33    2639.0876   -44020.418    23.676717   0.94537872 
   22300    213.63741    35.025682    132013.95   -41374.088    2658.0556   -44032.144    23.624832   0.94606281 
   22400    209.68697   -66.371135    132048.42   -41350.083    2608.9046   -43958.987    23.578225   0.94581588 
   22500    214.68372    50.587026    131942.54   -41360.841    2671.0737   -44031.914    23.646774   0.94657483 
   22600    210.25262   -59.142562    132096.19   -41331.787    2615.9424    -43947.73    23.669835   0.94547381 
   22700      212.268    23.088023    132219.72    -41347.62    2641.0175   -43988.638    23.828961   0.94459046 
   22800     214.0423    24.396821    132212.93   -41334.635    2663.0931   -43997.728    23.801769     0.944639 
   22900    212.91622    -78.00984    131979.64   -41377.837    2649.0826   -44026.919     23.80153   0.94630877 
   23000    211.91658   -103.36403    131792.56   -41351.994    2636.6452   -43988.639    23.909105   0.94765203 
   23100    207.74105    -146.6675    131795.92   -41449.505    2584.6936   -44034.199     23.98636   0.94762794 
   23200    211.67804   -22.284618    131822.64   -41386.548    2633.6773   -44020.225    24.019903   0.94743584 
   23300    207.23184   -58.606923    131848.83   -41430.068    2578.3581   -44008.426    24.015108   0.94724766 
   23400    210.88708   -31.458853    131919.19   -41350.243    2623.8362   -43974.079     23.99628   0.94674242 
   23500    209.38832    42.658918    131801.48   -41381.635    2605.1888   -43986.824    24.205994   0.94758796 
   23600    210.22638    155.41084    131932.66   -41353.884    2615.6159     -43969.5    24.287711   0.94664574 
   23700    207.20389    105.86384    131960.24   -41397.204    2578.0103   -43975.214    24.228331   0.94644789 
   23800    209.59878   -106.25321    131895.93   -41439.731    2607.8073   -44047.538    24.248058   0.94690933 
   23900    209.97967    -26.92178    131692.46   -41453.057    2612.5463   -44065.603    24.354157   0.94837239 
   24000    208.50326    163.17663    131864.68   -41380.395     2594.177   -43974.572    24.593599   0.94713379 
   24100    209.50813   -120.96538    131857.81   -41378.406    2606.6794   -43985.085    24.621556   0.94718315 
   24200    206.66442   -5.1252666    131869.32   -41443.932    2571.2983    -44015.23    24.712987   0.94710048 
   24300    206.51742    10.613005    131901.62   -41406.815    2569.4693   -43976.284    24.843666   0.94686852 
   24400    209.92955    34.031653    131835.16   -41446.324    2611.9227   -44058.247    24.895917   0.94734585 
   24500     209.3977    86.223101    131914.42   -41399.226    2605.3055   -44004.532    24.998975   0.94677667 
   24600    210.41294    -12.14881    131680.32   -41393.614     2617.937   -44011.551    24.832081   0.94845981 
   24700    207.62875    26.120443    131731.47   -41416.267    2583.2964   -43999.563    24.726091    0.9480915 
   24800    210.46594   -43.160906    131616.93   -41415.271    2618.5964   -44033.867    24.711803   0.94891663 
   24900      211.768    35.230504    131630.32   -41358.357    2634.7965   -43993.153    24.897913   0.94882008 
   25000    211.13946   -64.725418    131833.96   -41336.472    2626.9763   -43963.449    25.027207   0.94735447 
   25100    209.24438     6.536333    131763.46   -41337.517    2603.3979   -43940.915     25.14263   0.94786132 
   25200    211.77354    112.02658    131775.53   -41377.381    2634.8655   -44012.246     25.05187   0.94777453 
   25300    210.23649   -112.95466    131613.17    -41374.59    2615.7417   -43990.331    25.209023   0.94894372 
   25400    209.31934    130.18999    131634.56   -41360.213    2604.3305   -43964.543    25.191235   0.94878953 
   25500    211.65449    202.07583    131632.32   -41326.096    2633.3843    -43959.48    25.141718   0.94880564 
   25600    209.38828   -14.381384    131555.97   -41400.438    2605.1883   -44005.626    25.150358   0.94935635 
   25700    212.42641   -34.063525    131558.94   -41417.172    2642.9884    -44060.16    25.015919   0.94933487 
   25800    210.17573    1.5211645    131681.82   -41391.528    2614.9857   -44006.514    25.074817   0.94844902 
   25900    211.51076    107.89039    131787.11   -41345.123    2631.5959   -43976.719    25.314897   0.94769124 
   26000    210.34972    190.32637    131809.73   -41277.331    2617.1505   -43894.481    25.556353   0.94752864 
   26100    209.25524   -60.120882    131794.47   -41369.399     2603.533   -43972.932    25.403869   0.94763835 
   26200    212.27063    133.20384    131645.29   -41370.247    2641.0501   -44011.298    25.421731   0.94871216 
   26300    210.21127   -21.374574    131868.43   -41341.156    2615.4278   -43956.584    25.346639   0.94710682 
   26400    210.79088    3.3835786    131776.18   -41329.085    2622.6393   -43951.724     25.41958   0.94776989 
   26500    211.65503    43.858556    131852.64   -41384.286    2633.3909   -44017.677    25.333905   0.94722022 
   26600    208.68054   -35.261843    131858.04   -41423.867    2596.3826   -44020.249    25.368468   0.94718147 
   26700    207.45511   -64.103051    131987.23   -41445.354    2581.1359    -44026.49    25.521243   0.94625432 
   26800    207.66394    56.416666    132099.44   -41372.696    2583.7342    -43956.43    25.833235   0.94545057 
   26900    208.52527   -74.798627    132099.63   -41365.592    2594.4508   -43960.043    25.854205   0.94544924 
   27000    210.27194    146.65769    132000.64   -41402.284    2616.1827   -44018.467    25.808729   0.94615824 
   27100    210.43178    33.232471    132057.92   -41413.961    2618.1715   -44032.133     25.82537   0.94574784 
   27200    209.67114    6.4682065    132096.26   -41435.069    2608.7076   -44043.776    25.760814   0.94547336 
   27300    209.32449    5.0203046    132122.65   -41472.905    2604.3946     -44077.3    25.722653   0.94528446 
   27400    211.41129   -37.514398    132179.67   -41422.957    2630.3583   -44053.316    25.671447   0.94487672 
   27500    210.79724    137.42528    132091.88   -41364.406    2622.7185   -43987.124    25.785795   0.94550468 
   27600    209.47098    75.315577    132096.61    -41396.42    2606.2172   -44002.637    25.936585   0.94547083 
   27700    211.90276    8.0602305    132019.27   -41402.321    2636.4732   -44038.794    25.957092   0.94602473 
   27800    210.88682   -6.5821534    132121.25   -41341.848     2623.833   -43965.681    26.027705   0.94529448 
   27900    210.38682    80.133453    131963.77   -41363.885    2617.6121   -43981.497    26.026336   0.94642258 
   28000    212.40308   -71.689819    132038.45   -41405.065    2642.6981   -44047.763    26.228382   0.94588732 
   28100    208.18973    45.065408    132201.61   -41387.608     2590.276   -43977.884     26.39452    0.9447199 
   28200    210.06743    8.5263978    132296.01   -41428.595    2613.6382   -44042.234    26.439013   0.94404582 
   28300    212.96045   -17.585104    132174.86   -41411.982    2649.6328   -44061.615    26.409477    0.9449111 
   28400    210.27272    -94.33537    132296.66   -41454.507    2616.1924     -44070.7    26.358191   0.94404116 
   28500    209.57537    48.003071    132185.79   -41475.159     2607.516   -44082.675    26.508675   0.94483293 
   28600    209.24658    53.528747    132208.68   -41441.013    2603.4253   -44044.439    26.478161    0.9446694 
   28700    207.89003   -26.281914    132217.42   -41442.318    2586.5473   -44028.866    26.604015   0.94460692 
   28800    211.54882    56.680263    132151.56   -41419.239    2632.0695   -44051.308    26.691061   0.94507771 
   28900    210.00837   -116.81362    132134.56   -41398.919    2612.9034   -44011.822    26.868128   0.94519931 
   29000    206.86424    66.103742    132162.17   -41476.489    2573.7844   -44050.274    26.951174   0.94500181 
   29100    212.20989    67.366596    132320.43   -41430.658    2640.2944   -44070.952    27.082334   0.94387156 
   29200    208.25886    -92.88901    132198.57    -41406.45    2591.1362   -43997.586    26.940757   0.94474159 
   29300    209.74839   -11.115427     132253.4   -41461.206    2609.6687   -44070.875    26.911829   0.94434993 
   29400    208.45188    10.197122    132308.85   -41520.388    2593.5377   -44113.926    26.796672    0.9439542 
   29500    207.92545   -21.734196    132325.45   -41542.942    2586.9879    -44129.93    26.908255   0.94383575 
   29600    211.84512    85.392967    132315.68   -41467.059    2635.7561   -44102.815     26.87607   0.94390548 
   29700    206.27975   -165.23797    132100.25   -41509.027    2566.5123   -44075.539    27.175018   0.94544479 
   29800    208.93551   -114.98933    132113.65   -41489.399     2599.555   -44088.954    27.323671    0.9453489 
   29900    206.08703    144.77233     132112.8   -41508.219    2564.1144   -44072.334    27.190663   0.94535495 
   30000    210.11478    129.75357    132149.78   -41481.492    2614.2273   -44095.719    27.304241   0.94509045 
   30100    210.20171    46.473465    132218.09   -41486.625    2615.3089   -44101.933    27.204169   0.94460215 
   30200    213.63099    51.590164    132233.89   -41514.058    2657.9756   -44172.034     27.17418   0.94448931 
   30300    209.64992   -51.193277    132395.22   -41483.843    2608.4436   -44092.286    27.405778   0.94333837 
   30400    210.71892    99.838515    132195.47   -41470.392     2621.744   -44092.136    27.390776   0.94476378 
   30500    215.05664    134.16572    132345.13   -41474.282    2675.7134   -44149.995    27.599745   0.94369539 
   30600    213.71897   -85.063444    132477.86   -41468.393    2659.0703   -44127.463    27.310969   0.94274994 
   30700     212.9744   -29.338117    132409.45   -41495.752    2649.8064   -44145.559    27.304409     0.943237 
   30800    213.91101    90.901242    132477.66     -41439.8    2661.4597    -44101.26    27.304954   0.94275134 
   30900    209.96187    -28.70922    132384.84   -41545.582    2612.3249   -44157.907    27.328368   0.94341234 
   31000     204.0839   -22.987048    132220.68   -41593.745    2539.1918   -44132.937    27.374177    0.9445836 
   31100    205.82633    4.1731651    132425.33   -41589.535    2560.8709   -44150.406    27.597967   0.94312385 
   31200     206.5212    15.616785     132445.3   -41594.955    2569.5164   -44164.472    27.660241   0.94298166 
   31300    210.24717    114.81284       132412   -41555.131    2615.8745   -44171.006    27.569274   0.94321885 
   31400    206.01364    90.715604    132424.86   -41510.927    2563.2013   -44074.128     27.63555   0.94312722 
   31500     205.9399    49.004064     132421.6   -41547.977    2562.2839    -44110.26    27.510454   0.94315046 
   31600    212.34004   -124.97984    132436.13   -41488.044    2641.9137   -44129.958    27.459441   0.94304695 
   31700    208.24355   -85.616049    132348.01   -41519.642    2590.9456   -44110.587    27.606276   0.94367487 
   31800    212.67007    81.952797    132479.49   -41461.062      2646.02   -44107.082    27.647891    0.9427383 
   31900    210.41969    10.157338     132400.9   -41457.029     2618.021    -44075.05    27.703101   0.94329793 
   32000    209.84045   -4.1423726     132228.1   -41450.716    2610.8141    -44061.53    27.802197   0.94453062 
   32100    213.67167   -5.9602992    132261.14   -41457.075    2658.4818   -44115.557    27.868674   0.94429471 
   32200    209.38948   -17.959062    132225.78   -41453.543    2605.2032   -44058.746    27.838368   0.94454724 
   32300    210.58872   -53.658923    132195.43    -41448.63     2620.124   -44068.754    27.790658   0.94476404 
   32400    207.83341    73.964516    132308.43   -41513.256    2585.8428   -44099.098    27.866002   0.94395717 
   32500    208.48997    60.780733    132447.73   -41520.897    2594.0115   -44114.909    28.010179   0.94296441 
   32600    208.62655    50.488823     132390.1   -41463.175    2595.7109   -44058.886    28.155107   0.94337488 
   32700    208.31413    22.248546    132304.06   -41524.129    2591.8238   -44115.953    28.135043   0.94398836 
   32800    207.69884    28.341585    132358.27   -41556.652    2584.1684    -44140.82    28.123428   0.94360168 
   32900    208.90078   -87.758675    132367.29   -41549.442    2599.1228   -44148.565     28.26305   0.94353743 
   33000    204.35805    83.704303    132367.32   -41591.912    2542.6026   -44134.515    28.375917   0.94353724 
   33100    209.67933     52.57377    132446.18   -41526.577    2608.8095   -44135.387    28.375036   0.94297542 
   33200    205.08198   -41.597482    132396.05   -41557.045    2551.6097   -44108.654    28.516971   0.94333248 
   33300       210.85   -48.416581    132465.33   -41495.578    2623.3749   -44118.952    28.400088    0.9428391 
   33400    209.64795  -0.43673986    132410.11   -41578.385    2608.4191   -44186.804    28.513511   0.94323231 
   33500    211.36157    3.8545073    132306.89   -41547.074    2629.7397   -44176.813    28.518693   0.94396814 
   33600    209.42428    79.471853    132205.36   -41514.677    2605.6362   -44120.313    28.549049   0.94469307 
   33700    211.01336    40.643542     132210.9   -41509.432    2625.4074    -44134.84       28.504   0.94465355 
   33800    208.31022   -102.34807    132146.59   -41506.394    2591.7752   -44098.169    28.507782   0.94511327 
   33900    211.19254   -68.115613    132146.08   -41512.214    2627.6367   -44139.851    28.506783   0.94511686 
   34000    212.32898    61.435168    132111.78    -41474.84    2641.7762   -44116.616    28.632165   0.94536225 
   34100    207.87241    69.878813    132134.46   -41498.396     2586.328   -44084.724    28.720191   0.94519998 
   34200    212.17947    -48.71258    132081.35   -41501.714     2639.916    -44141.63    28.794221   0.94558009 
   34300     207.2969   -91.163721    132196.21   -41547.798    2579.1675   -44126.966    28.766189   0.94475846 
   34400    212.02977    -53.17907    132016.14   -41483.419    2638.0534   -44121.473     28.79302   0.94604714 
   34500    206.56943    -3.107837    132040.58   -41491.476    2570.1165   -44061.592    28.871157   0.94587205 
   34600    210.05362   -10.411197     132156.9   -41474.235    2613.4664   -44087.701    28.890238   0.94503949 
   34700    204.52126   -37.301415    132127.96    -41547.08    2544.6332   -44091.713    28.957331   0.94524652 
   34800    208.15292   -120.52762    132236.75   -41538.717    2589.8181   -44128.536    28.960754   0.94446888 
   34900    206.45235    65.003603    132181.51   -41544.372    2568.6597   -44113.032    28.973794   0.94486353 
   35000     205.3146     105.1779    132132.45   -41606.222    2554.5039   -44160.726    28.956439   0.94521436 
   35100    208.48698    96.933611    132097.55   -41546.388    2593.9743   -44140.362     29.06936    0.9454641 
   35200    208.24902    141.65556    132181.84   -41533.337    2591.0137    -44124.35    29.122835   0.94486122 
   35300     208.3256    57.470212    132352.26   -41511.902    2591.9665   -44103.868    29.048913   0.94364457 
   35400    207.94225   -3.6238528     132320.4    -41536.23    2587.1969   -44123.427    29.259051   0.94387178 
   35500    211.80351   -72.318808    132264.64   -41439.231    2635.2384   -44074.469    29.230774   0.94426971 
   35600    207.23183   -52.358908    132244.06    -41477.04     2578.358   -44055.398    29.114587   0.94441661 
   35700    209.88791    52.909078    132316.89   -41442.146    2611.4046   -44053.551    29.217982   0.94389681 
   35800    213.81224    71.413192    132319.12     -41479.4    2660.2307   -44139.631    29.067169   0.94388091 
   35900    210.51582    -14.44591    132425.97   -41430.273     2619.217    -44049.49    29.433207   0.94311934 
   36000    210.56306    113.87505    132441.46   -41404.675    2619.8048    -44024.48    29.302868   0.94300899 
   36100    211.40112   -122.02178    132514.36   -41436.795    2630.2318   -44067.027      29.3403   0.94249022 
   36200    209.09987    13.672255    132336.34   -41471.478    2601.5999   -44073.078     29.35168   0.94375806 
   36300    212.14543   -103.12913    132400.07   -41536.695    2639.4924   -44176.187    29.431937   0.94330385 
   36400    210.20366     61.69529    132415.18   -41492.117    2615.3332    -44107.45    29.511083   0.94319619 
   36500    209.42346   -25.122352    132672.84   -41472.314     2605.626    -44077.94    29.431112   0.94136444 
   36600    209.51552   -30.895498    132684.73   -41586.384    2606.7714   -44193.156    29.560769   0.94128004 
   36700    209.91918    84.603985    132654.12   -41535.114    2611.7937   -44146.907    29.579383   0.94149729 
   36800    207.95379   -36.972231    132616.29   -41525.024    2587.3405   -44112.365    29.666669   0.94176582 
   36900    209.18417    97.383003    132509.06   -41550.918    2602.6488   -44153.566    29.705352   0.94252794 
   37000    215.37727   -64.645024    132525.09   -41490.564    2679.7027   -44170.267    29.821912   0.94241392 
   37100    212.89144     59.48581    132493.42   -41471.507    2648.7743   -44120.281    29.874719   0.94263922 
   37200    206.08045    18.780367    132518.83   -41525.021    2564.0326   -44089.054    29.707839   0.94245844 
   37300    210.49489   -36.196752    132631.84   -41545.245    2618.9567   -44164.201    29.688959   0.94165541 
   37400    208.19431    76.883917     132591.8   -41569.729     2590.333   -44160.062    29.714633    0.9419398 
   37500    203.96547   -52.845354    132481.92   -41575.563    2537.7182   -44113.281    29.838452   0.94272103 
   37600    212.22201    41.478075    132553.09   -41526.441    2640.4453   -44166.887    29.867083   0.94221485 
   37700    207.83718   -5.4000402    132558.78   -41535.849    2585.8896   -44121.739    29.956309    0.9421744 
   37800    205.97555   -69.638484    132425.29   -41616.711    2562.7274   -44179.439    30.079191   0.94312415 
   37900    209.59903   -52.316646    132562.76   -41574.519    2607.8105   -44182.329    30.005795   0.94214614 
   38000    210.35902    49.623136    132534.98   -41553.821    2617.2661   -44171.087    30.014161    0.9423436 
   38100    210.89873    106.44956    132616.95   -41513.103    2623.9812   -44137.085    29.979896   0.94176113 
   38200      210.472   -71.851903    132687.32   -41530.875    2618.6719   -44149.547    30.152935   0.94126171 
   38300    215.52408   -44.274255    132660.91   -41474.757    2681.5293   -44156.287    30.255245   0.94144909 
   38400     209.2213   -31.288569    132453.44   -41526.321    2603.1107   -44129.432    30.418117   0.94292371 
   38500    209.38466    64.421425    132395.19   -41538.986    2605.1433   -44144.129    30.550511    0.9433386 
   38600    208.92189   -58.993184     132341.7   -41507.925    2599.3856    -44107.31    30.370086   0.94371986 
   38700    211.71903    30.428268    132558.76   -41519.398    2634.1873   -44153.585    30.481026   0.94217454 
   38800    210.37906     -55.5758    132512.41   -41553.166    2617.5154   -44170.681    30.513139   0.94250411 
   38900    210.20922   -66.071554    132412.32   -41508.935    2615.4023   -44124.337    30.672587   0.94321653 
   39000    208.88584     106.3902    132405.38    -41549.28    2598.9369   -44148.217    30.392275   0.94326596 
   39100    209.97063   -162.33058     132433.1   -41529.119    2612.4339   -44141.553    30.668817   0.94306855 
   39200    209.37879    67.749628    132571.67   -41560.218    2605.0702   -44165.289    30.611149   0.94208281 
   39300    209.37701    89.072419    132623.55   -41555.335    2605.0481   -44160.383     30.65148    0.9417143 
   39400    209.80521    67.133867     132556.2   -41513.929    2610.3756   -44124.304    30.652895   0.94219272 
   39500    210.15179    50.354472    132349.38   -41487.692    2614.6878    -44102.38     30.73853   0.94366512 
   39600    207.54227   -60.083149    132360.52    -41530.48    2582.2204     -44112.7    30.825725    0.9435857 
   39700    212.34011    106.95252    132414.26   -41470.807    2641.9146   -44112.722    30.847548   0.94320273 
   39800    209.15493   -3.8738098    132541.79   -41547.696    2602.2849   -44149.981    31.023836   0.94229516 
   39900    206.41108   -13.020927    132508.19   -41586.423    2568.1463    -44154.57    31.184759   0.94253409 
   40000    206.73112    -62.70738    132406.09   -41598.672    2572.1282     -44170.8    31.035108   0.94326091 
   40100    211.41949    136.23649     132468.4   -41517.503    2630.4604   -44147.963    31.003757   0.94281722 
   40200    208.73701    144.64371    132672.26    -41530.94    2597.0852   -44128.025     31.21161   0.94136852 
   40300     210.6113   -77.707146    132706.93   -41520.749     2620.405   -44141.154    31.246143   0.94112263 
   40400     214.2503   -113.07138    132579.88   -41441.199    2665.6811    -44106.88    31.254301   0.94202448 
   40500    211.29432    30.657885    132560.72   -41454.508     2628.903   -44083.411    31.150696   0.94216063 
   40600    212.50785   -25.760271    132524.74   -41494.969    2644.0017   -44138.971    31.022308   0.94241641 
   40700    208.78704   -65.382813    132507.42   -41551.339    2597.7078   -44149.046    31.060507   0.94253963 
   40800    207.00231    27.731757    132487.04   -41594.309    2575.5022   -44169.811    31.360472   0.94268459 
   40900    207.72322   -93.746815    132469.78   -41615.341    2584.4717   -44199.813     31.34786   0.94280739 
   41000    210.96737   -129.67469     132502.4   -41536.052    2624.8352   -44160.888    31.480871    0.9425753 
   41100    215.84852   -58.580932    132564.16   -41531.422     2685.566   -44216.988    31.469579   0.94213617 
   41200    212.65383   -10.560208    132415.45   -41547.095     2645.818   -44192.913    31.602294   0.94319428 
   41300    206.19547    59.014442    132306.97   -41679.085    2565.4636   -44244.549    31.405478    0.9439676 
   41400    207.05412    117.41773    132342.74   -41626.528    2576.1468   -44202.675    31.487546   0.94371242 
   41500    207.44603   -56.214426    132298.01   -41620.913     2581.023   -44201.936    31.391429   0.94403155 
   41600    209.26435   -44.101718    132180.24   -41592.289    2603.6463   -44195.935     31.35708   0.94487264 
   41700    206.93416    41.148924    132037.21   -41569.086    2574.6544    -44143.74    31.574714   0.94589618 
   41800    211.40383   -84.393685    132127.84   -41576.627    2630.2655   -44206.892    31.677193   0.94524739 
   41900    210.58446    32.477601    132282.63   -41555.291     2620.071   -44175.362    31.768472   0.94414126 
   42000    211.36157   -21.985342    132429.02   -41545.408    2629.7397   -44175.148    31.802442    0.9430976 
   42100    209.66467    88.059453    132508.57   -41531.389    2608.6271   -44140.016    31.837173   0.94253141 
   42200    210.80562    96.147201     132414.3   -41490.019    2622.8227   -44112.841    31.671196   0.94320246 
   42300    213.08172   -107.12575     132064.3   -41462.318    2651.1417   -44113.459     31.71091   0.94570211 
   42400    210.96921    120.56034    132103.25   -41500.757     2624.858   -44125.615    31.604848    0.9454233 
   42500    212.67295    134.77286    132203.31    -41497.24    2646.0558   -44143.296    31.790135   0.94470774 
   42600    208.63328    13.283585    132236.36   -41496.273    2595.7946   -44092.067    31.657253   0.94447162 
   42700    208.93458   -24.219368    132310.83   -41508.058    2599.5434   -44107.601     31.78463   0.94394002 
   42800    209.60235    -119.0435    132230.22    -41452.29    2607.8517   -44060.142     31.88631   0.94451552 
   42900    209.32567    136.39956    132227.18   -41523.361    2604.4093    -44127.77    31.982256   0.94453723 
   43000    211.03004    3.6783749    132174.71   -41546.119    2625.6149   -44171.734    31.950095   0.94491214 
   43100    212.04241    36.526649    132269.88   -41524.561    2638.2106   -44162.771    31.972466   0.94423231 
   43200    212.39914   -5.9063126    132309.42   -41483.027    2642.6491   -44125.676    31.977551   0.94395007 
   43300    209.44715    84.270295    132267.61   -41484.961    2605.9207   -44090.882    32.143887   0.94424852 
   43400    215.76374  0.095133408     132178.8   -41448.849    2684.5111    -44133.36    32.034744   0.94488292 
   43500    211.96177    20.001254    132165.02   -41457.155    2637.2074   -44094.362    32.234578   0.94498142 
   43600    214.74996   -14.626451    132163.46   -41380.515    2671.8978   -44052.412    32.341621   0.94499257 
   43700    212.23882   -68.921488    132155.77   -41414.089    2640.6544   -44054.744     32.50611    0.9450476 
   43800    214.83277    -14.02699    132081.91   -41421.203    2672.9281   -44094.131    32.461741   0.94557604 
   43900    213.93717    70.240655    132185.11   -41468.007    2661.7852   -44129.792    32.466526   0.94483785 
   44000    210.46168    8.1835299    132301.71     -41494.3    2618.5435   -44112.843    32.455065   0.94400512 
   44100    209.74252   -21.485957    132343.94   -41522.741    2609.5957   -44132.336    32.386574    0.9437039 
   44200    210.44628   -122.19385    132348.08   -41555.664    2618.3518   -44174.016    32.489892   0.94367437 
   44300     206.0834    85.223199    132305.95   -41567.846    2564.0694   -44131.915    32.513122   0.94397484 
   44400    209.16674    47.349516    132273.03   -41522.835    2602.4319   -44125.267     32.50609   0.94420981 
   44500    208.30143    35.865979    132342.07   -41548.419    2591.6658   -44140.084    32.547922   0.94371721 
   44600    203.10569    -36.26021    132378.58   -41596.885    2527.0209   -44123.906    32.456388   0.94345692 
   44700    209.79303   0.12471294    132377.75   -41565.138    2610.2241   -44175.362    32.677903   0.94346285 
   44800     209.2391    13.378816    132217.07   -41538.422    2603.3322   -44141.754    32.644717   0.94460942 
   44900    213.83407    172.37362    132151.75   -41497.294    2660.5023   -44157.796    32.634256   0.94507633 
   45000    210.51777    7.6417441    132217.46   -41488.634    2619.2413   -44107.876    32.734671   0.94460666 
   45100    211.00455    7.4109531    132379.58   -41436.841    2625.2978   -44062.139    32.632054   0.94344981 
   45200    210.19918    82.523331    132368.53   -41489.752    2615.2775    -44105.03    32.665312   0.94352856 
   45300    208.87313   -24.937347    132487.38    -41506.34    2598.7788   -44105.118    32.852175   0.94268215 
   45400    211.62494   -61.324319    132328.82   -41482.763    2633.0165    -44115.78    32.689412   0.94381168 
   45500    207.19435   -236.38549    132274.27   -41486.075    2577.8916   -44063.967    32.687022   0.94420095 
   45600    211.34124    76.388706    132279.81    -41477.42    2629.4868   -44106.907    32.773853   0.94416143 
   45700    205.84337   -4.9150024    132456.52   -41487.298    2561.0829   -44048.381    32.691942   0.94290182 
   45800    211.34011   -134.46805    132495.94   -41443.987    2629.4727    -44073.46    32.835309   0.94262128 
   45900    217.89032    68.658619    132544.48   -41383.097    2710.9699   -44094.067     32.90609   0.94227604 
   46000    214.92689    83.417696    132523.93   -41372.866    2674.0991   -44046.966    33.028782   0.94242217 
   46100    214.06076    30.384831    132567.64   -41336.934    2663.3228   -44000.256    33.146934   0.94211147 
   46200    218.29241    -171.9508    132404.13    -41341.25    2715.9726   -44057.222    33.023704   0.94327487 
   46300    216.85204   -7.7087443    132511.33    -41376.87    2698.0517   -44074.922    33.036309   0.94251182 
   46400    213.90315   -94.691393    132472.09   -41420.412    2661.3619   -44081.774    33.208837   0.94279101 
   46500     213.0979   -49.824803    132515.91   -41420.828     2651.343   -44072.171    33.204106   0.94247924 
   46600    216.51415    -18.57056    132516.49   -41420.472    2693.8477    -44114.32    33.129418   0.94247509 
   46700     209.7953   -117.87216    132517.79   -41508.148    2610.2524     -44118.4    33.098702   0.94246583 
   46800    208.74785   -18.708384    132479.47   -41555.565    2597.2202   -44152.785    33.141757   0.94273847 
   46900    215.69709   -24.043417    132589.74   -41488.256    2683.6819   -44171.938    33.267349   0.94195441 
   47000    213.06971   -88.450275     132523.9   -41478.325    2650.9922   -44129.318    33.329779    0.9424224 
   47100    212.12337    98.367298    132589.31   -41463.144     2639.218   -44102.362    33.294252   0.94195744 
   47200    213.90784   -26.656983    132598.56   -41512.525    2661.4202   -44173.945    33.425582   0.94189176 
   47300    210.32577    12.097441    132487.77   -41537.213    2616.8524   -44154.066    33.379494   0.94267937 
   47400    209.23252   -100.10016    132508.64   -41502.457    2603.2503   -44105.707    33.422784   0.94253093 
   47500    214.83409   -2.2452902    132421.87   -41455.732    2672.9445   -44128.677    33.380185   0.94314855 
   47600    214.33667    7.4132725    132390.59   -41420.925    2666.7557   -44087.681    33.429477   0.94337133 
   47700    208.88687    1.2136793    132235.38   -41461.825    2598.9497   -44060.774    33.527491   0.94447866 
   47800    213.83669    24.531588    132288.25   -41466.119     2660.535   -44126.654    33.717422   0.94410117 
   47900    206.96673    27.265958    132461.96   -41546.479    2575.0596   -44121.539       33.711   0.94286309 
   48000    210.76268    45.441654    132453.17   -41561.897    2622.2885   -44184.186    33.625772   0.94292562 
   48100    210.23472    27.357806    132407.06   -41527.731    2615.7196    -44143.45    33.569494   0.94325401 
   48200    209.49151    47.578246    132422.53   -41560.834    2606.4726   -44167.307    33.703553   0.94314384 
   48300    210.04451   -144.98222    132294.17   -41546.169     2613.353   -44159.522    33.612841   0.94405893 
   48400    214.92274    244.66957    132447.12   -41477.718    2674.0475   -44151.766    33.643747   0.94296871 
   48500    211.01053    129.79946    132438.78   -41536.409    2625.3722   -44161.781    33.767247   0.94302813 
   48600    209.80857   -23.329456    132458.03   -41546.989    2610.4175   -44157.406    33.915563   0.94289103 
   48700    210.46463    165.88547    132547.48   -41513.186    2618.5801   -44131.766    33.838848   0.94225472 
   48800    211.56248    57.888553    132599.27   -41539.029    2632.2395   -44171.269     33.92871   0.94188674 
   48900    208.09383    62.297694    132599.67   -41532.271    2589.0828   -44121.353    33.850206   0.94188388 
   49000     211.3476    13.808044    132539.64   -41561.492     2629.566   -44191.058    33.851641   0.94231044 
   49100    211.75826    -117.9064    132583.36   -41571.298    2634.6753   -44205.974    34.014825   0.94199971 
   49200    210.44247   -15.699498    132655.63   -41588.777    2618.3044   -44207.082    34.137215   0.94148653 
   49300    210.64647   -34.866654     132577.2   -41526.687    2620.8425   -44147.529    34.201044   0.94204351 
   49400    210.49155    47.782672    132658.75   -41497.962     2618.915   -44116.877    34.161771   0.94146441 
   49500      210.283    70.001308    132493.07   -41514.939    2616.3203   -44131.259    34.118946   0.94264169 
   49600    213.00851    50.846718    132512.12   -41527.321    2650.2308   -44177.552    34.183058   0.94250618 
   49700    209.12294    -23.93919    132537.17   -41549.645     2601.887   -44151.532    34.174669   0.94232805 
   49800    207.44401    119.06625     132475.4   -41582.705    2580.9979   -44163.703    34.388953   0.94276739 
   49900    214.84011    50.775014    132536.39   -41466.334    2673.0194   -44139.354    34.261768    0.9423336 
   50000    209.66865    54.653704    132623.02   -41502.619    2608.6767   -44111.295    34.195645   0.94171807 
   50100    209.75056   -92.386201    132606.36   -41515.059    2609.6958   -44124.755    34.361701   0.94183636 
   50200    212.12022   -127.56435    132589.57   -41556.397    2639.1788   -44195.575    34.413581   0.94195565 
   50300    208.33652     26.03602    132516.52   -41535.607    2592.1023   -44127.709    34.336989   0.94247489 
   50400    207.63106   -72.079573     132541.8   -41566.793    2583.3251   -44150.118    34.422898   0.94229508 
   50500    207.51218    19.848829    132635.56   -41606.958     2581.846   -44188.804    34.363661   0.94162901 
   50600    209.88451    21.091481    132641.99   -41620.095    2611.3623   -44231.457    34.501432   0.94158339 
   50700    205.20802     65.76778    132589.45   -41629.298    2553.1779   -44182.476    34.671207   0.94195647 
   50800    209.30809   -66.947025    132655.86   -41625.696    2604.1906   -44229.886    34.641835   0.94148492 
   50900    210.49852    34.533862    132474.81   -41536.382    2619.0017   -44155.384    34.532379   0.94277163 
   51000    209.46731    27.962814    132675.08   -41573.244    2606.1715   -44179.416    34.660148    0.9413485 
   51100    211.23838    66.124642    132583.42   -41606.179     2628.207   -44234.386    34.663031   0.94199935 
   51200    207.66612    63.683071    132517.98   -41599.047    2583.7613   -44182.809    34.664402   0.94246449 
   51300    207.68697    89.296022    132465.94   -41659.407    2584.0208   -44243.428    34.591519   0.94283472 
   51400    207.50948    146.87941    132434.47   -41670.574    2581.8124   -44252.387    34.608649   0.94305877 
   51500    205.02312    106.38312    132463.22   -41666.653    2550.8774    -44217.53    34.605348   0.94285407 
   51600    206.85035    8.6543158    132610.04   -41611.221    2573.6117   -44184.833    34.580003    0.9418102 
   51700    207.93352   -2.1522505    132737.44   -41598.765    2587.0882   -44185.854    34.708268   0.94090626 
   51800    209.78895   -71.069197    132627.07   -41640.498    2610.1734   -44250.672    34.661384   0.94168927 
   51900    209.49844    86.361769     132736.4    -41675.31    2606.5589   -44281.869    34.600097   0.94091367 
   52000    207.30356    32.405198    132802.41   -41699.148    2579.2504   -44278.398    34.783676   0.94044596 
   52100    205.93281   0.30426316    132980.06   -41646.679    2562.1956   -44208.874    34.896384   0.93918959 
   52200    207.81586   -6.6246681     132903.4   -41674.534    2585.6244   -44260.158    34.829034   0.93973138 
   52300    210.83267   -69.005707    132928.32   -41658.346    2623.1593   -44281.505    34.902867   0.93955517 
   52400    211.07491   -220.88636    132856.46   -41607.255    2626.1731   -44233.428    34.937985   0.94006334 
   52500    206.94797    -22.73288    132909.16     -41599.5    2574.8262   -44174.326    35.071381   0.93969065 
   52600    207.86897    111.47556    132859.66    -41616.08    2586.2852   -44202.365     34.91086   0.94004072 
   52700    205.01168    31.752133    132991.47   -41641.559    2550.7351   -44192.294    34.935374   0.93910902 
   52800    209.76211   -16.640221     132892.7   -41594.755    2609.8395   -44204.594    35.110214   0.93980701 
   52900    207.59571    16.591983    132876.82    -41581.29    2582.8853   -44164.176    35.199732   0.93991935 
   53000     211.6298   -111.11621    132785.39   -41555.022    2633.0771   -44188.099    35.228507   0.94056652 
   53100    208.20266   -55.675774    132674.65   -41592.694    2590.4369   -44183.131    35.297549    0.9413516 
   53200    207.59195   -41.991048    132692.04   -41579.312    2582.8385    -44162.15      35.3962   0.94122824 
   53300    210.67863    60.589137    132645.88   -41573.556    2621.2427   -44194.799    35.426775   0.94155577 
   53400    208.66331    4.5650056    132914.13   -41646.906    2596.1683   -44243.074    35.406661   0.93965552 
   53500     208.1255    49.435018    132762.06   -41663.544    2589.4769   -44253.021     35.29403   0.94073176 
   53600    207.18865    15.965382     132881.3    -41664.23    2577.8207    -44242.05    35.284539   0.93988765 
   53700    211.39364    79.230209    132850.72   -41706.237    2630.1388   -44336.376     35.34019   0.94010397 
   53800    207.22936   -72.191444    132866.47   -41594.448    2578.3272   -44172.775    35.545165   0.93999253 
   53900    210.26119    66.106326    132693.53   -41645.866    2616.0489   -44261.915    35.427414   0.94121764 
   54000    208.05116   -60.039559     132699.4   -41616.076     2588.552   -44204.628    35.650484   0.94117601 
   54100    210.35831      35.1879    132701.61   -41620.937    2617.2573   -44238.195    35.466097    0.9411603 
   54200    211.80071     11.37267    132768.05   -41597.648    2635.2035   -44232.851     35.61847   0.94068933 
   54300    209.51839    136.03897    132838.18   -41571.559     2606.807   -44178.366    35.739426   0.94019274 
   54400    208.27991    4.0221193    132837.48   -41605.308     2591.398   -44196.706    35.733009   0.94019766 
   54500    207.92454    90.232768       132841   -41602.907    2586.9766   -44189.884    35.598395   0.94017279 
   54600    217.04519    65.954027    132885.92   -41516.291    2700.4549   -44216.746    35.819477   0.93985494 
   54700    212.85458   -83.468546    132797.19   -41529.806    2648.3157   -44178.122    35.933908   0.94048292 
   54800    209.06244   -56.057232    132827.52   -41599.721    2601.1342   -44200.855    35.907414    0.9402682 
   54900    209.27009    90.224378    132804.75   -41640.303    2603.7177   -44244.021    35.731227   0.94042942 
   55000    208.44199   -14.961168    132912.09   -41700.973    2593.4147   -44294.387     35.68504   0.93966993 
   55100    206.62998   -52.400099    132968.17   -41671.801    2570.8698   -44242.671    35.783344   0.93927361 
   55200    208.81145   -51.191919    132859.37   -41674.599    2598.0114    -44272.61    35.823378   0.94004275 
   55300    205.79096   -55.871359    132830.89    -41642.08    2560.4308   -44202.511    36.008266   0.94024435 
   55400    211.27072    68.112363    132787.81   -41626.271    2628.6094    -44254.88    36.144409   0.94054934 
   55500    211.20942    54.223646    132919.18   -41575.661    2627.8467   -44203.507    36.124094   0.93961978 
   55600    212.71277    91.295582    132947.85   -41617.924    2646.5512   -44264.475    36.034645   0.93941714 
   55700    210.42204   -20.221446    133082.59   -41623.041    2618.0503   -44241.091    36.021974   0.93846607 
   55800    209.23805   -78.655574    132974.38   -41632.386    2603.3191   -44235.705    35.889253   0.93922972 
   55900    211.61162    -106.3003    133039.07   -41606.438    2632.8508   -44239.288    36.167169   0.93877303 
   56000    212.84521   -156.33786    132947.58   -41609.958    2648.1991   -44258.157    36.206647   0.93941909 
   56100    212.77634    16.413587    133085.41   -41584.815    2647.3422   -44232.158    36.208538   0.93844615 
   56200    209.65662    60.873854    133021.52   -41593.554     2608.527   -44202.081    36.381232   0.93889689 
   56300    210.17815    8.8840683    133052.69   -41632.059    2615.0158   -44247.075    36.409529   0.93867696 
   56400    211.75296   -32.912606    132935.22   -41625.363    2634.6094   -44259.973     36.25713    0.9395064 
   56500    206.59508    -37.35192    132809.79   -41709.432    2570.4356   -44279.868    36.401967   0.94039373 
   56600     208.5412     191.4939    132798.42    -41719.01     2594.649   -44313.659    36.452706   0.94047419 
   56700    206.95353   -23.487821       132896   -41741.051    2574.8954   -44315.947    36.260868   0.93978368 
   56800    210.70815    134.48768    132962.66   -41666.365      2621.61   -44287.975    36.337483   0.93931255 
   56900     216.0653     32.61626    132951.27   -41659.541    2688.2631   -44347.804    36.529971   0.93939302 
   57000     212.3741   -54.488073    133218.11   -41608.951    2642.3375   -44251.289    36.557099   0.93751139 
   57100    213.75269    15.458924    133092.11   -41669.753    2659.4899   -44329.242    36.634005   0.93839894 
   57200    210.43207    149.55776    133061.27   -41721.972     2618.175   -44340.147    36.652052   0.93861638 
   57300    207.16144    88.777157    133147.07   -41767.054    2577.4821   -44344.536    36.526629   0.93801157 
   57400    206.21201   -4.8405183    133217.19   -41778.657    2565.6695   -44344.327    36.680239   0.93751784 
   57500    206.80239   -90.359693    133184.68   -41833.578    2573.0149   -44406.593    36.693785   0.93774667 
   57600    206.01372   -75.948578    133118.94   -41793.735    2563.2024   -44356.938    36.716824   0.93820979 
   57700    206.37243    -23.32649     133101.8   -41835.106    2567.6654   -44402.772     36.68147    0.9383306 
   57800     203.7495    62.559634    133091.62    -41855.09    2535.0311   -44390.121    36.678067   0.93840237 
   57900     207.6047    120.18354    133033.82    -41825.26    2582.9972   -44408.257    36.852653   0.93881009 
   58000    203.04254    56.988933    133129.92   -41836.158    2526.2352   -44362.393     36.86166   0.93813242 
   58100     210.1898    20.092359    132958.57   -41762.911    2615.1607   -44378.072    36.876408   0.93934141 
   58200    211.04449    110.79568    133064.57   -41714.817    2625.7947   -44340.612    37.013792   0.93859312 
   58300    214.89885    156.67394    133121.76   -41651.984    2673.7502   -44325.735    36.977417   0.93818991 
   58400    213.10661     55.95323    133146.01   -41653.506    2651.4514   -44304.957    37.065574   0.93801904 
   58500      208.481    90.805421    133167.58   -41661.944       2593.9   -44255.844    37.157935    0.9378671 
   58600     208.4451    -57.67193    133038.28   -41620.151    2593.4533   -44213.604    37.072591    0.9387786 
   58700    213.99432   -84.906029    132980.85   -41623.425    2662.4962   -44285.921    37.101361   0.93918404 
   58800    209.95555    78.652693    132864.99   -41669.051    2612.2462   -44281.297    37.085179   0.94000302 
   58900    205.80456    33.261848    132947.11   -41701.938       2560.6   -44262.538    37.155123   0.93942236 
   59000    209.39198    20.276937    133123.19   -41683.829    2605.2343   -44289.063    37.249035   0.93817983 
   59100    208.43218    29.379997    133127.07   -41671.776    2593.2925   -44265.068    37.303643   0.93815251 
   59200    213.22468   -7.1768946    133204.69   -41676.957    2652.9203   -44329.877    37.298901    0.9376058 
   59300    205.61051   -54.327168    133146.16   -41679.169    2558.1856   -44237.354    37.318528   0.93801796 
   59400    205.32616    79.815532    133041.88    -41726.24    2554.6478   -44280.888    37.259382   0.93875324 
   59500    210.06965    14.131767    133122.94   -41699.009    2613.6658   -44312.675    37.245403   0.93818156 
   59600     210.3626    56.563126    133249.34   -41692.538    2617.3107   -44309.849     37.32522   0.93729166 
   59700    211.30567   -151.86431    133255.82   -41716.799    2629.0443   -44345.843    37.283968   0.93724605 
   59800    206.38706    1.1579284    133018.21   -41720.386    2567.8474   -44288.234    37.292632   0.93892026 
   59900    208.86474    101.32442    133026.65    -41694.05    2598.6744   -44292.725    37.421182   0.93886068 
   60000     210.5328   -105.88375    133106.29   -41733.285    2619.4282   -44352.713    37.464977   0.93829894 
   60100    209.16434    8.9756254    133075.15   -41695.715     2602.402   -44298.118    37.533739   0.93851847 
   60200    210.74813    9.1413469    133066.19   -41681.252    2622.1074   -44303.359    37.378296   0.93858167 
   60300    212.50566    -59.44738    133151.59   -41642.712    2643.9745   -44286.686    37.306208    0.9379797 
   60400    213.69477   -45.082177     133129.9   -41598.415    2658.7692   -44257.185    37.474127    0.9381325 
   60500    210.20777    -28.13127    133219.35   -41629.707    2615.3843   -44245.091    37.498362   0.93750262 
   60600    208.25669    103.19809     133242.8   -41686.442    2591.1092   -44277.552    37.552533   0.93733767 
   60700    211.39545    45.684602    133262.48   -41718.239    2630.1614     -44348.4    37.488238   0.93719923 
   60800    211.00176    36.556996    133081.77   -41681.458     2625.263   -44306.721    37.545979   0.93847181 
   60900    207.84132    -68.97749    133225.14   -41675.287    2585.9412   -44261.228    37.657281   0.93746192 
   61000    211.34059   -134.29929    133216.71   -41709.885    2629.4788   -44339.364    37.606762   0.93752123 
   61100     206.2854    31.500633    133309.91   -41739.796    2566.5826   -44306.378    37.726685   0.93686574 
   61200    209.44687   -137.58914    133271.96   -41746.668    2605.9173   -44352.585    37.755985   0.93713256 
   61300    208.64864    17.521345    133249.85   -41731.275    2595.9857    -44327.26    37.767793   0.93728808 
   61400    208.35627    15.623638    133166.71   -41755.254    2592.3481   -44347.602    37.709387   0.93787323 
   61500    207.30477    6.0279458    133179.17   -41753.956    2579.2655   -44333.221    37.634746   0.93778547 
   61600    207.05306    -23.40992    133122.39   -41719.039    2576.1337   -44295.173    37.677545   0.93818548 
   61700    203.66506   -9.2638835     133215.1   -41800.671    2533.9806   -44334.651    37.603239   0.93753252 
   61800    205.45312   -25.721231    133231.93   -41862.133    2556.2274    -44418.36    37.811698   0.93741409 
   61900     209.3047   0.61065359    133070.92    -41791.28    2604.1484   -44395.429    37.864952   0.93854836 
   62000    208.82972    14.599564    133063.75   -41739.313    2598.2388   -44337.552    37.853766   0.93859893 
   62100    209.53697   -5.6159891    133157.83   -41751.238    2607.0383   -44358.277    37.978978   0.93793575 
   62200     210.7287    15.512187    133171.64   -41707.768    2621.8656   -44329.634    37.831773   0.93783851 
   62300    209.25461  -0.74026639    133058.06   -41740.809    2603.5251   -44344.334    37.884945   0.93863904 
   62400    207.33115    28.597319    133044.68   -41674.499    2579.5937   -44254.093    37.832033   0.93873346 
   62500    206.36204    95.049114    133012.31   -41686.547    2567.5362   -44254.083    37.918035   0.93896192 
   62600    210.97123     61.14425       133122   -41693.836    2624.8832   -44318.719    38.132666   0.93818823 
   62700    208.44492    23.512018     133102.6   -41713.014    2593.4511   -44306.465    38.323606   0.93832493 
   62800    206.55897   -78.621112    133086.11   -41695.681    2569.9863   -44265.667    38.437351   0.93844123 
   62900    213.15642    32.595952    133157.93   -41646.636    2652.0711   -44298.707    38.487753   0.93793505 
   63000    214.13952   -176.49912    133095.72   -41615.608    2664.3027    -44279.91    38.544007   0.93837345 
   63100    214.53104     103.1284    132967.12   -41603.547     2669.174   -44272.721    38.258852     0.939281 
   63200    213.79469    14.186106    133035.56   -41645.653    2660.0124   -44305.665    38.358417   0.93879783 
   63300    211.63173   -109.77605    133054.31   -41674.999    2633.1011     -44308.1    38.438454   0.93866554 
   63400    212.19926    28.128059    133025.01   -41608.753    2640.1622   -44248.915    38.670997   0.93887224 
   63500    210.86661   -151.75809    133122.74    -41694.61    2623.5815   -44318.192    38.697223   0.93818297 
   63600    208.75251    138.04062    133142.67   -41681.969    2597.2781   -44279.247    38.481509   0.93804254 
   63700    210.72083   -155.18486    133004.28   -41677.905    2621.7677   -44299.673     38.41824   0.93901856 
   63800    207.55606    27.853051    132830.73   -41777.474     2582.392   -44359.866    38.489679   0.94024549 
   63900    205.45171    175.26774    132856.15   -41758.214    2556.2098   -44314.424    38.577624   0.94006557 
   64000    203.82405   -116.92512    132689.59   -41749.276    2535.9586   -44285.235    38.772758   0.94124556 
   64100    210.39449    -58.42798    132816.81   -41664.372    2617.7074   -44282.079    38.834142   0.94034399 
   64200    212.19168   -24.546971    132855.93    -41647.98    2640.0679   -44288.048    38.810157   0.94006713 
   64300    214.05217   -76.524617    132892.74   -41572.334    2663.2159    -44235.55    38.802772   0.93980676 
   64400    213.13446    16.534314    133032.43   -41596.399    2651.7979   -44248.197    38.884593   0.93881988 
   64500     215.5492    83.650856     133016.1   -41595.317    2681.8418   -44277.158    38.933545   0.93893517 
   64600    213.14305    7.2124796    132928.65   -41649.775    2651.9048    -44301.68    38.957369   0.93955286 
   64700    208.20949   -7.8196566    133034.22   -41672.121    2590.5219   -44262.643    39.016865   0.93880725 
   64800    211.07982    81.637836    132959.36   -41688.815    2626.2342    -44315.05    38.986304    0.9393358 
   64900    208.63109   -73.151367    133123.83   -41661.351    2595.7674   -44257.118    39.006609   0.93817532 
   65000    211.80041    42.337507    133054.03   -41624.968    2635.1998   -44260.168    38.957604    0.9386675 
   65100    208.33983   -89.178546    133088.35   -41649.201    2592.1436   -44241.345    39.068919   0.93842544 
   65200    210.38232    -49.92225    133023.78   -41641.484     2617.556    -44259.04    39.134137   0.93888097 
   65300    210.49592    80.594425    133037.31   -41633.156    2618.9695   -44252.126    39.295448   0.93878548 
   65400    215.21931    -91.41821    132938.42   -41576.351    2677.7373   -44254.088    39.284019   0.93948378 
   65500    209.05197    18.936947    132895.53   -41638.954     2601.004   -44239.958    39.194408   0.93978699 
   65600    211.24517   -66.959865    132922.58   -41667.132    2628.2915   -44295.423    39.163564   0.93959575 
   65700    208.27984   0.41722601    132966.01   -41710.467    2591.3971   -44301.864    39.238931   0.93928885 
   65800    205.61561    134.13288    133081.98   -41724.199    2558.2491   -44282.448    39.194337   0.93847035 
   65900    207.01181   -32.780183    133142.34   -41707.999    2575.6205   -44283.619     39.20019   0.93804492 
   66000    211.94942   -29.043838    133101.56   -41626.371    2637.0537   -44263.425    39.451626    0.9383323 
   66100     211.0909   -140.83661    133012.21   -41579.772    2626.3721   -44206.144    39.661603   0.93896258 
   66200     213.1783    17.306484    133012.08    -41547.06    2652.3434   -44199.403    39.542869   0.93896355 
   66300    209.10198     141.8921    132973.41   -41585.415    2601.6261   -44187.042    39.445104    0.9392366 
   66400    211.13892   -50.206568    133092.85    -41631.86    2626.9695   -44258.829    39.455731   0.93839366 
   66500    207.45305   -76.990967    132996.91   -41649.046    2581.1104   -44230.157    39.602024   0.93907064 
   66600    213.10936   -56.757272    132972.25    -41663.16    2651.4856   -44314.646    39.578318   0.93924476 
   66700    210.11861    146.37622    133001.01   -41682.463     2614.275   -44296.738    39.661681    0.9390417 
   66800    210.12512     100.3285    133029.12   -41627.326     2614.356   -44241.682    39.795721   0.93884322 
[...]
   84600    202.47792   -65.024282    133218.75   -41781.271    2519.2103   -44300.481    44.551899   0.93750683 
   84700    209.52525   -36.471069    133184.01   -41793.286    2606.8925   -44400.179     44.44846    0.9377514 
   84800    212.81494     63.80477    133243.12   -41767.623    2647.8224   -44415.446     44.39873   0.93733536 
   84900    210.38372   -13.972927     133350.6   -41753.764    2617.5734   -44371.338     44.52578   0.93657987 
   85000    211.10095    40.045242    133301.91   -41714.854    2626.4972   -44341.351    44.577334   0.93692201 
   85100    210.12543    35.239637    133293.02   -41710.617    2614.3598   -44324.977    44.649344   0.93698445 
   85200    208.73964    18.655966    133389.28    -41714.71     2597.118   -44311.828    44.522638   0.93630831 
   85300    206.61312   -52.861262    133334.69   -41752.743      2570.66   -44323.403     44.44645   0.93669163 
   85400    208.76072    40.971557     133309.2   -41734.212    2597.3802   -44331.592    44.480822   0.93687074 
   85500    210.50508   -72.042292    133302.84   -41698.785    2619.0834   -44317.869    44.701563   0.93691544 
   85600    209.44922   -80.507683    133193.18   -41680.999    2605.9465   -44286.945    44.638116   0.93768683 
   85700    209.94034    32.924974    133234.05   -41703.281     2612.057   -44315.338    44.604578   0.93739916 
   85800    209.59001   -102.07488    133306.28   -41716.412    2607.6982    -44324.11    44.566018   0.93689129 
   85900    213.15348    53.772945    133007.98   -41613.504    2652.0345   -44265.538    44.492364   0.93899249 
   86000    208.05622   -97.771622    133005.52    -41664.25    2588.6149   -44252.865    44.588571   0.93900984 
   86100    206.53253    187.58798    133137.33   -41649.279    2569.6573   -44218.936    44.709799   0.93808021 
   86200    212.31021    88.516824    133273.91   -41622.837    2641.5426   -44264.379    44.761542   0.93711886 
   86300    209.73279    14.646857    133287.46   -41661.006    2609.4747    -44270.48      44.8204   0.93702359 
   86400    208.35212   -11.096355    133155.35    -41680.49    2592.2964   -44272.787    44.831288   0.93795324 
   86500    207.66321   -31.908923    133134.59   -41659.785    2583.7252    -44243.51     44.74201   0.93809946 
   86600      207.639   0.18387841     133220.2   -41605.945    2583.4239   -44189.369    44.896186   0.93749664 
   86700    210.36316   -144.57368    133180.48   -41590.873    2617.3177    -44208.19    44.906318   0.93777624 
   86800    208.93488    64.342441    133150.06   -41663.001    2599.5471   -44262.548    44.825668   0.93799049 
   86900    214.52258     5.176598    133214.22   -41643.621    2669.0688   -44312.689     44.90271   0.93753871 
   87000    213.12735    31.370205    133205.44   -41645.823    2651.7094   -44297.532    45.160154   0.93760054 
   87100    207.68182    -46.28342    133185.08   -41677.909    2583.9567   -44261.866    45.152784   0.93774389 
   87200    208.70176    67.293227    133122.79   -41674.509    2596.6467   -44271.156     45.07928   0.93818268 
   87300    211.20729   -70.237165     133171.3   -41687.513    2627.8202   -44315.333    44.926144   0.93784087 
   87400    209.37266    47.143231    133195.84   -41700.701    2604.9939   -44305.695    45.009268   0.93766812 
   87500    208.26675    97.512403    133056.96   -41715.718    2591.2343   -44306.953    45.116705   0.93864683 
   87600    209.41264   -46.887333    132908.76   -41731.506    2605.4914   -44336.998    45.232464   0.93969348 
   87700    210.72751    38.471301    133090.38   -41730.613    2621.8508   -44352.463    45.291794    0.9384111 
   87800    211.10137    64.326575    133116.18   -41702.795    2626.5024   -44329.297    45.363329   0.93822921 
   87900    206.22403   -88.528147    133108.05   -41724.561     2565.819    -44290.38    45.224532   0.93828651 
   88000    206.90138   -21.198772    133232.74   -41736.026    2574.2465   -44310.272    45.100691   0.93740842 
   88100    214.43512    40.303734     133294.8   -41664.917    2667.9806   -44332.897    45.198634   0.93697198 
   88200    211.12078   -41.123763    133274.19   -41646.842    2626.7439   -44273.586    45.387671   0.93711686 
   88300    210.60976    17.669822    133211.41   -41689.308    2620.3859   -44309.694    45.339111   0.93755852 
   88400    204.10899   -60.145763    133194.21   -41791.954    2539.5039   -44331.458     45.55548    0.9376796 
   88500    208.86045      -42.469    133132.69   -41688.742     2598.621   -44287.363    45.682201    0.9381129 
   88600     210.4613   -150.10925    133216.45   -41638.757    2618.5387   -44257.296    45.605126   0.93752305 
   88700    210.57081   -118.27574    133332.88   -41613.143    2619.9011   -44233.044    45.509258   0.93670434 
   88800    217.68036    106.11719    133162.09   -41559.191    2708.3576   -44267.549    45.411538   0.93790574 
   88900    214.64167   -63.387529    133156.73    -41609.64    2670.5505    -44280.19     45.36325   0.93794349 
   89000    211.24696   -104.72776    133093.23   -41585.012    2628.3138   -44213.325    45.828153   0.93839101 
   89100    208.42557   -128.07023    133140.39   -41675.893    2593.2103   -44269.103    45.837879   0.93805861 
   89200    207.52346    93.660001    133133.05   -41694.515    2581.9864   -44276.501    45.698143   0.93811033 
   89300    209.79341    106.58544    133240.06   -41719.532    2610.2289    -44329.76    45.495323   0.93735694 
   89400    207.60336    115.71759    133193.64   -41741.425    2582.9805   -44324.406    45.398502   0.93768358 
   89500    208.62865   -101.94113    133090.69   -41774.372    2595.7371   -44370.109    45.286946   0.93840889 
   89600    208.41649    81.040348    133074.33   -41814.908    2593.0974   -44408.006    45.163542   0.93852432 
   89700    205.53974     20.84186    133086.77   -41781.293    2557.3052   -44338.598     45.49701    0.9384366 
   89800    205.93125   -5.9070629    133182.52   -41744.507    2562.1763   -44306.683    45.715931   0.93776186 
   89900    204.04783   -14.445636     133229.9   -41798.217    2538.7429    -44336.96    45.655931   0.93742837 
   90000    204.30752   -15.648507    133213.48   -41716.906     2541.974    -44258.88    45.521893   0.93754394 
   90100    213.37105   -42.724565    133252.59   -41728.404    2654.7415   -44383.145    45.427846    0.9372688 
   90200    207.34051    28.033302    133269.85   -41757.975    2579.7102   -44337.685    45.515303   0.93714738 
   90300    207.86655    12.802258    133150.95   -41760.203    2586.2551   -44346.458    45.569608   0.93798423 
   90400    205.63387    144.11786     133177.4   -41753.015    2558.4763   -44311.491    45.683817   0.93779792 
   90500    210.23564   -42.125207    133139.88     -41730.1     2615.731   -44345.831    45.651682    0.9380622 
   90600    215.33274    58.265412    133234.64   -41649.389    2679.1487   -44328.538    45.758021   0.93739508 
   90700    210.25769    101.11234     133325.7   -41658.336    2616.0053   -44274.341    45.917513   0.93675482 
   90800     213.5754    86.256397    133290.85   -41693.549     2657.284   -44350.833    45.648642   0.93699977 
   90900    204.52772   -91.583819    133227.46   -41785.189    2544.7137   -44329.902    45.533244   0.93744554 
   91000    207.39219   -32.231682    133157.63   -41796.796    2580.3531   -44377.149    45.484148    0.9379372 
   91100    206.59898    84.468109    133174.06   -41781.842     2570.484   -44352.326    45.534278   0.93782144 
   91200    208.58301   -9.3510997    133289.37   -41739.837    2595.1692   -44335.006    45.871129   0.93701016 
   91300    211.58069    29.566341    133070.23    -41650.53    2632.4661   -44282.996    45.939188   0.93855321 
   91400    210.80444   -80.230363    133124.54    -41626.19     2622.808   -44248.998    45.669977   0.93817028 
   91500    207.62169    43.338175    133192.55   -41622.237    2583.2086   -44205.445    45.717089   0.93769129 
   91600    206.67871   -84.128651    133237.03   -41654.112    2571.4761   -44225.588    45.814098   0.93737826 
   91700    209.24621    51.354903    133187.37   -41725.644    2603.4206   -44329.064    45.788141   0.93772772 
   91800    210.66209   -64.782961    133202.25   -41690.056    2621.0369   -44311.093    45.941996   0.93762298 
   91900    207.98385   -84.796862    133276.42    -41695.79    2587.7146   -44283.504    46.179731   0.93710117 
   92000    209.25641   -23.129083     133204.7   -41709.299    2603.5476   -44312.846    46.177055   0.93760571 
   92100    207.92166    77.880613    133202.92   -41751.845    2586.9407   -44338.786    45.912065   0.93761825 
   92200    210.74359   -119.16525    133160.72   -41696.915    2622.0509   -44318.966    45.861354   0.93791541 
   92300    210.36494   -40.269596    133218.11   -41621.364    2617.3398   -44238.704    46.072972   0.93751134 
   92400    214.15249    -14.93422    133305.95   -41633.144    2664.4641   -44297.608     46.13048   0.93689362 
   92500    211.77219    -104.8846    133278.91    -41677.95    2634.8486   -44312.799     46.19215   0.93708371 
   92600    211.49423    158.03633    133257.34    -41654.93    2631.3903   -44286.321    46.194759   0.93723536 
   92700    213.25399   -100.28786    133276.54   -41640.577     2653.285   -44293.862    46.228583   0.93710032 
   92800    208.88001   -137.61914    133390.62   -41684.068    2598.8644   -44282.932    46.009079   0.93629889 
   92900    215.35447    85.425309     133460.4   -41644.323    2679.4191   -44323.743    46.008503   0.93580937 
   93000    206.59577   -5.0572015    133433.26   -41679.036    2570.4441   -44249.481    46.039841   0.93599969 
   93100    212.08876     18.94824    133332.43   -41616.168    2638.7874   -44254.956    46.259245    0.9367075 
   93200    216.54498   -17.488405    133400.92   -41624.713    2694.2312   -44318.944    46.554033   0.93622663 
   93300    211.82977   -47.656982    133513.81   -41655.905    2635.5651    -44291.47    46.421763   0.93543502 
   93400    208.99222    71.979269    133581.23   -41684.363    2600.2606   -44284.624    46.496145   0.93496286 
   93500    207.41046     66.79839    133443.62    -41718.73    2580.5804    -44299.31    46.421384   0.93592701 
   93600    208.88943    34.507268    133650.95    -41777.68    2598.9816   -44376.661    46.293888   0.93447516 
   93700    206.68631    3.3501685    133720.92   -41741.101    2571.5707   -44312.672    46.441513   0.93398619 
   93800    207.90687   -69.193275    133497.72    -41712.31    2586.7568   -44299.067    46.363343   0.93554772 
   93900    209.15151   -76.360958       133454   -41698.697    2602.2424    -44300.94    46.350302   0.93585422 
   94000    213.35694   -103.57359    133555.64   -41708.145    2654.5659   -44362.711     46.41136     0.935142 
   94100     210.9982    90.801297    133616.25   -41703.249    2625.2187   -44328.468    46.133299   0.93471782 
   94200    210.41409   -97.535876    133613.59   -41696.223    2617.9513   -44314.174    46.088974   0.93473645 
   94300    210.25622    12.422139    133565.53   -41647.931    2615.9871   -44263.919    46.216122   0.93507279 
   94400    207.89944   -75.933259    133694.25   -41648.214    2586.6643   -44234.879    46.476375    0.9341725 
   94500    213.81443   -27.410888    133471.44   -41584.231    2660.2581   -44244.489    46.495797   0.93573194 
   94600    211.42742    1.9685111    133563.45    -41623.51     2630.559   -44254.069    46.684241   0.93508733 
   94700    210.23653    31.167915    133480.58   -41659.348    2615.7421    -44275.09    46.456721   0.93566789 
   94800    206.74521   -169.05276    133319.05   -41664.088    2572.3035   -44236.392    46.295693   0.93680156 
   94900    211.62078     32.41918    133367.12   -41639.028    2632.9648   -44271.993    46.385812    0.9364639 
   95000    210.24149   -38.403457    133298.55   -41623.713    2615.8039   -44239.517    46.680263   0.93694562 
   95100    214.26195      4.17154    133390.39   -41621.894     2665.826    -44287.72    46.821368   0.93630053 
   95200    213.44743   -131.40134    133502.22    -41644.91    2655.6918   -44300.602    46.689864   0.93551619 
   95300    212.94724   -94.199645       133420   -41554.789    2649.4685   -44204.258    46.520745   0.93609275 
   95400    213.08147   -14.575608    133429.22   -41620.316    2651.1386   -44271.455    46.458276   0.93602804 
   95500    210.20996    12.503723    133533.22   -41625.492    2615.4116   -44240.904    46.585378   0.93529901 
   95600    211.07139   -41.261895    133418.44   -41610.144    2626.1294   -44236.273    46.796626   0.93610364 
   95700    208.53556    135.68522    133610.13   -41674.336    2594.5788   -44268.915    46.784519   0.93476064 
   95800    207.06943   -42.978083     133568.8   -41716.353    2576.3374   -44292.691    46.795561    0.9350499 
   95900    209.91986    -125.2422    133573.95   -41666.997    2611.8022     -44278.8    46.798218   0.93501382 
   96000    207.01766   -89.353853    133511.16   -41745.205    2575.6933   -44320.898    46.700803   0.93545355 
   96100    209.68621    57.380856    133650.66   -41696.391    2608.8951   -44305.286    46.500841   0.93447715 
   96200    207.77695   -15.484652    133440.06   -41728.425    2585.1403   -44313.565    46.753718   0.93595199 
   96300    208.62722   -81.554714    133377.72   -41667.387    2595.7192   -44263.107    46.783192   0.93638943 
   96400    212.75134   -108.91448    133517.49    -41649.53    2647.0312   -44296.561    46.664217    0.9354092 
   96500    210.53938    7.3692121    133453.63   -41693.945    2619.5102   -44313.455    46.727704    0.9358568 
   96600    211.20887   -25.302456    133230.75    -41690.11    2627.8399    -44317.95    46.773374    0.9374224 
   96700    207.90337   -33.935816    133425.85   -41761.738    2586.7132   -44348.451    47.025297    0.9360517 
   96800     203.4986   -61.742249    133418.68   -41811.031    2531.9095   -44342.941    47.111815   0.93610198 
   96900    208.88231   -22.030267    133394.48   -41754.958     2598.893   -44353.851    47.023063   0.93627179 
   97000    205.91604    36.658874    133253.74   -41759.073     2561.987    -44321.06    47.081695   0.93726068 
   97100    209.59797    41.280142    133382.34   -41756.772    2607.7972   -44364.569    47.172865   0.93635703 
   97200    209.49907    118.26676    133275.89   -41781.535    2606.5667   -44388.102    47.035142   0.93710488 
   97300    206.10946   -86.888639       133287   -41777.877    2564.3935   -44342.271    46.932124   0.93702679 
   97400     207.9812    1.2792976    133261.98   -41778.986    2587.6816   -44366.668    47.018816   0.93720276 
   97500    211.61027    76.411993    133313.22   -41694.868    2632.8341   -44327.702    47.080391   0.93684253 
   97600     207.4586    42.518674    133302.38    -41767.45    2581.1794   -44348.629    47.112337   0.93691867 
   97700    207.97916    100.21669    133387.66   -41712.305    2587.6561   -44299.961    47.111107   0.93631969 
   97800    210.06707   -74.267089    133248.22     -41698.4    2613.6337   -44312.034    47.086336   0.93729949 
   97900    212.69001    -102.2608    133266.55   -41661.575    2646.2681   -44307.843    47.010114   0.93717058 
   98000    215.61992   -64.144908    133276.14   -41683.977    2682.7217   -44366.698    46.970162   0.93710316 
   98100     209.3795   -138.64506    133160.65    -41745.31     2605.079   -44350.389    47.026948   0.93791591 
   98200    210.19762   -115.49107    133034.02   -41727.707     2615.258   -44342.965    47.038168   0.93880865 
   98300     209.3882    -123.0733    133078.56   -41747.332    2605.1873    -44352.52    47.278052   0.93849449 
   98400      209.407   -67.178569    133237.24    -41758.51    2605.4213   -44363.931    47.371198   0.93737678 
   98500    209.43508    38.837283    133238.51   -41761.459    2605.7706   -44367.229    47.184518    0.9373678 
   98600    211.62119    150.68889    133217.09   -41787.817    2632.9699   -44420.787    47.149984   0.93751856 
   98700    208.50576    101.66549    133273.08   -41843.452    2594.2081    -44437.66    47.130542   0.93712464 
   98800    205.78182   -65.699591    133337.22   -41816.571     2560.317   -44376.888     47.20413   0.93667385 
   98900    207.65226   -84.824259    133357.58   -41825.605    2583.5889   -44409.194    47.464587   0.93653085 
   99000    206.20291    128.08872    133311.12    -41868.78    2565.5563   -44434.337    47.461964   0.93685725 
   99100    205.87035    4.2001703     133298.3    -41790.92    2561.4185   -44352.338    47.516237   0.93694737 
   99200    207.21952   -68.874044    133347.25   -41779.456    2578.2047   -44357.661    47.528741   0.93660346 
   99300    212.22406    88.798392    133280.32   -41737.943    2640.4708   -44378.414    47.539782   0.93707377 
   99400    211.70039    34.512733    133373.78   -41717.121    2633.9554   -44351.077    47.378264   0.93641712 
   99500    213.00852   -3.4935351    133593.14   -41599.689     2650.231    -44249.92    47.653745   0.93487952 
   99600    217.80946   -42.574182    133526.81   -41618.615    2709.9637   -44328.578    47.530359   0.93534394 
   99700    217.08996   -9.7676144    133401.37   -41625.234    2701.0118   -44326.245    47.804362   0.93622348 
   99800     208.9816   -16.263278    133440.23   -41639.194    2600.1284   -44239.322     47.71956   0.93595081 
   99900    211.37687    40.787802    133496.56   -41691.999    2629.9302   -44321.929     47.74075   0.93555586 
  100000    212.28002    42.428536    133561.24   -41706.831     2641.167   -44347.998    47.759272   0.93510283 
  100100    214.44366   -107.51138    133515.04   -41641.431    2668.0869   -44309.518    47.691574   0.93542639 
  100200    211.55523   -30.502897    133429.23   -41649.993    2632.1492   -44282.142    47.863065     0.936028 
  100300    214.43531   -101.07345    133410.56   -41644.292    2667.9829   -44312.275    47.747446   0.93615896 
  100400     210.1649    4.5742247    133308.55   -41689.416    2614.8509   -44304.267    47.691577   0.93687531 
  100500    214.68257   -49.438628    133187.68   -41619.554    2671.0593   -44290.613    47.485494   0.93772553 
  100600    211.24211    107.94559    133253.46   -41706.684    2628.2534   -44334.937    47.697742   0.93726265 
  100630    215.60074    87.806063    133306.23   -41697.139    2682.4831   -44379.622    47.575254   0.93689166 
Loop time of 77.0709 on 6 procs for 100000 steps with 4175 atoms

Performance: 560.523 ns/day, 0.043 hours/ns, 1297.507 timesteps/s
98.5% CPU use with 6 MPI tasks x no OpenMP threads

MPI task timing breakdown:
Section |  min time  |  avg time  |  max time  |%varavg| %total
---------------------------------------------------------------
Pair    | 58.517     | 61.427     | 64.431     |  23.3 | 79.70
Neigh   | 4.7845     | 4.8229     | 4.8534     |   1.3 |  6.26
Comm    | 5.2452     | 8.2783     | 11.206     |  63.9 | 10.74
Output  | 0.15987    | 0.16062    | 0.16401    |   0.4 |  0.21
Modify  | 1.7488     | 1.7704     | 1.7915     |   1.2 |  2.30
Other   |            | 0.6116     |            |       |  0.79

Nlocal:        695.833 ave         705 max         685 min
Histogram: 1 0 1 1 0 0 0 0 2 1
Nghost:        1461.50 ave        1481 max        1445 min
Histogram: 2 0 0 0 1 0 2 0 0 1
Neighs:        0.00000 ave           0 max           0 min
Histogram: 6 0 0 0 0 0 0 0 0 0
FullNghs:      19027.0 ave       19289 max       18596 min
Histogram: 1 0 0 1 1 0 0 0 0 3

Total # of neighbors = 114162
Ave neighs/atom = 27.344192
Neighbor list builds = 5201
Dangerous builds = 0

undump              1
unfix               2
unfix               3
unfix               4


################################################
#######         Run Simulation         #########
################################################

reset_timestep      0
log                 log.run_${NAME}
log                 log.run_liquid_density_MLmW
