LAMMPS data file via write_data, version 29 Oct 2020, timestep = 800000

4175 atoms
1 atom types

-0.8210099128952848 50.821009912892904 xlo xhi
-0.8210099128952848 50.821009912892904 ylo yhi
-0.8210099128952848 50.821009912892904 zlo zhi

Masses

1 18.015

Atoms # atomic

216 1 -0.48726987177413633 -0.27130603977959356 1.1350851344055157 0 0 0
2031 1 2.235329178839537 -0.5312277816956981 1.3385205547873906 0 0 1
2309 1 3.178700191214722 1.8705627549839017 0.942803979541313 0 1 0
379 1 7.874589840918905 0.33747753296140126 -0.2662080826454163 0 0 0
632 1 9.582532309332164 0.960320239666552 1.9603889404351178 0 0 0
2541 1 15.144298250768548 24.899544477063174 10.547357596863991 0 0 0
169 1 18.367098511945464 0.3083668777685713 1.891104514508334 0 0 0
247 1 23.064017087810345 1.5948878944895637 1.239789738239204 0 0 0
2590 1 39.71117758737424 -0.5032834300258888 7.473210383458198 -1 1 0
74 1 27.675727576096627 1.8005967865816164 2.4108203595438784 0 0 0
3810 1 27.938404222535894 -0.3091754578000262 0.8390711645000695 0 1 1
162 1 36.434148990196555 1.362478217399953 0.8207185897689473 0 0 0
1748 1 41.57409376002814 0.2238225257858042 0.0555624696322814 0 0 1
1482 1 44.60851875745191 1.5478656571049942 2.8062241464906945 0 0 1
2726 1 46.76258198338717 0.2525178774717771 1.7884050156829727 0 1 0
1982 1 47.87044471077558 2.4346942367140265 0.5403964252686793 -1 0 1
3918 1 50.43804901354859 1.6790203220085766 -0.41885717228743086 -1 1 1
1851 1 1.0128333474157591 3.2919166945068072 -0.22717776551756175 1 0 1
73 1 0.6196639098049561 5.660375668400896 1.3118754442618905 1 0 0
268 1 7.0490816160450755 5.510135823309572 2.182045435635923 1 0 0
4103 1 11.56378627165013 2.323342221264142 0.9171062721073246 0 1 1
2040 1 11.920341747192303 4.47223786566338 2.516892180501726 1 0 1
1512 1 16.59332482339613 2.1900848980863215 0.7934992738013285 0 0 1
610 1 16.07840341901506 4.335834179884132 2.5168139398095866 0 0 0
604 1 27.73696534540745 4.05211246983847 0.7098923824763368 0 0 0
474 1 32.48872867502382 2.6023816638340973 0.619721746326759 0 0 0
382 1 30.50169821215568 4.723570347981597 1.023129488920602 0 0 0
1888 1 34.15471615892877 4.85081704205616 0.8628850009698941 0 0 1
1972 1 22.904855495858364 3.624224994252378 -0.5877107805870163 0 0 1
16 1 41.7069340180861 4.67597935274142 2.2803678304851602 0 0 0
1506 1 0.33187821407500473 -0.7153051199963613 5.706812428227963 1 0 1
579 1 44.3365983597579 4.048493669044413 1.8533939733128455 0 0 0
3117 1 33.14978640682469 24.820928759482072 14.4218901744331 0 0 0
502 1 47.74876528127418 5.124800049261866 1.6927597171180504 -1 0 0
2037 1 -0.39889583078528534 7.707854660159164 -0.34750282341114963 1 0 1
459 1 3.7974492600695084 8.54412480625307 0.14471579495700448 0 0 0
1413 1 4.543296122505941 7.145983379039733 2.5076330464804393 0 0 1
1767 1 9.803846075642902 6.203807019169609 1.7856650822965578 0 0 1
396 1 25.27742372017339 -0.28995809800479555 7.673560454123139 0 0 0
198 1 13.944973150271013 5.909749474249553 1.296994623771469 0 0 0
1819 1 13.466359600669346 8.550599206298495 2.1051598734950945 0 0 1
2025 1 40.850478306937624 4.374742684322532 -0.4294478344548386 0 0 1
708 1 18.453791118301705 5.816933505497486 2.38664753737467 0 0 0
1768 1 21.746065007359395 7.968627105104922 0.07719122001373768 0 0 1
576 1 23.412783931702144 5.9411132060837515 0.9495343618749295 0 0 0
67 1 25.967916508230815 6.37198904386174 0.3357886112724848 0 0 0
1077 1 34.072610796012775 9.100651102215453 1.1517490918794113 0 0 0
144 1 38.03580640983127 6.647471458720572 1.8352113230284486 0 0 0
43 1 41.45806822328154 9.25681917807662 0.5806554845261882 0 0 0
1832 1 46.89733714544768 7.7019591780294725 -0.45646827166711146 0 0 1
1986 1 49.11329070899218 7.812492426471044 1.2787697179715756 0 0 1
1911 1 1.3830063036034392 10.091759517556744 0.2143638032118036 0 0 1
2027 1 10.766503684495069 19.503877098846413 0.0034583896893802812 0 0 1
437 1 7.20450969610787 11.079245418528055 2.1335176756221754 0 0 0
1688 1 6.153493591995314 10.073105641429715 -0.14019288345928582 0 0 1
1607 1 9.674757998381414 11.308766731274453 1.0651031512676652 0 0 1
2053 1 11.6701363278898 9.532327916066482 0.19166976078843434 0 0 1
1783 1 16.75474283883163 10.294221339447557 -0.186687065817966 0 0 1
113 1 16.062084519551465 9.979902382194593 2.566558142506414 0 0 0
1916 1 19.12041099019105 12.007291078879058 0.050663173840610365 0 0 1
570 1 20.85685057830217 10.18607244779685 1.3674180561156648 0 0 0
516 1 23.69681453597119 10.486965650909044 1.7496103028827323 0 0 0
338 1 25.93759557468432 10.83068739029359 0.13618228756743989 0 0 0
534 1 29.956122720662886 10.280827780521022 1.3705476827663303 0 0 0
151 1 32.37859643556776 11.109878200651211 0.6964410985777232 0 0 0
503 1 36.69516791311115 9.09477631174316 1.8110132324425239 0 0 0
128 1 38.05798015141161 11.087210708397727 0.47299636457562766 0 0 0
1534 1 40.619926884029525 11.795221338511928 1.0549867318700534 0 0 1
436 1 43.471621205592456 9.55467216537708 2.456905848340123 0 0 0
1574 1 45.00922045900592 9.400100854739453 0.2546789470395039 0 0 1
323 1 46.38260378130416 11.586428260244006 1.2744575052599583 -1 0 0
553 1 48.72310786484966 10.487158506155994 2.3797578490255633 0 0 0
1487 1 0.7569654291878367 14.05825208983125 0.8609380391556858 1 0 1
1582 1 -0.3844817757366464 12.548690668582918 2.759950242055485 0 0 1
2054 1 5.488425663862876 14.907175348503408 1.12602669171565 0 0 1
2003 1 10.932828358823501 13.428555066715525 1.913069768459199 0 0 1
462 1 41.907762120728634 13.833671245811884 -0.3635245721514337 0 0 0
370 1 13.846854464351281 14.15005615744893 1.981630278820333 0 0 0
2374 1 23.21953350111554 -0.733343790871615 0.11675376571981311 0 1 0
1631 1 18.656406335937156 14.224578891767486 1.4852974644575236 0 0 1
646 1 28.13199840972297 12.228177745170097 1.165311441389408 0 0 0
662 1 28.915045682556986 14.812410445244145 0.28609995824897916 0 0 0
1854 1 34.141955510172025 13.282026802304715 1.5926543428621898 0 0 1
266 1 33.3065048173152 15.691761440193126 0.4518303383037805 0 0 0
2099 1 37.12338389245062 13.455897114422662 1.3733927305181233 0 0 1
660 1 43.10301931795063 14.831443775239125 2.093301323399619 0 0 0
1242 1 20.675843809612854 20.6544663517765 16.226328754883344 0 0 0
108 1 2.9506611907549196 15.552916738072472 1.7314476232274112 1 0 0
1429 1 2.4704059016137707 18.09030983743966 0.4481042744555068 0 0 1
626 1 7.542171795726546 16.983586246740728 1.2418745295489728 0 0 0
1577 1 9.72470966112726 15.622079848398577 0.4075054289392477 0 0 1
2063 1 11.4672279186102 17.482572737059485 1.896267344248372 1 0 1
1794 1 16.766680490055556 16.018761523241682 0.19555987559660948 0 0 1
549 1 16.017067149701774 17.603644238018983 2.1605877967642098 0 0 0
2105 1 21.243954669878686 15.247463657550874 1.2073189832662101 0 0 1
512 1 26.447905121178334 15.647375739870562 0.8576373003422006 0 0 0
1445 1 26.993421080423605 18.327583883656725 0.3506565746319992 0 0 1
1945 1 30.69335120766993 16.251189275068494 1.6273118593731821 0 0 1
460 1 35.40971848456519 17.552582181662043 0.04438680374324189 0 0 0
252 1 36.866918495239176 18.638933795640117 2.256861396187207 0 0 0
383 1 37.92784654758522 15.959651590558025 0.3080462233190322 0 0 0
536 1 39.65868977879069 17.699200189433483 1.9102962370233687 0 0 0
2410 1 25.985791742175618 24.7729790597663 3.3260135567353757 0 0 0
294 1 44.86902316965263 16.69427455583316 1.4940085771893141 0 0 0
634 1 48.93919503097945 16.577588850999096 2.338238674040787 -1 0 0
1948 1 50.10893049555455 15.580389002713844 0.05524651442985962 0 0 1
2476 1 2.8162645788845078 20.089848644540528 2.577622192089343 0 0 0
1867 1 6.743415645440615 19.331874718902668 -0.10365529670428553 0 0 1
81 1 5.447279729447072 20.773099185028713 1.878376350951796 0 0 0
194 1 6.079292289111834 -0.320723082260582 12.740012595534072 0 0 0
443 1 41.01395957931335 18.80643741185911 -0.30789476010760375 0 0 0
3754 1 15.636760340796219 20.109822176066487 0.8994114964455098 0 0 1
448 1 19.561139473869197 21.9677709323787 1.5156590145172877 0 0 0
2197 1 21.032819968047963 19.61085252907402 1.1572560998541777 0 0 0
2679 1 23.763406176259842 20.98218798344943 1.421284602159032 0 0 0
417 1 29.735428718202748 18.662994989201557 2.057392989130726 0 0 0
1790 1 34.00756207722971 20.20027066087766 0.6074978222066034 0 0 1
2049 1 36.11557598766854 21.536984823448538 1.5572888381127066 0 0 1
211 1 9.28590106201148 -0.5878405583741197 9.638841574990462 0 0 0
1494 1 38.85309158592827 22.123364534990394 1.222482004033723 0 0 1
681 1 43.31881461608465 19.046115517468927 1.1728260632435568 0 0 0
47 1 46.89268504459088 21.09212211707912 0.5432572731671645 0 0 0
514 1 50.40038492623309 19.963099110700988 -0.223449564466354 0 0 0
1935 1 1.415924934047399 23.97276796913395 1.0064550104719523 0 0 1
623 1 50.58160551003841 22.630747314231552 0.8727271890902815 -1 0 0
720 1 20.473758092891853 2.0653223918885635 15.987066598446937 0 0 0
492 1 6.011494685273505 22.900016900902003 0.4941597098430319 0 0 0
1400 1 48.49367807457449 21.43784570388564 13.789639622747863 0 0 0
2672 1 6.47554341333677 24.929805397189643 2.458600686637756 1 0 0
297 1 11.167805455833767 22.564254870413976 0.9439758772136284 0 0 0
1061 1 48.28874753325033 9.868821165540451 16.108359419048778 0 0 0
2511 1 15.335682026275236 24.60209243167698 1.502153577515236 0 0 0
2432 1 20.93469685835006 23.843880047253254 0.34559015660254566 0 0 0
1766 1 33.66289698994051 6.981903535622529 -0.783457356044375 0 0 1
4081 1 29.179658334324113 23.655459185481746 0.1955626542404656 0 0 1
2112 1 31.860776383025744 22.784548500171976 -0.006184309938003896 0 0 0
1877 1 14.734088770399202 14.50789843991495 -0.6222726131581329 0 0 1
1925 1 8.62932323347708 23.14092306467417 -0.6737587705008098 0 0 1
488 1 42.89420422824724 23.312427801696032 2.260782177860996 0 0 0
2749 1 46.843021454640784 23.738433792166497 1.3123266586441225 0 0 0
665 1 4.125227390506678 0.2797699408082235 5.0871153932068545 1 0 0
1850 1 8.390348293017183 1.6585789214942501 4.243899946394178 0 0 1
357 1 46.92107138035285 23.38958007948357 14.644859880634087 0 0 0
2205 1 11.562325185677063 0.36940313383816337 5.944327912260139 0 1 0
2300 1 12.889896635055111 2.3369162261891105 4.30430119689641 0 1 0
2032 1 14.574713140542974 0.5278810951103714 2.5994800311803212 0 0 1
686 1 5.652917674836752 1.942959598465238 -0.5164391967286384 0 0 0
2768 1 20.588724268381736 1.7331528279577437 2.6496396421937427 0 1 0
2450 1 21.36503864948952 -0.07431794809278547 4.726813516547294 0 1 0
285 1 24.13545348582083 -0.4960271846400011 5.142961811372759 0 0 0
106 1 24.87617824099946 1.711581627157809 3.047760437379348 0 0 0
96 1 29.45598899382012 0.966479521015422 4.366035090071824 0 0 0
2807 1 31.911542852547996 1.1010721716599563 3.0523353367225967 0 1 0
3898 1 33.86429994270889 1.149006722225132 5.256266908431191 0 1 1
2454 1 36.44535896339108 1.0769720260499447 5.354171475882159 0 1 0
2149 1 40.599247907787095 2.7083771622563093 3.8452842698844414 0 1 0
372 1 42.09668951680273 0.6013862763405113 2.6148776737989334 0 0 0
393 1 45.011426050121436 2.151890591868895 5.7420410980322645 0 0 0
280 1 4.538235597236776 -0.6305922590261654 10.32156382866989 0 0 0
589 1 50.5144253119826 0.46937779343565733 3.7946393251148383 0 0 0
4056 1 -0.6243965896095932 3.2012901136803027 4.625532568035645 0 1 1
2268 1 2.1941063607060856 4.054734962639622 4.89536512992251 1 1 0
1740 1 3.994623188568264 2.522777161384313 3.595167736522499 0 0 1
380 1 6.5207082158501875 3.5263088587260123 4.131869773576512 0 0 0
2095 1 6.182946338310577 5.207209030604008 6.185843144078173 0 0 1
61 1 15.116936592999442 3.9724593352943183 5.117033407850668 0 0 0
595 1 20.142090979700164 4.198119651166655 3.789592659606928 0 0 0
34 1 24.33443975916645 3.961957079207288 4.437339062866187 0 0 0
135 1 26.749870876415194 5.037418953851122 4.731676769698402 0 0 0
3650 1 28.87785829353877 3.2566989330670353 5.7829190700008875 0 1 1
612 1 30.981379112463006 5.3014406885698735 5.581914088284377 0 0 0
600 1 34.417890652125735 5.2804614211935395 3.6626873463726035 0 0 0
160 1 33.55120555517166 3.858257787639185 6.029476576246049 0 0 0
2133 1 37.75207764336971 2.3805805754155274 3.144972202156621 0 1 0
638 1 37.08830804894124 5.030176963264865 3.9476365039527517 0 0 0
2365 1 40.89740648165979 4.275796048119569 6.089384489866091 0 1 0
312 1 45.895184859958015 5.602218264949603 3.5681464796749776 0 0 0
2720 1 50.2070473087462 5.072386028020114 2.955612465321982 0 1 0
227 1 1.004859817247588 8.416141725388588 4.223870513141025 0 0 0
597 1 2.230410761544006 6.168152213899145 3.152587862477453 1 0 0
213 1 5.834124287629372 7.806388512601693 5.121417117118205 0 0 0
1969 1 10.04336460696593 7.71702318913489 4.205853909586212 0 0 1
89 1 12.678500304659192 8.680161771366532 4.694342723143901 0 0 0
530 1 17.74270157815213 8.102068705337382 3.8115932651931406 0 0 0
306 1 22.513597208657803 5.5001376946782 3.4101450445227446 0 0 0
115 1 22.69531242735075 7.965796376215069 4.60550013498943 0 0 0
705 1 26.803266368473256 7.456576899885453 2.819857617123097 0 0 0
699 1 30.973072078314516 6.620450062567539 3.258128695500351 0 0 0
1 1 33.462162648647706 8.077282432821258 3.6190061233647617 0 0 0
131 1 34.44529723179315 9.404001461594278 5.794894431500662 0 0 0
75 1 40.737735042263935 7.3128221530275574 2.335898250944567 0 0 0
433 1 38.62743696883609 5.655145068356503 6.052139436708365 0 0 0
425 1 41.24403825403234 8.513882910225348 4.829671076273661 0 0 0
567 1 38.70923051921386 8.452897865028541 5.857236229249228 0 0 0
1764 1 45.228040480318775 8.209120238844518 3.9451014056852314 0 0 1
562 1 50.13832158903362 7.132855059004392 4.687417528285588 0 0 0
281 1 1.7434725833337477 10.67831770977506 2.9199930257392763 1 0 0
1592 1 3.8097847618240497 11.924432367095386 4.350825207759117 1 0 1
616 1 7.994345479120282 9.427505718320333 4.133619335046829 0 0 0
222 1 9.077240152046853 11.100098219661882 6.2439666676792305 1 0 0
495 1 20.386905712821438 9.358782209767252 3.875565391205762 0 0 0
554 1 19.721548305652767 11.866682495331945 5.059584323538224 0 0 0
424 1 24.972199689229633 9.285649957444774 3.621222598038731 0 0 0
625 1 25.772610274283384 10.962008705270097 5.5435294280708565 0 0 0
452 1 29.24239149756949 8.625525539789702 3.6228780480131864 0 0 0
351 1 29.56083498766874 9.352909360951521 6.411483400006028 0 0 0
220 1 36.79315976864253 10.119186563310558 4.5283686709126485 0 0 0
121 1 41.49029734044983 11.404621346596091 4.263012795447352 0 0 0
574 1 47.928437511801356 8.952971607229657 4.514824231607806 0 0 0
456 1 2.944710559681279 13.696740598281236 6.145678791796128 1 0 0
56 1 5.883353770637091 13.11545456738498 3.1845870626180606 1 0 0
32 1 7.550879604770259 13.429203302031274 5.5545283091917055 0 0 0
37 1 10.176576024910498 13.983452340262428 4.570497644905438 1 0 0
439 1 14.144282044227815 12.460807526817952 6.013026773339631 0 0 0
365 1 15.32759385620431 12.490227106618656 3.3941916073525515 0 0 0
548 1 17.72047383601687 13.48488871315669 3.8696033277381927 0 0 0
363 1 23.02464133905817 13.47257748088352 2.4308913698968 0 0 0
239 1 22.235906306880768 13.09109695093243 5.125116490731542 0 0 0
201 1 25.332017596771447 14.72069260473551 3.116815741846547 0 0 0
317 1 27.197386163686776 12.785421834569997 3.8461917089058435 0 0 0
152 1 29.020013051178235 13.636792848935425 5.6531543246489955 0 0 0
555 1 30.959354979034664 15.12471535960447 4.315786216719099 0 0 0
230 1 33.7013394490691 13.631392875698717 4.225968775091089 0 0 0
545 1 35.90893693203105 14.892296636563747 4.780424374520959 0 0 0
119 1 37.647533428365605 12.44242486256338 5.416967602246869 0 0 0
42 1 39.39864663712744 13.413723687958989 3.169839546156672 0 0 0
332 1 44.38205981358341 12.619414126761981 3.14472541323667 0 0 0
581 1 45.53571288275761 13.487795412444587 5.57671773753645 0 0 0
394 1 50.19896439238984 14.874158064412049 4.018904412312727 0 0 0
1459 1 0.07903995728942304 16.36033347222375 5.688621625691963 1 0 1
127 1 3.085705106881745 15.79379331097217 4.523875667145914 0 0 0
1612 1 5.514000201603902 16.39896201513568 5.6623329141589736 1 0 1
1473 1 7.261566192219888 17.929497363421515 3.999659591171457 1 0 1
302 1 9.802304403513068 16.8201851997436 4.349994002954373 0 0 0
356 1 13.150213161266834 16.778458948242623 5.84043599692316 0 0 0
1699 1 13.691110310643557 16.650026626852558 3.1644186085285626 0 0 1
454 1 18.321935008641212 17.795775895802485 4.130066349593113 0 0 0
656 1 18.35658004878201 15.66394397524827 5.656954693913656 0 0 0
90 1 20.84862556261619 17.56886182936927 3.0260790263904416 0 0 0
596 1 22.437580189048994 17.549921597217562 5.557119357133834 0 0 0
533 1 24.89085475876844 17.25917697652193 4.4277114811763285 0 0 0
50 1 35.84635248696369 17.575409490976348 4.66093263998041 0 0 0
698 1 40.868908265777655 15.618016640235481 3.503948482110202 0 0 0
538 1 41.44354677801001 16.460702927645464 6.0061129870658645 0 0 0
1795 1 43.59964663961466 18.260124679698734 6.720370237113592 0 0 1
388 1 46.461967266373826 17.55167796699729 3.527567409269645 0 0 0
1726 1 45.60887815582733 16.421366225937287 6.0356851429870115 0 0 1
2444 1 0.5403006994658364 21.210762754644012 5.41008291013335 0 0 0
577 1 50.24613702483752 18.795782175874844 5.634257539661584 0 0 0
2100 1 2.2903530368397362 18.57090911265133 5.078508816795339 1 0 1
30 1 7.030810833953131 20.762127736801272 4.089326729558316 1 0 0
513 1 9.527699070535935 22.241086706492705 3.497157028105107 0 0 0
547 1 11.143594778338839 21.326523101531052 5.565213268598415 0 0 0
1712 1 17.845887766820688 19.947377865544045 5.642451652451034 0 0 1
560 1 25.717588633857073 19.363139872031663 2.724124749254359 0 0 0
501 1 23.5659988257213 22.371006791837647 5.928382541295167 0 0 0
2743 1 28.069909539769696 20.159143190405917 3.6610396831941783 0 0 0
270 1 32.30968234512719 19.329865239092936 2.602918314891325 0 0 0
101 1 33.05997514427031 18.309289367007384 5.08017881240088 0 0 0
2171 1 39.4345249254939 20.461425515431984 3.083113015905634 0 0 0
529 1 38.39601754141187 21.0635645846731 5.8042614558777545 0 0 0
498 1 42.2144078877241 20.636231440698015 2.9433659228780447 0 0 0
1865 1 43.73634563063518 20.686138828949613 5.243341406824231 0 0 1
291 1 46.351065370814986 21.649726573595807 5.271487322837839 0 0 0
139 1 49.983183357410375 19.04441159166226 2.555417016892424 -1 0 0
292 1 47.71508946206944 20.214701384161753 2.9803984456029466 0 0 0
647 1 2.248215495125921 22.808998829622286 3.5161406733618845 0 0 0
2135 1 4.2019330613765185 24.425121967768625 4.3399821628254776 0 0 0
2802 1 8.619692552385379 24.714675016273052 4.004796860390661 0 0 0
2800 1 13.752705493052902 21.788429149820328 5.1593108490073085 0 0 0
2504 1 15.454345791116157 22.097188550416753 2.9898619791870966 0 0 0
2798 1 17.826109040062992 22.3069592805263 4.008077671300104 0 0 0
2411 1 17.949031479627592 20.92415514596024 -0.2541487731776977 0 0 0
2420 1 23.77889014843357 23.296969567483067 3.060628238350917 0 0 0
2066 1 3.8767141883061162 24.04226232119479 -0.7481895877808546 0 0 1
2383 1 28.340597995535234 23.110913147297758 2.9485606893354164 0 0 0
2780 1 30.573908166107568 23.831715322326385 4.4283089236404045 0 0 0
2324 1 32.135995255007806 22.336335126284297 2.7075561942469966 0 0 0
2217 1 34.73401553000638 22.916902406972465 3.3800168940538855 0 0 0
6 1 35.480593415032075 22.10238218538164 6.135336947790642 0 0 0
361 1 40.29667665394435 23.941646590404165 2.6239034803707497 0 0 0
2118 1 36.54844227994498 24.595590697234265 6.8721287988008894 0 0 0
2699 1 -0.49776363082697495 24.221851736250155 16.120810154980752 1 0 0
175 1 49.15197967843623 22.63450269323816 3.1363802233985747 0 0 0
812 1 50.342034342181684 23.26395475119875 5.377632982076159 -1 0 1
2667 1 0.7590837840334153 0.9136589055203994 7.917456348716994 0 1 0
18 1 3.448488399566517 1.214064634215498 7.5452269533123 0 0 0
2563 1 18.271330630350413 24.31639420630942 5.821257334171572 0 0 0
1495 1 9.360271872268754 1.1175038417597603 6.955092383437336 0 0 1
184 1 13.636475218076175 0.23309816152657659 7.698545721510124 0 0 0
416 1 16.23989029814879 0.039207605193053885 6.686426422796218 0 0 0
4097 1 20.63590649249671 -0.30793948115283354 7.519323063148873 0 1 1
2585 1 23.56227630970336 23.02714407845886 -0.5807147443861989 0 0 0
2593 1 25.72612404353338 2.2503831343143275 8.657253357973872 0 1 0
150 1 6.60952372752221 -0.6892306401448149 4.8474231612336895 0 0 0
293 1 37.678561731749994 2.1340256372747493 7.647376549444534 0 0 0
2653 1 40.80198282808488 2.26106009665177 7.791853213203064 0 1 0
2162 1 18.050351069929967 -0.6635282969335785 8.755299403631598 0 1 0
552 1 43.29829631748462 0.9703681120385932 7.588797042444433 0 0 0
451 1 47.23692175173019 0.8562749196296866 6.242111453237083 0 0 0
200 1 46.85178562757068 0.11942857109602956 9.036780617297381 0 0 0
2279 1 0.1835027161902958 5.611151959130793 8.910907034085618 0 1 0
2784 1 3.848311758829797 4.194662334342914 7.155377487923106 0 1 0
53 1 6.7795710008607495 3.935150440809571 9.021010124134932 0 0 0
311 1 9.427913689508374 3.2087575666429142 8.414315736313348 0 0 0
540 1 13.729906003424366 4.032476215961157 9.537487380749175 0 0 0
532 1 16.60194501861268 2.75878035718566 6.972624568830562 0 0 0
22 1 16.17163705089737 4.860863712055001 9.075036804000412 0 0 0
354 1 19.206674102276935 3.582941042337916 6.4857016839752015 0 0 0
677 1 21.158123434112337 2.2335726018491484 8.017473430101923 0 0 0
233 1 23.622001478050677 3.2755133000120624 7.309877388357895 0 0 0
385 1 28.298462619667742 2.983332848746714 8.448941809892782 0 0 0
506 1 27.576278541049465 5.324562572897641 9.181403387104185 0 0 0
58 1 34.64312433913868 4.8555116863778585 8.19504875190476 0 0 0
2701 1 37.27674072317469 4.549348023473722 8.094607315639657 0 1 0
663 1 43.0590516269486 5.53588398679955 7.404079024575351 0 0 0
441 1 45.519780299790064 4.93660160404155 6.249279464169211 0 0 0
123 1 47.77265756556162 5.13258588254799 7.9776294215441315 0 0 0
167 1 -0.7212993302611679 3.0036844024568663 8.997057058811082 0 0 0
573 1 49.14114991323347 2.9261513080243313 6.765653568602453 -1 0 0
701 1 2.0254475355857853 8.919229531702044 6.955452656287384 0 0 0
1882 1 2.6001021623118596 6.5451118568650895 8.171336811372129 0 0 1
903 1 8.338422634655307 7.908532693774378 8.727932793910437 0 0 0
702 1 8.842744462635707 6.273030449875629 6.509119573690231 1 0 0
400 1 13.726956066768667 6.207671786110617 5.995094295374883 0 0 0
219 1 11.480494206666695 5.2334707351557155 8.063789657759537 0 0 0
36 1 15.517555018000287 7.366228001871386 7.737311448950042 0 0 0
465 1 18.232868935424133 8.0183894026684 6.52700560583938 0 0 0
109 1 19.879990059929714 5.998032132651618 7.909367652327276 0 0 0
350 1 22.06647149875509 7.585696556090612 7.186868026530734 0 0 0
413 1 23.98016166746826 6.05367227845944 7.874916893027345 0 0 0
620 1 26.552429005179285 6.8507360680519716 6.899350677793568 0 0 0
283 1 31.081995901674812 7.242149236744089 7.709698399526431 0 0 0
391 1 34.0987015516199 7.4638069303567764 8.0080488136023 0 0 0
608 1 43.400272419106514 8.046194067202734 6.328403260164008 0 0 0
948 1 42.175099575294695 6.313298731515499 10.0244631320821 0 0 0
289 1 50.01560255610521 6.649479606291621 7.434804497430923 -1 0 0
301 1 0.3954907122739004 10.592259555290578 8.227530273933972 0 0 0
484 1 4.4431559758632915 9.845040267087755 6.131543624974518 0 0 0
381 1 5.02719128930404 10.920608744572647 8.710795767724855 1 0 0
343 1 7.874472478762607 10.699686775197392 8.523931003448393 0 0 0
31 1 11.902825980276177 10.603738669225372 6.444089905201885 0 0 0
687 1 12.282935424881082 9.954990957188143 8.967071015826404 0 0 0
447 1 14.887227412278014 9.702201543262893 9.002109270780263 0 0 0
251 1 16.25246287676005 12.002806550639592 7.868588524426055 0 0 0
440 1 18.44888769645516 10.650635651497367 7.083763534015889 0 0 0
114 1 19.904737422365535 10.820492171595498 9.202717575265313 0 0 0
524 1 22.479301369220824 9.832928808641059 8.585313463073707 0 0 0
521 1 23.683332195862775 11.951351811563201 7.0625376092750525 0 0 0
130 1 27.13428152563149 9.747567435618075 7.603533978882057 0 0 0
585 1 26.323411039306777 10.746334771074984 9.912137110659446 0 0 0
146 1 30.581770645921857 11.73611055193727 6.925672885135591 0 0 0
300 1 33.35709790180667 11.865830282936198 6.4642993021596755 0 0 0
654 1 38.27164875726689 9.672750901456336 8.561641919475498 0 0 0
987 1 43.273474360169956 10.429059911625567 7.794451690189021 0 0 0
267 1 45.70038875758487 11.628854628229213 7.577920028597587 0 0 0
99 1 48.10439389207456 10.577144257554584 6.762130065268531 -1 0 0
224 1 49.81758409107111 9.054894041842694 8.509927921646817 0 0 0
54 1 0.2579116316545822 12.795548794932195 6.671118814353482 1 0 0
409 1 4.517651006997345 13.782891964258269 8.590391571408816 0 0 0
672 1 6.922456882179982 14.998156497057755 7.506059396429695 0 0 0
376 1 11.439184056680299 14.5030871499685 9.603423948133543 0 0 0
684 1 12.108464363721826 14.38858196294507 6.7476103597803405 0 0 0
1295 1 25.44020252703643 13.128086311558386 8.65202632971045 0 0 0
378 1 27.494364228279025 14.785600018900592 7.48259279698129 0 0 0
348 1 34.58086711979342 12.642465879810215 8.759924297633372 0 0 0
279 1 34.92127652483427 15.293225706069737 7.509334514954251 0 0 0
645 1 39.083451887329446 12.536812082968238 7.852967964942101 0 0 0
384 1 41.51026555338376 11.886748131540447 6.860428503366928 0 0 0
614 1 38.95089652925523 14.664248021054448 9.628771577669038 0 0 0
232 1 43.08016548119799 14.257105362469442 6.925875124577933 0 0 0
218 1 48.563303231906794 13.546133020518305 6.023917222025349 0 0 0
359 1 48.84234431079405 14.69160176348878 8.533302407840615 0 0 0
1970 1 -0.2558540852084422 15.335868774812745 8.0968265336038 0 0 1
187 1 1.1576666669364217 17.013057353514945 9.811006486006507 1 0 0
38 1 9.70924273278977 18.207764101736146 8.5950556388455 0 0 0
335 1 9.049811340215406 15.45031726898154 9.316217326320992 0 0 0
709 1 11.033411953292044 18.459081402601658 6.175974489387828 0 0 0
112 1 14.937924019512927 17.273974553563445 7.927292838234132 0 0 0
333 1 17.396007214918576 16.263474752593954 8.217313414538307 0 0 0
658 1 21.06479029414846 15.386377262811443 6.262145189185583 0 0 0
667 1 25.394288994569628 17.410514686045218 9.246279436208049 0 0 0
2307 1 26.353316973868132 17.05333905664025 6.661116456588041 0 0 0
296 1 31.274898678021657 16.904258222396045 9.10776290847806 0 0 0
10 1 32.26275882631366 16.130861788646634 6.56496223435418 0 0 0
1028 1 37.464177112166794 18.746160062841433 6.72782152132831 0 0 0
249 1 39.311424788142446 16.709563758762638 7.822944817526119 0 0 0
322 1 43.12339791544859 15.175174473514954 9.66783907208995 0 0 0
191 1 46.79064576935548 16.812039716787435 8.452033039372916 -1 0 0
1641 1 1.530671637453283 21.20621343021591 7.9659349835147015 0 0 1
284 1 4.436385660054094 18.700022523175026 6.657962217408907 0 0 0
637 1 2.8763735064129743 19.131824053445907 9.029194519406163 1 0 0
331 1 6.117659749157688 20.835554287380717 6.924835162498751 0 0 0
286 1 8.003401464561867 20.36194716334082 8.482094214403393 0 0 0
2632 1 14.034205694401114 20.761897919342342 9.041011180247239 0 0 0
79 1 15.002721999994755 19.935801689312374 6.717853985781324 0 0 0
689 1 19.554389329502374 19.89838773476991 7.879944313681126 0 0 0
668 1 22.20533686185228 20.09716731812632 6.774433205552699 0 0 0
2277 1 25.442075196964215 21.747105587667885 8.973321473525877 0 0 0
587 1 28.1803439281546 19.431597176648165 6.395274252743827 0 0 0
298 1 30.12788445418851 19.414475910063196 8.60034826593491 0 0 0
2745 1 33.51526783787823 20.273685927821447 7.005009868304074 0 0 0
104 1 35.928684154483754 19.676092027280255 8.695602641266582 0 0 0
2729 1 41.18773084675414 18.474962264602524 9.139262203803652 0 0 0
1664 1 40.10390899695116 20.915478322421304 8.18122203746163 0 0 1
26 1 44.11628544145324 18.07624023649851 9.539853478538015 0 0 0
481 1 47.20335138685692 21.107325942858385 7.802716591111935 0 0 0
594 1 48.50290984986658 18.840898541130162 7.809146534285366 0 0 0
2755 1 3.109975779648561 23.32991690203142 8.99021723317263 0 0 0
2690 1 7.700324616547789 24.390883722896866 6.522495193924159 0 0 0
666 1 5.049635094861554 23.54129890301449 6.735735177136184 1 0 0
142 1 9.441408592716332 22.510783595385362 7.608018296580349 0 0 0
205 1 14.146259527587848 24.279382614950304 6.3500028146521625 0 0 0
2344 1 20.231176107022744 24.250350333217767 7.665635608811083 0 0 0
2244 1 22.96511976161601 24.686355435144268 7.360531564814389 0 0 0
2765 1 26.552857627967978 21.7689573451989 6.371295896809743 0 0 0
2355 1 28.14089734730419 23.954991045112635 7.165021977444041 0 0 0
2 1 31.556566713383233 21.7293715849124 8.62198510019391 0 0 0
3085 1 30.864065122608796 23.807815627534133 7.060956043602711 0 0 0
25 1 37.236448272809604 22.34323201917594 13.140659353865972 0 0 0
523 1 42.17827223423431 22.243359690838695 6.718487779824935 0 0 0
578 1 1.6417946127072023 -0.7689465314606423 14.008529693559586 0 0 0
520 1 49.19034338952281 22.910680265041954 7.976921871179224 -1 0 0
2817 1 46.764750076623685 24.325503696647104 4.908561292190001 -1 0 0
2564 1 1.3193573680666542 1.5999493477668807 12.110253134219617 0 1 0
2522 1 41.4236986441962 24.728354570323663 5.394716118804532 0 0 0
494 1 4.699749735049787 2.3858544165055107 9.922484985411067 0 0 0
671 1 1.4621684474733732 -0.4014776659431751 10.253317281409279 1 0 0
704 1 10.251198933026481 1.8299255899750664 10.816657315802912 0 0 0
477 1 13.019101118213714 1.4114282237612432 10.264853822688462 0 0 0
526 1 14.33998491091133 0.45524250622293505 12.670502160959051 0 0 0
321 1 16.893538837446993 0.7077730652328851 11.372323971110962 0 0 0
2021 1 19.623052388524417 6.554228729499851 -0.029635075381650333 0 0 1
203 1 20.677466461923956 1.5826029866949316 10.580530332365326 0 0 0
129 1 27.30755678793223 1.0934678999620024 12.0208503430035 0 0 0
310 1 29.53449690465744 1.436410401061048 10.549171439613426 0 0 0
1358 1 14.895097755863894 3.00076723084824 16.00001121715984 0 0 0
2527 1 33.94212840272088 0.7854543739232822 11.111838807932314 0 1 0