LAMMPS data file via write_data, version 29 Oct 2020, timestep = 800000

4175 atoms
1 atom types

-0.003290509135524644 50.00329050913491 xlo xhi
-0.003290509135524644 50.00329050913491 ylo yhi
-0.003290509135524644 50.00329050913491 zlo zhi

Masses

1 18.015

Atoms # atomic

1896 1 46.04522897330488 24.89243985508477 7.403828665009334 0 0 0
1605 1 15.53060074015957 22.13620145670774 0.11617472572999893 0 0 2
1747 1 6.895141526639551 2.048360850350992 1.3982966609517398 1 1 1
1672 1 20.586063974595014 19.257457700470745 1.8443361197934567 0 0 1
1209 1 10.033985998940832 1.0670755542869954 3.7285487969754496 2 -1 0
2817 1 13.830101444584518 5.501392644397748 1.031372360216918 1 0 1
4039 1 17.805579945579822 4.652409950901338 0.7254226215056595 -1 0 1
463 1 1.9048211050396782 24.75965432054365 6.142867277526988 1 0 0
4078 1 19.949887527133118 1.773097271080936 2.9397250017404173 0 0 1
1628 1 24.079055268858994 0.6009856393812916 1.9927938962910319 0 -1 1
1729 1 4.9042052160592045 12.531659723627333 3.2966876571511516 0 0 1
3225 1 35.70360058414927 1.0821469821659093 1.2456906017007392 0 0 1
834 1 42.81656700567998 0.8069456962139321 7.111148685646084 0 0 1
4048 1 37.44444141931132 0.39865910022409445 3.750546688867616 -1 2 0
3110 1 12.580993744050401 24.78267361694156 6.649914450705579 1 2 0
4032 1 37.07490563891292 12.389956192846023 0.17506213363579115 -1 0 1
2707 1 48.6721329174927 1.0270186524216711 3.4619820911390327 0 2 1
748 1 1.4863890506097779 0.06265052886758544 14.221936013061264 0 2 0
1996 1 44.741878483797066 6.591899615827085 16.116982184835656 -3 1 1
1047 1 9.317100378649277 5.229961023013837 1.505685266822798 -1 0 1
3295 1 7.357055461063661 6.014280359741845 3.432174444495673 0 0 -1
910 1 0.28881836279234563 8.277839375165016 0.5746274395003861 1 -1 0
1688 1 16.09098356251944 2.101601169348264 0.4406177254469007 0 1 2
1943 1 18.259435897151462 4.020912722866933 3.306177006232667 1 -1 1
3580 1 22.654362476093286 3.638967156240566 2.731128879536172 1 1 0
1965 1 48.04958301629849 24.89159273981731 0.5721756589358471 0 0 1
2577 1 28.12868690407072 4.024153230080615 1.5109922430927487 0 2 -1
3206 1 34.61131033097532 3.6725315088507906 2.3216537702055744 1 1 1
2436 1 32.47227101903003 5.691599181954435 3.070952103627282 0 1 -1
159 1 36.90191041382755 5.376864496833705 2.2041320714628565 -2 -1 0
85 1 41.53243992041764 6.640489195610372 3.8130153707582086 -1 0 -1
2107 1 39.44515069565915 3.128604007431551 3.3401687402683926 0 0 0
3388 1 16.118590008816323 3.618782177296078 7.333799241047405 -1 1 0
3620 1 46.59959143963361 4.62647497209847 0.8149889565924747 -1 1 1
1585 1 48.26803941649858 24.446743949341666 9.360273444339047 -1 0 1
2342 1 49.29402715045072 3.3952351943076065 1.880233453772429 -1 1 0
3895 1 0.7916808410668676 5.381803490845957 3.5841034013823125 0 1 1
4082 1 3.5636676702333636 9.79121502188284 3.541361891169597 1 0 1
3085 1 4.308741305905663 10.093763596918016 0.6800532047122123 1 0 0
691 1 2.475037215585036 7.529500070939738 2.2921401560884753 1 0 0
940 1 8.95895539036456 13.20884687029391 2.071824159273689 1 1 1
1210 1 8.123381716067023 10.488673797143196 2.5777061019619047 1 -1 1
2367 1 45.12429509613025 2.541864515292448 0.9818905345757978 0 0 0
3840 1 20.832228188992534 5.897339434779958 2.0435709232780064 -1 1 0
3533 1 10.094078611710955 24.628450360624768 2.2671531103223987 0 0 2
3598 1 28.204815539426257 7.198450448936458 1.4370960165348692 0 0 0
1744 1 31.32871216157966 7.682968402454013 1.2035375381424238 0 1 0
2611 1 37.35157443587254 8.973204345704689 4.909798572662371 -1 0 -1
1519 1 40.280905082391406 8.443610267188692 1.993897908879054 -1 1 2
1624 1 26.12260144470334 23.798868197954253 14.175565407973917 1 -2 0
2271 1 41.903260079100804 4.285530303163816 2.5134438624020317 0 1 0
3248 1 5.270877546912327 16.156713824342496 0.11137745626958756 0 1 1
104 1 1.0857479389373144 10.651948127002896 3.007256885085397 0 -1 1
84 1 21.731868242889888 10.421450695877358 0.4430900396173015 0 -1 0
1779 1 11.347281155964678 13.953541618901633 3.487048034849022 0 0 2
3105 1 16.028676697133346 11.853657896327157 1.12904709739931 0 1 0
40 1 6.670903518743753 12.731145992613888 16.36056734669543 1 1 -1
3126 1 19.04744852212484 10.542229178606078 1.3244558578178547 -1 0 0
1486 1 23.44425115815161 18.07779411692222 16.029489112442374 1 0 1
3112 1 24.381043598649555 8.117881554452639 2.8942920973812596 1 1 0
3612 1 30.970520362340554 24.65490501494075 7.914956642160593 -1 1 0
2854 1 29.17140446159642 11.590033810012804 1.791336907243083 1 1 0
1082 1 33.375926635838965 10.124456724361025 0.8768090958074811 -1 0 1
2366 1 35.74464445981957 11.420709630560161 5.014624297360632 0 -1 0
992 1 44.25181784609167 8.834794305611615 0.6720161393941729 0 -1 1
574 1 48.55694500629792 9.234099657480424 2.6449640002620476 -1 -1 1
2648 1 40.24612696933205 12.04256235862809 16.346090853625466 0 -1 0
1037 1 12.115151927291482 0.4800374593404191 14.187267041974312 1 0 -1
3765 1 46.51547865442174 0.4562590901149466 12.965063745183976 -1 1 1
2512 1 10.648804067987212 18.288778052443615 3.878566162818384 0 0 0
2244 1 13.119842437655594 12.701494143750985 1.2794467434421044 0 0 0
2383 1 6.854545808023381 8.921015937001304 0.5848137633241678 1 -1 1
1050 1 17.683302606856586 13.583241826264862 3.2188852503968777 0 1 0
3230 1 24.4186767839937 14.510456454259582 2.943761158323747 0 1 1
1368 1 24.776069163983024 13.501893464638155 0.4644115965060467 1 0 1
2215 1 46.062548323700945 8.867578964576015 15.678198626903708 0 1 0
2478 1 31.200673298848404 13.533532479367691 1.9164044899149402 1 0 0
2898 1 33.483954772861814 12.38224912351965 2.7339073868317882 1 1 0
284 1 35.45085458599211 13.944195813859666 2.0241217582541293 0 1 -1
868 1 37.349761358093524 13.403897199849549 4.081227737000102 0 0 -1
583 1 34.12057929535999 22.79495588307464 0.07958385638172198 0 0 0
3874 1 19.60692351554149 18.118167141711606 16.578111626191543 0 0 1
1838 1 36.2483097796221 9.865330891039056 0.5523148028607415 -1 0 1
2324 1 2.859896056248865 18.2775144824966 14.74922554813897 1 0 -1
4149 1 10.106803484736764 17.273810377545825 1.486226461090128 0 0 1
1254 1 43.18020265246459 19.69157032058832 11.96885120268886 -1 0 0
236 1 13.464683046720063 19.418779462085197 3.2055250806284055 0 1 0
1357 1 20.39574734943745 23.698380444972376 13.829540757933323 -1 1 0
3498 1 27.646346302563888 23.478516245762123 16.584238023815132 0 1 0
1637 1 4.472868155678024 5.302808579792078 0.23734871076685676 0 -1 1
2251 1 24.53662967463088 17.919619825795444 1.2162167223379825 0 2 2
3024 1 2.277763379858193 24.000236591687962 2.4431356334984367 2 1 0
3021 1 28.341241753203523 17.725837763429617 2.347751093325839 -1 -1 0
2893 1 32.492123810087605 17.67834164113248 1.5924658826446931 1 0 0
2964 1 36.87677324946164 18.30543546860702 0.8589778437261831 0 0 2
1046 1 34.875395196539515 16.56965956337144 0.35049101389382675 0 0 1
660 1 19.479079626493 23.356531886528725 10.66539632354243 -1 0 0
1975 1 43.084246795679206 18.773878883548825 2.1220540130673777 -1 0 1
1774 1 43.71131868264532 16.0563718661762 1.5457440397732762 1 1 1
817 1 49.06811357327071 17.489792218133204 2.6051614609863147 -2 0 0
2581 1 46.638252065024396 16.143981652285422 2.4367397102400816 -1 0 0
1242 1 2.6865479738356637 19.758555394747106 2.0605652425751426 1 0 -1
3430 1 11.372286222824211 6.722646526982576 0.3482872455831744 1 0 1
3138 1 9.471555647042655 23.8129764584008 13.543686491758812 0 0 0
1778 1 9.668283195176517 22.40059654957252 3.8322407542761434 0 0 1
2186 1 49.1459722514552 19.31093511009142 0.36247309556310103 -1 0 -1
3567 1 17.1747269088836 20.494331167554584 4.353399552472318 1 1 2
303 1 18.668252479413738 16.382395837855224 3.4993940113318684 1 -1 1
3360 1 19.800261690566927 2.3540609529530077 0.1009609387722175 1 0 1
2038 1 49.854594750983146 9.257349349035906 15.604756464581358 0 0 0
1657 1 26.067264335014713 19.45906666584958 3.8916437697879207 0 0 1
684 1 29.211118518497578 20.288895517286914 3.699953581523249 0 1 0
3327 1 34.48380003540766 19.472033209306538 4.476827493772207 0 0 0
3342 1 41.219725864021086 22.508832839048605 2.530795328917007 -1 0 0
1078 1 41.10704695878633 18.99160001840512 0.1628507236597153 0 0 0
1245 1 38.744414676864324 19.38703338103288 14.979067849453676 -2 0 0
2829 1 10.139110635154118 24.54948951635245 9.162809564728297 1 0 2
461 1 12.438418387682093 24.61627049129447 1.0669286275021694 -1 -1 1
1323 1 22.389411378908875 0.1565374658694377 13.058445749269518 -1 1 0
2929 1 29.892787240015306 21.29405314425798 16.44761605626364 1 0 0
3200 1 0.45597044784324586 20.55037481113485 3.7428773670371367 1 1 0
1708 1 5.931419845838238 22.87798977017005 0.15407296597602074 1 -2 1
559 1 20.591282425048586 21.300158616181843 15.041397034166417 0 0 1
218 1 19.535514511354947 13.024959287561561 1.1744600539027914 0 0 0
4126 1 34.07492392697571 19.809692395569577 0.7368828323783124 -1 0 1
727 1 39.765398844190294 1.8947070537618904 0.25946177329145526 0 0 -1
2152 1 19.25746131706774 21.819083992209052 3.4613399564844762 0 0 0
3694 1 11.37090364550389 0.9322559032823021 11.706809232954175 1 1 0
1185 1 17.767255706722416 24.02721071277495 6.217274528131925 1 0 1
497 1 20.565753306895214 16.511338799501623 1.2288524212939824 0 0 1
2657 1 24.626215317089965 21.53295788782459 2.4046873521017074 0 0 0
2514 1 31.323007158520014 22.23056632063319 3.1915518717584686 0 -1 0
1608 1 34.241509165009376 21.995403983070126 3.0611649872698794 0 0 1
3176 1 6.0183916597625045 24.31228850534804 2.660018914881051 -1 0 1
3188 1 36.99132012573725 21.187784206550976 1.4423788542283962 -1 0 2
3001 1 39.796119180503645 24.04023361576885 4.510072554842016 -1 0 0
981 1 18.35347424662315 0.4655093633202771 13.109501783090439 0 0 1
2729 1 44.04857354144404 23.455837858935986 3.198654844150474 0 -1 0
676 1 25.348247109551608 6.65762170248623 0.9477378565378536 0 0 0
2270 1 3.769666677897785 0.6004177068207912 4.782733017255353 1 2 0
1639 1 8.199392246945273 1.5438123452636263 5.560013417315136 -2 1 0
304 1 10.717171990034277 7.823710538851984 2.7511344417869608 1 0 -1
977 1 12.34681178810865 2.1423344613154423 5.008310948908339 0 1 0
3705 1 12.910752697420744 4.570871529978742 3.8088225600458983 0 1 1
2772 1 17.51412877697557 0.5107050665845781 2.398679590556305 1 1 1
954 1 37.51687213639483 8.155171663838226 2.3592193645413437 -1 -1 1
1109 1 27.06798210166191 1.459916556642653 2.581825922193298 0 1 0
1035 1 26.284082883556334 1.98718543428064 5.5195479048316525 1 0 0
3273 1 8.946005183190353 2.086169690341485 10.570018694837035 0 2 1
2075 1 30.337919874676086 1.522745132096727 4.741140614035294 0 1 2
3557 1 30.18030865356924 1.9864477771737301 7.568226213961863 0 1 0
2645 1 32.8099873639158 0.6922486223791153 4.030994799958232 0 0 1
1897 1 49.44249677062209 21.853991863407053 1.1320918165185923 0 0 0
2104 1 36.97380747583713 2.312884588759787 5.850073390310728 0 -1 0
262 1 39.96670978974456 0.6240457919223887 4.925563791797452 0 2 -1
930 1 46.276908183505654 0.12714428258117558 2.486413767137406 0 0 1
2050 1 22.469980975070655 15.524585960832242 16.04157065129338 -1 -1 0
3086 1 48.12224036512805 1.556770256160026 6.18062787915337 -1 1 1
1383 1 2.339810011971991 3.4682496303136703 1.3500898080828043 1 0 1
3770 1 1.454919486442479 7.690494154201393 7.8973140192151225 1 -1 2
3207 1 4.525787117397086 5.693421660904108 3.373747867448235 0 2 2
1 1 4.407397926172159 2.770422617105133 2.8298926599262466 1 0 0
473 1 7.791385132285395 4.3908398694661965 5.582236069462074 0 0 1
3378 1 4.390001874762178 12.860654704001346 0.13580381886688048 1 0 1
3181 1 15.845069619975316 4.951273251131917 4.634600112629259 1 0 0
3514 1 19.625366449930045 5.236174669292538 5.2610098937132665 1 1 1
1124 1 23.625531243556413 2.655790427413648 5.525261196398398 -1 1 1
3664 1 25.311393415552935 4.521417933654732 3.174774059909237 1 0 1
2629 1 30.047877229887746 3.982115411209047 3.5755199511936353 0 1 1
1592 1 29.528113265348882 5.467996460550441 5.701712397243849 1 0 1
478 1 34.34180098820691 2.5988588643309845 5.243900238523639 -1 -1 0
859 1 37.759322822954346 4.915513966734167 4.945882596008418 0 0 1
4040 1 40.0535239799544 6.060344645066896 6.226740461870939 1 1 1
1212 1 41.786789081508445 3.312041991322999 5.666791864342932 0 0 2
3428 1 44.072350350314956 3.070692768587508 3.93874275807177 -1 1 1
3755 1 46.334476709980486 3.684040699705584 5.519827108467865 0 2 1
1343 1 4.909570075355584 9.144009543228027 5.832547917030936 0 1 -1
462 1 7.3636877696819125 8.66739869697107 4.662843830257155 1 1 1
1860 1 9.856883416232247 8.807608144654976 6.308254287076112 0 -1 0
197 1 11.558224565190889 6.692688753956055 5.383377657614173 0 -1 0
2249 1 16.23680675197246 6.867508446179063 1.7319287832581984 1 1 1
2669 1 12.295664954048718 10.198990909500617 2.903065992257032 1 0 0
3093 1 16.051426501227485 7.628515262119405 4.53775381806902 0 1 0
3363 1 18.712587352425256 7.848312383583399 5.3256665410042485 0 -1 1
204 1 22.211448429188952 6.473254845717982 5.212873990550147 1 0 0
391 1 21.675266053156 8.359438124101223 2.756412007208074 0 0 1
2589 1 26.080692141361105 7.8422500350774165 5.121770673046271 0 1 0
1500 1 33.450653281101346 7.077428363927641 5.292795754064976 -1 1 1
2530 1 36.01607047629888 6.820888842912682 6.029728075625555 1 0 1
113 1 43.53805768524447 7.413792278115948 7.183174054284383 -1 0 -2
1362 1 46.44751552546628 5.662686661024153 3.480995229173345 -1 1 0
191 1 48.5922220523862 6.919145942243818 4.168685633877058 -2 0 0
2113 1 48.712117318781715 8.309959453571647 6.507867779137461 0 0 0
3471 1 0.24411813425501305 10.289446647497869 5.659278360463465 1 0 1
424 1 3.7952275174256367 15.240646762536201 2.2480335528857442 0 -1 2
621 1 4.8934232813787535 13.66059501440422 6.039345566147332 1 -1 0
2510 1 10.523088941574127 11.236488410166112 4.875715333066455 0 1 0
3728 1 14.991049808424393 9.997207925289407 3.4593996774505036 1 1 1
3259 1 14.962731378761818 11.703913602736547 5.637925124560253 -1 0 1
2222 1 20.132462705296053 10.106620389199378 3.858709444639805 1 0 0
2034 1 22.909355207861218 11.639791996923714 4.339914405311859 -1 0 1
3384 1 24.286464666400274 10.75296640522126 2.0472408573468246 0 0 0
1040 1 30.504795908884272 9.601681597958983 3.4584511226331 2 0 1
1272 1 28.543332912090282 7.706722364626502 4.467916608671091 -1 1 0
2949 1 33.03364217622388 9.969080659210707 4.693302011018048 1 0 1
2821 1 37.44376770209803 11.472915238902962 7.634551065343253 -1 1 1
960 1 42.59319615576058 9.961752689122951 2.5326854026651233 0 -1 0
1737 1 40.30867859195302 12.94111870334602 4.697919554828869 -1 -1 0
3793 1 42.33035349086191 12.06152521022964 0.6039317021389449 0 1 1
3474 1 44.44585427546621 7.755378002873142 4.246928866717327 -1 1 0
2762 1 47.234529797501224 11.646021713498296 3.8391471269471853 -1 -1 0
3509 1 2.8801445308139586 12.876168693385429 7.383459872698449 1 1 2
1885 1 49.047655514109124 13.152707851989385 1.653829202684341 0 0 1
3133 1 1.8337531893726664 13.445234914311866 3.6995344552607974 1 0 0
1948 1 8.998455986232232 14.242352574098225 6.179498219278701 1 0 1
3999 1 7.186204993762439 14.523738869022713 3.8397111476782704 0 1 1
4140 1 11.170805486343419 16.17703974623672 5.540344628439366 1 0 2
2110 1 19.864587265585886 12.91864492505535 5.164485467729028 0 0 0
1374 1 14.939517722657309 17.01942073655581 2.0360630787434064 0 0 0
2505 1 21.4396436836017 13.961989922144642 3.011887850617126 0 2 0
1663 1 26.797412743720113 12.339812327564896 2.8359576289104935 -1 1 1
3252 1 30.540151172766393 13.834126797088093 6.192390851540179 -1 -1 0
2537 1 33.79225721635891 11.567990464799019 7.118209744445491 -1 0 0
3040 1 39.37585189145968 13.94753458105864 1.7790863659196066 -1 2 0
3723 1 39.50513176485026 16.92086347567306 1.530054991602549 -1 1 0
3232 1 42.467221244956576 13.936080229891825 2.966016121293417 0 1 -1
2000 1 44.771125085857456 10.586337946008422 5.241272503391445 1 0 1
3939 1 46.85402383759766 14.384559502316918 4.433588825476008 2 0 1
2632 1 0.732119820324621 15.188996034551698 1.856191697865336 1 0 -1
38 1 7.029635496455435 16.80194125759348 2.388167974819901 0 0 0
1480 1 3.6489666689394284 17.660879230304623 3.7975715530637477 0 0 1
4150 1 6.248332679958074 19.314420188039904 3.6866710329691412 0 0 1
4134 1 8.737802769876433 20.232347739794516 2.517753843342452 1 0 1
850 1 9.002530333903087 19.705093913603758 5.911024504612657 -1 -1 0
1740 1 16.12265096949119 17.87629261595849 4.878064521476176 1 -1 2
1878 1 21.65096501885077 16.96888998980009 4.5024955746678845 0 -1 1
1909 1 21.5844492695933 15.031528389474005 6.337787887640975 -1 -1 1
3953 1 24.235467883624146 17.09973610837924 3.9540319439009317 0 0 2
1844 1 23.609270242721866 13.149066381767486 7.0890603663019185 0 1 1
526 1 24.613417033664525 18.540221810204066 6.8478948484272175 0 0 1
3444 1 27.714350978519068 15.177465779308282 3.500752433811477 1 1 1
788 1 30.539762408276726 15.482430613885377 3.8562747373696813 0 0 0
1753 1 32.49050919253695 17.59328850569913 4.45162831306399 0 -1 0
2185 1 34.44151658652831 16.368761829635922 6.580626036866757 1 0 1
1661 1 36.80174359943539 18.36784703734265 3.8056355876158987 1 0 1
3855 1 42.49064005477772 16.842498308223163 4.594446848296527 0 0 1
2675 1 45.17259550563681 20.273978081673604 7.399762410652454 -1 0 0
3168 1 46.74458126227363 15.836796378454393 7.0521792526584575 0 1 1
1565 1 1.495059954070554 18.594515854108995 5.4142475005351605 1 -1 1
3940 1 4.798059583338313 21.459935437913398 2.739592367912306 0 0 1
1216 1 11.795169628901302 22.150141298798165 5.808398557573078 0 -1 1
3172 1 14.156416179275038 21.6806319170709 4.0809033967152955 0 0 -1
2993 1 14.915976334400952 18.037582200611627 7.29827341474948 -1 -1 0
1355 1 20.879129604469345 19.66523517903043 4.7347456487548065 1 -1 1
2454 1 23.13787704887028 23.085772834395073 4.331471128132372 1 1 0
1937 1 22.764718313160678 20.80334996278547 6.210897866501287 0 0 1
1792 1 27.18306162010819 20.590878426704386 6.487784645112975 1 0 0
3438 1 30.24461880675339 19.22716382213086 5.7870624606232965 0 1 1
2007 1 31.917709285310682 20.54583603917217 7.397573424023844 0 0 1
1301 1 36.799635670617974 22.809159741866765 4.029471574275457 -1 0 0
230 1 38.37323985416402 20.501409208505148 4.200711733778157 0 -1 1
2060 1 41.04732338547322 20.038622340554447 3.884941391191706 1 0 0
1980 1 41.99313220193054 20.485148063993247 6.461143281030313 -1 0 1
413 1 44.27348671010102 20.705390749057116 4.3837659949017125 0 0 0
3571 1 47.126454833266436 20.08607860508025 3.2021884695274627 -1 1 0
3012 1 2.88854632017264 22.175038031542332 5.0377969096724335 1 1 0
3147 1 7.343349286026707 23.98195155835975 4.864850686400356 0 0 1
3048 1 15.624193813667912 19.521023231054887 15.408614740821731 0 0 -2
2789 1 9.611660145511093 2.428782827268036 1.6846074427843525 0 0 -1
4102 1 14.638689824639346 23.53012279853098 2.326139887890114 0 1 0
4011 1 16.72571767374096 24.974032743719643 3.2451126655974463 0 1 1
261 1 20.304702223640092 23.901349977920262 4.943111514197492 0 0 0
2491 1 2.1395482784812514 0.4116440202995934 11.497656831312042 1 2 0
3352 1 26.572566604249403 22.973240747510737 7.663719401100954 -1 -1 0
1735 1 25.09337028327013 24.45330108010441 5.895065100084336 0 0 1
3780 1 44.96211743976573 20.4299460499122 0.859599814760373 1 2 0
3782 1 32.157319999085274 23.014900710392688 6.097544544653502 0 0 1
2028 1 34.885872071362805 18.21395695810581 15.043585481546184 -1 0 2
1556 1 40.23950346140205 22.766109024953494 6.982689718344663 -1 -1 1
2315 1 14.593091993720007 22.13242314692931 15.012037643071636 -1 1 -1
3938 1 46.51362552446978 24.748868440577695 4.692585307112158 -1 1 0
1485 1 49.00369477543535 23.23364068295085 6.5266733199032885 -1 -1 1
2855 1 3.6020962537561703 1.2178455477000143 7.330749236989039 -1 2 1
445 1 1.499028050266795 2.8650474257793195 8.383053561624278 3 0 1
1787 1 6.2640934676215245 1.6712189804521642 8.157010496027151 0 0 0
4175 1 11.93573144028543 3.042901427968291 7.457539723555483 1 1 0
3459 1 14.745163590865454 0.2427435967290019 13.987640061548218 -1 0 1
2942 1 13.418636821217008 19.885107754441528 0.5585530088719598 -1 0 1
1222 1 13.881358555814545 4.259724236445862 8.964833147092069 0 0 0
687 1 18.96507016983391 3.800945424871823 7.632545833929671 0 0 0
1463 1 10.899572915607827 19.49609437111557 15.110799597065522 0 1 1
1365 1 20.835059133413676 1.1965672274004724 7.498370251406847 -1 1 0
1682 1 17.45039082571868 18.36825826593282 1.7388857747787156 0 1 1
4015 1 46.528199609933836 10.131367657372602 0.6242003167948638 0 -1 1
3917 1 33.60043456033541 3.4753409751713287 16.575263711148104 -1 1 0
2586 1 36.69825721418635 1.8499519064823953 8.659651441153398 0 0 0
2172 1 18.190376637447727 22.83837739908467 0.862237680484335 1 -1 1
1071 1 4.07668861517343 10.052468815299186 16.186592107011613 1 0 0
187 1 23.816454527533338 2.9386275952451792 0.42660683490553336 0 -1 0
3464 1 44.32467610123756 6.011174289838245 1.153525507449082 0 1 0
3501 1 5.484791249068518 2.68301450692296 10.677625298670607 0 0 1
132 1 10.113926022495415 5.21134724855976 7.132515736651476 0 -1 0
682 1 13.960052018833432 7.043859107459297 9.17512721434088 1 0 0
4122 1 19.151696087383073 5.705218321901104 9.83288080034219 1 1 0
841 1 21.590473813193114 6.80022740779314 9.30946061180707 0 0 0
858 1 25.521431849664097 5.522183546287099 5.67021476266853 0 0 0
2467 1 23.35434323301837 5.110847804018923 7.707828319350121 -1 0 0
4043 1 27.653248558111887 4.07223386372974 7.073017084450979 0 1 0
865 1 32.77650990310824 3.2644036678124566 7.33140148718478 -1 -1 0
1182 1 34.49161820536522 3.2022009575590817 9.570580776920638 -1 0 1
1304 1 39.01582619775052 1.5855211267617777 9.94374751486655 0 1 0
1720 1 40.54124283182531 5.363700066964523 12.629072742365947 0 -1 1
1354 1 41.511044555855435 2.2302749090396223 9.029007199855938 -1 0 0
3460 1 42.27029289868238 5.081306779333412 8.265098952096194 0 2 0
2425 1 43.12778942264436 1.7666558056558814 11.244726532285178 0 0 1
957 1 45.609287825482866 3.0255545595243 10.649676164632806 0 1 0
888 1 0.137494463448994 3.689213813326176 6.215380045526899 1 0 1
3517 1 2.6510550177014394 5.907391100445387 6.0606087224070935 -1 0 1
822 1 5.503559023391405 6.148050542037472 6.4385225352520905 0 0 1
4063 1 6.197560755087545 8.225372800392751 8.491642690062905 0 2 1
986 1 9.567989816076883 6.1468767882874555 9.8540945149013 1 0 1
3913 1 13.776768571796788 7.564561539307274 6.383352622672636 -1 -1 0
797 1 18.267108714536167 9.37987858913043 7.8172235243781785 0 -1 0
35 1 16.994800447192752 7.457361337041424 9.437034841484632 1 0 1
2402 1 21.395358100448906 8.569820753903448 7.368125482732752 0 0 0
3778 1 22.59474896222944 9.792380773149088 10.088857030693651 0 1 0
3564 1 25.712617106666688 6.012186940629053 8.99217724582898 0 1 0
1318 1 26.94831111247015 8.704794144596672 9.922673443526149 1 0 0
2630 1 31.888287404021305 5.860203549507155 7.205974446105236 2 0 -1
772 1 36.47950736067766 7.042245686238196 8.766761554414696 1 1 1
28 1 39.12518624720221 5.783887230353965 9.059239250941273 -1 0 0
3452 1 39.666435271544366 8.826722109745623 6.466750949210923 0 -1 -1
1660 1 42.622042438859665 10.212092438395308 7.721807117545488 0 1 1
2296 1 45.260095420071224 4.396136011649164 7.98992610554881 0 1 0
3189 1 45.95806954901088 6.874442580253743 8.497193846633152 0 0 0
2466 1 48.60172184594863 5.565929496056421 7.38685878992047 1 1 0
3 1 49.88225108034158 8.822203776266885 10.493524362784141 0 0 1
2190 1 2.7864333250143436 10.051437139504047 7.414716553126627 0 -1 0
3162 1 11.645407750084786 12.789896643599961 7.174260205705933 2 0 1
2385 1 13.123550590235707 10.19818467334242 6.998774945374875 0 1 -1
659 1 13.784308615154883 9.928128165949255 9.741528415597339 0 0 0
3633 1 17.55605069716913 11.890338635872324 6.839009980166989 -1 0 1
2350 1 23.587446373732785 10.359362139811019 6.7231429500196755 1 1 0
11 1 26.128139406704815 9.52245240117445 7.377694739073351 0 1 0
3853 1 29.985660912140055 11.046513295738672 6.117618911279752 0 1 1
511 1 31.39778518179884 11.73333424366238 8.739059166800692 0 0 -1
3600 1 41.52081676296951 10.533922147569779 5.0763490602736825 0 0 1
287 1 38.2319544708691 8.592776907308199 10.486611367703084 1 1 1
2905 1 39.8014173149263 10.292095938428725 8.932047126337833 1 0 1
1781 1 39.80617498495975 17.22461035955181 4.236014322922331 0 0 1
3405 1 44.49740086613294 12.337695654867485 10.183320387512458 0 0 1
522 1 47.15010996187741 11.965069915696166 9.39090227000708 0 -1 0
1334 1 46.38102377804703 9.731507909715749 7.434140651476338 0 -1 1
1262 1 0.7027384163081876 13.636482534634629 5.910668866549943 0 0 0
1203 1 5.393756826113007 11.770334925436108 10.198858239521416 2 0 0
2103 1 6.728361281462932 12.496454068777798 8.030260083033632 -1 0 1
3980 1 11.716450524143994 11.810229331270616 10.088251650404015 0 2 2
2429 1 13.940050233931235 14.664426472448385 6.489541352289225 0 0 0
784 1 15.591474308549836 15.065112642971618 8.618146094746274 0 0 -1
3466 1 15.402256505211982 15.074995586526724 4.181880396278855 1 -1 0
2189 1 17.59143991084568 13.228976689913221 9.195403552859197 0 -1 0
3125 1 20.143118125323475 12.761251156790912 11.075584802665748 -1 1 1
2124 1 22.297956181474774 12.514538253589677 9.412949658706498 0 0 0
722 1 27.120645431832262 11.786706941610909 5.568614263754758 1 -1 0
2346 1 37.51570828174527 14.089102031029181 8.422784128729356 -1 0 1
1883 1 36.997130543287874 15.876333581981173 5.397114639798567 0 0 1
1968 1 38.2733532756089 17.691181773222464 7.429114149874388 0 0 1
2306 1 43.14531499409023 16.00988510627301 6.980977454416982 1 0 -1
3717 1 44.014494234903616 13.402126468367527 5.085585676004361 -2 0 0
219 1 48.24435992305616 12.001133183441464 6.62922332321957 -2 0 0
3087 1 49.44768763295532 16.20757609241057 5.0740354689891785 -1 0 0
2674 1 4.031594011833607 16.184859804757384 6.4600044329548645 1 -1 0
3399 1 1.510047350242961 16.478063846055793 7.573628402657474 1 1 0
791 1 7.666892185860688 14.944558540369137 8.870372287153247 0 -1 -1
1936 1 9.168031601506444 17.479172525418686 7.704384651752844 1 0 0
2757 1 6.004736527809322 17.354294161474236 8.601771948154859 0 0 -1
1217 1 17.80349190233658 15.02531982578697 6.431937421362483 0 0 0
567 1 16.997313484863447 17.429622924891017 9.058924706317367 0 -1 0
3376 1 19.68029015182954 16.687708331409283 8.060100889609053 0 0 -1
2640 1 26.16851327635169 14.089846113540325 6.984309677316534 0 1 0
2112 1 22.318752915625897 17.581287227941086 8.608503744638977 0 1 0
2912 1 22.66946541192528 20.34511928754749 9.362564126126275 -1 0 1
2531 1 26.500050253288833 16.391534075158333 5.832895455596567 0 1 1
411 1 28.79078476017616 17.589831283434744 7.299467424315768 0 0 -1
1164 1 29.512444133440678 15.389016897970059 8.490123757195896 0 0 0
3569 1 33.31995388742748 13.907968444771049 5.240121852123247 0 1 2
217 1 34.16737355471212 19.028747289608027 7.600047830453618 0 0 0
2891 1 35.29147478327693 18.187431406520588 10.167722480656822 -1 1 1
482 1 38.511206193084774 20.652761009982704 6.896701503261366 0 1 0
2833 1 45.01307955709478 17.621662990647074 7.84413171879424 -1 1 0
2565 1 47.92955609294285 14.637300231442241 9.086190337207967 0 0 1
2702 1 48.617367441086124 18.09912216399612 7.110329868150404 0 0 0
3837 1 0.6385636959634896 21.121653540920278 7.808329368955251 1 1 0
3675 1 3.3441814879151712 19.189023831154323 9.7539776741198 1 0 0
4084 1 6.304656162967983 19.53073906094379 6.585478857263954 2 0 2
3743 1 11.23345605120439 20.540050784861958 7.773206703018718 0 -1 1
4143 1 12.766978838920785 20.022729638363945 10.277867215005697 0 1 1
3609 1 15.296574724891897 20.657976249334126 6.776645861428241 1 1 0
3465 1 18.803671460030415 18.829252791768816 6.417637489243394 1 1 0
3791 1 18.367821063576987 21.43336655218611 7.886380717764385 0 1 1
3455 1 25.2787443942192 21.337151816065198 9.918474038548503 0 -1 2
3046 1 30.72566337915769 20.588923556575708 10.133622355056742 1 0 1
72 1 33.03003027830886 20.534386956472318 11.713983563859124 0 0 1
2041 1 34.962408827407316 23.383617726934187 6.272595994063784 1 0 1
2955 1 35.64198075626922 21.317985311071972 9.906120046219547 1 0 0
1922 1 36.04854861501355 21.234485935186296 7.26996881423162 -1 -1 1
1558 1 40.83832946144215 18.356659884206373 8.348923220931365 -1 -1 0
1820 1 44.7356518611556 22.560603620245157 9.29973245486543 0 -1 2
3860 1 47.961444892358415 20.561009844479567 6.133687725507497 0 1 1
3091 1 4.477521452278016 22.952840836530005 7.372371341976936 0 0 1
1280 1 3.2844247416821517 19.953604915775202 7.181836481693902 1 0 0
347 1 16.17552546757781 0.9172451093930893 9.445750930038521 0 0 0
196 1 7.003201542496449 22.149168120632517 7.1013510218080675 -1 0 -1
2991 1 9.248555990225267 21.917056159627656 8.77504969897636 0 0 0
599 1 32.00993076137107 12.23858949099701 15.901376021941852 -1 0 -1
2685 1 45.45679414230578 21.341712999473863 13.325208975697732 -1 0 1
2179 1 21.080556490470205 22.575213284693415 7.46164165001846 -1 1 0
3928 1 23.653893145321778 23.758333250700545 8.256210682187799 0 0 0
345 1 22.715182626243003 21.177661542801985 13.413051516348276 -1 -1 1
2605 1 28.512246145270154 24.60491279200576 9.021231909352764 1 0 0
129 1 27.71147063541063 19.22327454334726 15.748399257819711 0 0 1
2839 1 17.462736513721495 22.78689106932661 12.45823158860682 -1 -1 1
2295 1 0.7039044098938557 18.859129481889838 15.961855945860915 1 0 0
2884 1 39.70057372509937 23.143118929587363 9.657390231451094 0 1 0
712 1 43.07796444931702 24.226694672255313 7.259811075342678 1 1 0
1312 1 46.20513825245433 24.27401945160348 10.804395435677478 -1 0 1
1918 1 23.295690359454948 24.788521902697372 1.9815927351212386 1 -1 1
2550 1 19.131311793033795 1.1391783612128503 10.373075154307841 1 1 -1
1474 1 34.022904669554244 10.416235744355106 16.242862910512628 -1 1 0
2424 1 2.9151037166297713 3.1657227642198578 11.432290775169017 2 1 0
3148 1 43.709951839038965 15.658431807457282 14.426222944332572 -1 1 0
3762 1 13.215395556168865 2.9339028785395076 11.422448556361022 -1 1 1
1008 1 15.721539708218785 1.8481675615566702 12.020630487298627 1 0 1