
# Create simulation box of size 50 x 50 x 50 Angstrom
#
lattice	            sc 1
Lattice spacing in x,y,z = 1.0000000 1.0000000 1.0000000
region 	            all block 0 50 0 50 0 50 units box
create_box          1 all
Created orthogonal box = (0.0000000 0.0000000 0.0000000) to (50.000000 50.000000 50.000000)
  1 by 2 by 3 MPI processor grid

# fill box with 4175 randomly distributed atoms
#
create_atoms        1 random 4175 63782 all
Created 4175 atoms
  create_atoms CPU = 0.000 seconds
mass                1 18.015

# Define potential
#
pair_style          sw
pair_coeff          * * ML_mW.sw mW
Reading sw potential file ML_mW.sw with DATE: 2019-02-27

# Run minimization
#
minimize            1.0e-8 1.0e-8 10000 1000
WARNING: Using 'neigh_modify every 1 delay 0 check yes' setting during minimization (../min.cpp:187)
Neighbor list info ...
  update every 1 steps, delay 0 steps, check yes
  max neighbors/atom: 2000, page size: 100000
  master list distance cutoff = 6.0032907
  ghost atom cutoff = 6.0032907
  binsize = 3.0016454, bins = 17 17 17
  1 neighbor lists, perpetual/occasional/extra = 1 0 0
  (1) pair sw, perpetual
      attributes: full, newton on
      pair build: full/bin/atomonly
      stencil: full/bin/3d
      bin: standard
Per MPI rank memory allocation (min/avg/max) = 4.255 | 4.258 | 4.261 Mbytes
Step Temp E_pair E_mol TotEng Press 
       0            0    7792709.3            0    7792709.3    5898794.3 
     630            0   -45180.336            0   -45180.336   -154.07449 
Loop time of 1.17739 on 6 procs for 630 steps with 4175 atoms

99.4% CPU use with 6 MPI tasks x no OpenMP threads

Minimization stats:
  Stopping criterion = max force evaluations
  Energy initial, next-to-last, final = 
      7792709.32924461  -45180.0188663597   -45180.336116598
  Force two-norm initial, final = 2.0191930e+08 4.9721331
  Force max component initial, final = 1.0948746e+08 0.73126211
  Final line search alpha, max atom move = 0.053306038 0.038980685
  Iterations, force evaluations = 630 1000

MPI task timing breakdown:
Section |  min time  |  avg time  |  max time  |%varavg| %total
---------------------------------------------------------------
Pair    | 0.90467    | 0.9937     | 1.0562     |   6.2 | 84.40
Neigh   | 0.024155   | 0.024936   | 0.026178   |   0.4 |  2.12
Comm    | 0.075891   | 0.13822    | 0.22755    |  16.7 | 11.74
Output  | 0          | 0          | 0          |   0.0 |  0.00
Modify  | 0          | 0          | 0          |   0.0 |  0.00
Other   |            | 0.02054    |            |       |  1.74

Nlocal:        695.833 ave         704 max         685 min
Histogram: 1 1 0 0 1 0 0 1 0 2
Nghost:        1494.17 ave        1515 max        1468 min
Histogram: 1 1 0 0 0 0 1 1 1 1
Neighs:        0.00000 ave           0 max           0 min
Histogram: 6 0 0 0 0 0 0 0 0 0
FullNghs:      19997.0 ave       20462 max       19320 min
Histogram: 1 1 0 0 0 0 0 2 0 2

Total # of neighbors = 119982
Ave neighs/atom = 28.738204
Neighbor list builds = 26
Dangerous builds = 0

# Add velocity/set timestep
#
velocity            all create ${TEMP} 120598 rot yes dist gaussian
velocity            all create 230 120598 rot yes dist gaussian
timestep            5.0

# Define output
#
compute	            1 all msd
thermo	            100
thermo_style        custom step temp press vol etotal ke pe c_1[4] density

# Neighbor lists
#
neigh_modify        delay 0 every 1 check yes

# Set fixes
#
fix                 1 all momentum 10 linear 1 1 1 rescale
fix                 2 all nve
fix                 3 all temp/csvr ${TEMP} ${TEMP} 500.0 928347
fix                 3 all temp/csvr 230 ${TEMP} 500.0 928347
fix                 3 all temp/csvr 230 230 500.0 928347
fix                 4 all press/berendsen iso ${PRES} ${PRES} 1000.0 modulus 20000
fix                 4 all press/berendsen iso 450 ${PRES} 1000.0 modulus 20000
fix                 4 all press/berendsen iso 450 450 1000.0 modulus 20000

# Run 0.5 ns equilibration
#
dump                1 all custom 1000 eq.${NAME}.dump id type x y z vx vy vz
dump                1 all custom 1000 eq.liquid_density_MLmW.dump id type x y z vx vy vz
run                 100000
Per MPI rank memory allocation (min/avg/max) = 3.506 | 3.508 | 3.511 Mbytes
Step Temp Press Volume TotEng KinEng PotEng c_1[4] Density 
     630          230    892.42114       125000   -42318.699    2861.6373   -45180.336 2.7295415e-33   0.99914793 
     700    146.24597    299.82265    125096.65   -41440.035    1819.5779   -43259.613   0.27493347     0.998376 
     800    180.49325    182.11747    124712.67   -40644.029    2245.6791   -42889.708   0.66175689    1.0014499 
     900     200.6999    366.02997     124113.4   -40198.229    2497.0884   -42695.318    1.1161525    1.0062853 
    1000    211.33122    373.57354    124208.19   -39910.113    2629.3621   -42539.475     1.477683    1.0055174 
    1100     219.6199     504.1938     123882.7    -39699.61    2732.4891   -42432.099    1.8927196    1.0081592 
    1200    220.60837    329.40034    123841.62     -39726.7    2744.7875   -42471.487    2.4253374    1.0084937 
    1300    221.09137    66.587472    123841.78    -39688.56     2750.797   -42439.357    2.9157391    1.0084924 
    1400     218.5767    270.72675    123704.56   -39690.109    2719.5097   -42409.618    3.3060955    1.0096111 
    1500    223.19258    437.74675    124038.37   -39629.456      2776.94   -42406.396    3.7829602     1.006894 
    1600    228.38907    580.70905    123977.76   -39517.943    2841.5942   -42359.538     4.175407    1.0073862 
    1700    231.55159    509.94843    124364.05   -39535.081     2880.942   -42416.023    4.7031844    1.0042572 
    1800    226.28527    309.89587    124042.87   -39625.837    2815.4189   -42441.256    5.2480373    1.0068575 
    1900    228.75895    442.56717    124113.95     -39633.2    2846.1962   -42479.396    5.6224739    1.0062809 
    2000     229.0499    680.92273     124303.1   -39584.185    2849.8163   -42434.002    5.9380485    1.0047496 
    2100    235.48976    298.32624    124313.68   -39536.359    2929.9403   -42466.299    6.3648845    1.0046641 
    2200     230.0053    504.86965     124317.5   -39553.788    2861.7032   -42415.491    6.8086427    1.0046332 
    2300    230.18808    523.62338    124216.72   -39530.998    2863.9773   -42394.976    7.1984802    1.0054483 
    2400    228.04018    377.84828    124063.25   -39531.413    2837.2534   -42368.666    7.7532385    1.0066921 
    2500    231.02472    533.51568    124143.43   -39459.898    2874.3868   -42334.285    8.2384191    1.0060419 
    2600    233.38862    298.22867     124283.6   -39399.028    2903.7981   -42302.826    8.7193033    1.0049072 
    2700    232.87248    571.74223    124196.66   -39401.071    2897.3763   -42298.447    9.2845529    1.0056107 
    2800    233.26364    507.33023     124265.3   -39371.969    2902.2431   -42274.212     9.652635    1.0050552 
    2900    231.84908    253.88456    124139.89   -39441.413    2884.6433   -42326.056     10.08079    1.0060705 
    3000    228.94577    391.40782    123976.48   -39460.835    2848.5206   -42309.356    10.517935    1.0073966 
    3100    230.77848    373.28176    123925.55   -39423.259     2871.323   -42294.582    11.102032    1.0078107 
    3200    227.72701    452.12878    123914.17   -39471.544    2833.3569   -42304.901    11.538848    1.0079032 
    3300    232.80773    397.03946    123840.48   -39454.404    2896.5708   -42350.975    12.045856     1.008503 
    3400    228.54474    255.41564    123849.38   -39497.039     2843.531    -42340.57    12.612032    1.0084305 
    3500    228.58895    215.32464     123571.1   -39517.654    2844.0811   -42361.735    13.014622    1.0107015 
    3600    227.08506    378.66826    123883.28   -39565.287    2825.3698   -42390.657    13.426729    1.0081545 
    3700    224.69938    336.71006     123868.8   -39616.287    2795.6874   -42411.975     13.95114    1.0082724 
    3800    228.57173     582.3665    123812.78   -39551.221    2843.8669   -42395.088    14.281133    1.0087286 
    3900    227.52788    642.43088    123914.98   -39571.798    2830.8794   -42402.678    14.757757    1.0078967 
    4000    229.25922    544.37141    124109.71   -39548.397    2852.4206   -42400.818    15.174903    1.0063153 
    4100    230.49781    719.42362    124201.26   -39543.161     2867.831   -42410.992    15.582181    1.0055735 
    4200    227.68601    515.04719    124387.09   -39556.599    2832.8468   -42389.445    16.073449    1.0040711 
    4300    231.01472    636.41571    124471.56   -39565.342    2874.2623   -42439.604    16.523744    1.0033898 
    4400    226.60804    700.19669    124532.18   -39560.856    2819.4348   -42380.291    17.029287    1.0029014 
    4500    229.46002    481.56634    124722.48   -39573.003    2854.9189   -42427.922    17.359432    1.0013711 
    4600    230.01496    386.70233    124742.32   -39645.516    2861.8234   -42507.339    17.853018    1.0012119 
    4700     233.6956    412.95912    124552.29   -39568.452    2907.6175    -42476.07    18.018875    1.0027394 
    4800    228.94387    381.30283    124532.59   -39638.817    2848.4971   -42487.314    18.384092    1.0028981 
    4900     235.3723    351.45547    124451.29   -39518.702    2928.4789   -42447.181    18.909992    1.0035532 
    5000    232.38369    421.04483    124680.89   -39456.216    2891.2949   -42347.511    19.321006    1.0017052 
    5100     236.0572    348.20411    124655.55   -39525.519    2937.0003    -42462.52      19.9292    1.0019088 
    5200    227.48388    273.65994     124646.8   -39576.884    2830.3319   -42407.216    20.510461    1.0019791 
    5300    228.21832    546.03841    124452.62   -39529.311    2839.4697   -42368.781    20.947843    1.0035425 
    5400    225.73539    471.14118    124531.01   -39565.257    2808.5774   -42373.835    21.408476    1.0029108 
    5500     228.5247    532.13496    124270.69   -39563.917    2843.2817   -42407.199    21.737717    1.0050116 
    5600    229.40783    463.50269    124242.02    -39565.99    2854.2695    -42420.26    22.017588    1.0052436 
    5700    232.21475    457.18407    124296.95    -39577.14     2889.193   -42466.333    22.601671    1.0047993 
    5800    224.08748    494.19638    124288.86   -39618.816    2788.0743   -42406.891    22.992449    1.0048647 
    5900    227.98993    363.47161    124125.51   -39655.064    2836.6281   -42491.692    23.205063    1.0061871 
    6000    224.38227    377.84132    124062.31   -39656.446     2791.742   -42448.188    23.718602    1.0066997 
    6100    233.88217    439.34232    124037.93   -39591.888    2909.9389   -42501.827    24.112294    1.0068975 
    6200     228.6334    527.64067    124125.03   -39643.419    2844.6341   -42488.054    24.571885    1.0061911 
    6300    230.33278    452.92569    124000.66   -39593.485    2865.7777   -42459.263    25.011989    1.0072002 
    6400     231.9151     517.0024    124183.08   -39558.927    2885.4647   -42444.392    25.323109    1.0057207 
    6500    232.12118    402.39065    124143.06   -39499.199    2888.0288   -42387.228    25.740527    1.0060449 
    6600    229.04659    474.02871    124588.88   -39592.123     2849.775   -42441.898    26.249005    1.0024449 
    6700     226.4449    378.60061    124828.79   -39667.338    2817.4051   -42484.743    26.789456    1.0005183 
    6800    227.51514    297.07906    125011.29   -39597.271    2830.7209   -42427.992    27.168763   0.99905769 
    6900    229.20281    372.81056    125152.63   -39539.417    2851.7188   -42391.135    27.514185   0.99792944 
    7000    231.00041    566.55921    125276.52   -39518.782    2874.0843   -42392.866     28.11684    0.9969425 
    7100     234.2767    253.54099    124887.65   -39534.022    2914.8476   -42448.869    28.546823    1.0000467 
    7200    232.01072    572.69149    124733.79   -39601.098    2886.6544   -42487.753    28.937546    1.0012803 
    7300    226.35386    432.48722    124744.41   -39672.523    2816.2724   -42488.795    29.385268    1.0011951 
    7400    225.63552    478.33169    124615.53   -39709.171    2807.3348   -42516.505    29.706599    1.0022306 
    7500    226.03714     507.6459    124528.54   -39679.335    2812.3318   -42491.667     30.10941    1.0029307 
    7600    223.32046    510.42194    124714.13   -39759.821    2778.5311   -42538.352    30.582658    1.0014381 
    7700    230.66402    433.05445    124748.55   -39658.741    2869.8989    -42528.64    30.987394    1.0011619 
    7800    232.58087    385.35254    124713.89    -39624.49    2893.7483   -42518.238    31.198879    1.0014401 
    7900    226.01627     474.4266    124555.95   -39694.305    2812.0721   -42506.377    31.351151      1.00271 
    8000    230.45526    573.43723    124390.58   -39659.318    2867.3015   -42526.619    31.705328     1.004043 
    8100      222.886    240.32979    124390.65   -39730.847    2773.1256   -42503.972    32.063802    1.0040424 
    8200    226.68875     639.4429    124138.43   -39726.417     2820.439   -42546.856    32.483617    1.0060824 
    8300    225.55686     541.7217    124304.86   -39697.841    2806.3561   -42504.197    32.900521    1.0047354 
    8400    227.52885    636.17197    124513.41   -39648.875    2830.8914   -42479.766    33.272544    1.0030525 
    8500     227.6445    640.79204    124660.63   -39576.217    2832.3303   -42408.548    33.514413     1.001868 
    8600     230.6554    441.90453    124580.52   -39598.333    2869.7916   -42468.125    33.916998    1.0025122 
    8700    230.05417    494.07199    124564.55   -39578.936    2862.3112   -42441.247    34.182239    1.0026408 
    8800    229.67026    453.41019    124775.38   -39606.033    2857.5347   -42463.567    34.616296    1.0009466 
    8900    227.23476    529.52911    124751.64   -39682.782    2827.2324   -42510.015    34.786385     1.001137 
    9000    235.34138    419.00411     124761.9   -39649.942    2928.0942   -42578.036    35.368576    1.0010548 
    9100    225.70148    230.09796    124792.39   -39721.015    2808.1555   -42529.171    36.085025    1.0008102 
    9200    227.34761    388.29177    124791.05   -39630.564    2828.6365   -42459.201    36.526175    1.0008209 
    9300    230.73066    418.81461    124760.94   -39679.726     2870.728   -42550.454    36.962474    1.0010624 
    9400    229.40156    394.68032    124786.27   -39640.897    2854.1915   -42495.089    37.579396    1.0008593 
    9500    227.43731    465.88382    124769.94   -39659.104    2829.7525   -42488.856    38.082252    1.0009903 
    9600    233.60652    435.56349    124914.03   -39636.865    2906.5093   -42543.374    38.486078   0.99983555 
    9700    234.96621    450.35623     124859.9   -39566.398    2923.4263   -42489.824    38.785847     1.000269 
    9800    228.58058    445.28185    125029.07    -39631.05     2843.977   -42475.027    39.514276    0.9989156 
    9900    222.50129    193.72075     124978.9   -39695.488    2768.3391   -42463.827    39.823134   0.99931659 
   10000    227.42414    510.21173    124715.92   -39686.235    2829.5887   -42515.824    40.186172    1.0014238 
   10100    230.56845    319.73121    124666.74   -39655.792    2868.7098   -42524.502    40.611121    1.0018189 
   10200    223.13866    627.07461    124595.72   -39701.359    2776.2691   -42477.628    41.261059    1.0023899 
   10300    232.38912    327.52741     124867.7   -39705.272    2891.3625   -42596.635    41.732132    1.0002065 
   10400    230.10615    610.54986    124859.63   -39655.225    2862.9579   -42518.183    42.253598    1.0002712 
   10500    225.62572    520.51097    124929.54   -39616.652    2807.2129   -42423.865    43.035775   0.99971146 
   10600    228.26988    439.92572    125014.57   -39549.184    2840.1113   -42389.295    43.466598   0.99903149 
   10700    236.43422    662.48012    124975.88   -39529.183    2941.6912   -42470.875    43.776275   0.99934073 
   10800    229.09499     475.8502    124919.02   -39510.624    2850.3773   -42361.001    44.040298   0.99979564 
   10900    231.71941    393.17283    125127.97   -39536.922      2883.03   -42419.952    44.381916   0.99812609 
   11000    231.11107    535.09713    124892.54   -39526.333     2875.461   -42401.794    44.776883    1.0000076 
   11100    230.76183    524.46243     124898.7   -39569.652    2871.1159   -42440.768    45.159179    0.9999583 
   11200    231.58501    456.31679    124754.03   -39576.466    2881.3578   -42457.824    45.564744    1.0011179 
   11300    232.40188    456.34479    124679.47   -39573.536    2891.5212   -42465.057    45.815781    1.0017166 
   11400    230.07881    494.78115    124533.29   -39589.582    2862.6178     -42452.2    46.203733    1.0028924 
   11500    232.61087    48.233668    124396.54   -39619.759    2894.1214   -42513.881    46.676718    1.0039949 
   11600    231.67412    391.57633    124363.08   -39625.334    2882.4665   -42507.801    46.897559     1.004265 
   11700    235.64167    500.95494    124482.38   -39536.566    2931.8304   -42468.397    47.235797    1.0033026 
   11800    224.89815    472.37477    124445.04    -39620.36    2798.1605   -42418.521    47.412402    1.0036036 
   11900    230.82427    555.87317    124625.04   -39623.021    2871.8928   -42494.913    47.906248    1.0021541 
   12000    229.65585     394.9784    124645.42   -39629.028    2857.3554   -42486.384     48.72216    1.0019902 
   12100    234.12121    266.76756    124598.78   -39592.225     2912.913   -42505.138    49.037819    1.0023653 
   12200    232.87903     389.8297    124544.32   -39584.844    2897.4579   -42482.302    49.428137    1.0028036 
   12300    231.02668    427.12856    124382.67   -39590.843    2874.4111   -42465.254     49.91349    1.0041068 
   12400    227.94895    453.52452    124496.35   -39576.144    2836.1182   -42412.262    50.352141      1.00319 
   12500    225.90535    417.54089    124419.46   -39685.069    2810.6921   -42495.762    50.830131      1.00381 
   12600    224.92416    218.43436       124517   -39600.824    2798.4841   -42399.308    51.349195    1.0030236 
   12700    231.05337    311.05606    124513.61   -39570.423    2874.7432   -42445.166    52.061861     1.003051 
   12800     231.8679    541.50277     124558.2   -39533.187    2884.8775   -42418.064    52.378841    1.0026918 
   12900     232.6833    459.93858     124662.1   -39608.905    2895.0226   -42503.927    52.681383    1.0018561 
   13000    232.84179     348.4117    124702.92   -39547.708    2896.9946   -42444.703    53.113519    1.0015282 
   13100    234.95879    430.78774     124737.8   -39551.171     2923.334   -42474.505    53.658252    1.0012482 
   13200    234.76641    379.12881     124751.4   -39479.376    2920.9405   -42400.316    54.407221     1.001139 
   13300    232.64745     628.4147    124621.25   -39510.091    2894.5765   -42404.668    55.155981    1.0021845 
   13400    230.59201    446.20607    124675.99   -39593.626     2869.003   -42462.629    55.992667    1.0017445 
   13500    229.53728    289.07123    124568.01   -39632.699    2855.8801   -42488.579    56.316358    1.0026129 
   13600    227.50253    279.44939    124449.34   -39662.416     2830.564    -42492.98    56.561112    1.0035689 
   13700     224.8183    245.68167    124529.75   -39656.625     2797.167   -42453.792    56.759606    1.0029209 
   13800    228.73275    641.97834    124539.21   -39564.405    2845.8702   -42410.275    57.010796    1.0028447 
   13900    231.14283    498.11123    124585.77   -39598.688    2875.8562   -42474.544    57.298212    1.0024699 
   14000    231.68746    548.93047    124914.87   -39597.249    2882.6325   -42479.882    57.774523   0.99982882 
   14100    228.77491    467.77024    125001.77   -39598.945    2846.3948    -42445.34    58.445143   0.99913376 
   14200     231.5354    461.77819    125043.22    -39652.51    2880.7406   -42533.251    58.786347   0.99880258 
   14300    227.42969    380.70015    125013.23   -39710.801    2829.6578   -42540.459    59.173491   0.99904219 
   14400    225.42725    493.35325    125154.69   -39668.466    2804.7435   -42473.209    59.804212   0.99791303 
   14500    232.43751    397.71198    125217.95   -39613.167    2891.9645   -42505.131    60.193521   0.99740883 
   14600    231.83301    553.52276    125258.77   -39630.529    2884.4434   -42514.972     60.64006   0.99708378 
   14700     225.2613    501.46582    125227.97   -39672.603    2802.6789   -42475.282    60.957356   0.99732902 
   14800     228.5086    324.01996    125007.65   -39716.202    2843.0814   -42559.283    61.275038   0.99908681 
   14900    224.41811    425.49721    124870.59   -39766.751    2792.1879   -42558.939     61.62741    1.0001834 
   15000    225.96917    303.58384    124771.01   -39766.242    2811.4861   -42577.728     61.64244    1.0009816 
   15100    221.84627    369.12346    124786.03   -39791.726    2760.1894   -42551.915    61.708976    1.0008612 
   15200    228.46245     456.2206    124682.63   -39698.869    2842.5073   -42541.376    61.859209    1.0016912 
   15300    228.29676    428.30621    124740.04   -39702.327    2840.4458   -42542.772    62.365121    1.0012302 
   15400    225.41603    696.81917    124956.99   -39696.356     2804.604    -42500.96    62.943143   0.99949183 
   15500    227.45546    489.86378    125159.78   -39698.605    2829.9784   -42528.583    63.408753   0.99787237 
   15600    231.41262    563.41521    125244.91   -39650.134    2879.2129   -42529.346    63.781768   0.99719418 
   15700    227.55164    450.39861    125528.39   -39756.148    2831.1751   -42587.324    64.106382   0.99494218 
   15800    229.33857    435.04361    125428.11   -39773.441    2853.4078   -42626.849    64.264609   0.99573763 
   15900    221.26965    536.79904    125278.66   -39813.443    2753.0151   -42566.458    64.703048   0.99692551 
   16000    230.53158    506.90025    125256.24   -39741.893    2868.2511   -42610.144    65.139815   0.99710394 
   16100    230.85288    396.08849    125322.43   -39700.498    2872.2487   -42572.746     65.82976   0.99657731 
   16200    224.70174    299.11661    125240.21   -39743.472    2795.7169   -42539.189    66.191318   0.99723153 
   16300    228.96109    426.52117    125259.28   -39743.451    2848.7112   -42592.162    66.346952   0.99707976 
   16400    232.23183    370.97227    125531.43   -39639.538    2889.4055   -42528.944    66.603806   0.99491807 
   16500    229.51342    337.97185    125276.14   -39626.303    2855.5833   -42481.886    66.770914   0.99694559 
   16600    234.84469    402.78777    125271.05   -39606.067    2921.9144   -42527.981    67.299246   0.99698606 
   16700    231.58996    693.19218    125238.08    -39651.26    2881.4194    -42532.68    67.273858   0.99724854 
   16800    236.00132    346.90875    125285.99   -39650.563    2936.3051   -42586.868    67.345518   0.99686721 
   16900    230.95526    188.84245    125085.33    -39627.62    2873.5226   -42501.142    67.463412   0.99846637 
   17000    233.63626    448.59511    125042.77   -39645.149    2906.8792   -42552.028    67.770855    0.9988062 
   17100    232.78026    419.59885     125159.5   -39568.405     2896.229   -42464.634    68.208156   0.99787465 
   17200     235.8174     422.4186    125131.84   -39581.984    2934.0167       -42516     68.60065   0.99809519 
   17300    227.97384    347.46166    125284.89   -39634.651     2836.428   -42471.079    69.171745   0.99687596 
   17400    226.86136    582.82567    125437.64   -39628.634    2822.5866    -42451.22    69.581765   0.99566201 
   17500    231.04219    374.51394    125501.44   -39608.264    2874.6041   -42482.868    70.023267   0.99515587 
   17600    228.51616    542.36068    125085.62   -39589.907    2843.1755   -42433.082    70.417223   0.99846404 
   17700     231.6643    470.37659    124940.97   -39609.781    2882.3443   -42492.126     71.06636   0.99961996 
   17800    226.97805    474.81837    124785.44   -39616.734    2824.0384   -42440.772    71.070818    1.0008659 
   17900    232.70388    523.59217    124625.14   -39573.415    2895.2787   -42468.694      71.3614    1.0021533 
   18000     235.1395    453.52731    124701.12   -39511.669    2925.5824   -42437.251    71.787569    1.0015427 
   18100    226.01133      343.102    124459.52   -39608.915    2812.0106   -42420.926    72.100713    1.0034869 
   18200    234.18834    494.49549    124771.02   -39614.043    2913.7482   -42527.791    72.674942    1.0009816 
   18300    235.19481     388.8975    124652.53   -39533.408    2926.2706   -42459.678    72.800354    1.0019331 
   18400    230.05547    393.34135    124654.82   -39589.218    2862.3275   -42451.546    73.410029    1.0019147 
   18500    228.76962     419.6182    124729.33   -39529.596     2846.329   -42375.925    74.247451    1.0013161 
   18600    227.57531    400.29001    124727.76   -39575.476    2831.4696   -42406.945    75.060963    1.0013288 
   18700    232.64479    470.10999    124649.99    -39534.16    2894.5434   -42428.704    75.753483    1.0019535 
   18800     228.9893    477.39279    124579.98   -39513.175    2849.0623   -42362.237    75.951095    1.0025166 
   18900    233.24317    495.68469    124297.82   -39543.481    2901.9885    -42445.47    75.970055    1.0047923 
   19000    235.54944    284.51714    124332.67   -39508.522    2930.6828   -42439.205    76.393275    1.0045106 
   19100    229.84997    231.27746       124230   -39556.521    2859.7706   -42416.291    76.722986    1.0053408 
   19200    230.70275    341.25919    124383.19   -39518.035    2870.3808   -42388.416    77.247689    1.0041026 
   19300    231.86027    541.05202    124262.67   -39470.604    2884.7826   -42355.387    77.659167    1.0050765 
   19400    229.86856    307.62241    124253.72   -39487.416    2860.0019   -42347.418    78.039976    1.0051489 
   19500    235.10791     409.2859    124382.16   -39484.465    2925.1894   -42409.654    78.483885     1.004111 
   19600    233.99139    619.11156    124475.59   -39545.032    2911.2977    -42456.33    78.808712    1.0033573 
   19700    236.27193    577.71572    124590.56   -39530.065     2939.672   -42469.737    79.451923    1.0024314 
   19800    230.06957    559.53252    124750.02   -39567.038    2862.5029   -42429.541    79.938676    1.0011501 
   19900    233.34666    327.54444    124843.25   -39573.867     2903.276   -42477.143    80.296503    1.0004024 
   20000    231.51882     484.3854    124713.44   -39640.273    2880.5342   -42520.807    80.526547    1.0014437 
   20100    233.28581     372.0616    124625.13   -39596.512     2902.519   -42499.031    80.825312    1.0021534 
   20200    225.81221    602.38291    124673.59    -39643.86    2809.5331   -42453.393    81.175184    1.0017638 
   20300    227.65481    311.21225     124754.1   -39668.378    2832.4586   -42500.836    81.564694    1.0011173 
   20400     228.5207    309.90279     124477.4   -39681.876    2843.2319   -42525.108    81.749584    1.0033427 
   20500    231.93347    442.01964    124519.93   -39649.754    2885.6934   -42535.447    82.434062    1.0030001 
   20600    226.92442    378.69104    124641.21   -39686.016    2823.3712   -42509.388    82.845561     1.002024 
   20700    230.50136    664.19788    124594.68   -39629.124    2867.8752   -42496.999     83.24106    1.0023982 
   20800    231.96364    533.21396    124554.53   -39634.315    2886.0686   -42520.384    83.454388    1.0027214 
   20900    227.65927    439.24595       124413   -39682.459    2832.5141   -42514.973    83.584636    1.0038621 
   21000    226.06825    541.99421    124498.38   -39774.919    2812.7188   -42587.638    83.866546    1.0031736 
   21100    226.60633    526.82765    124765.11   -39785.503    2819.4135   -42604.917    84.221999     1.001029 
   21200     228.7934    334.18067    124867.62   -39750.309    2846.6249   -42596.934    84.373729    1.0002072 
   21300    228.81123    618.67196    124623.89   -39765.835    2846.8467   -42612.682    84.706428    1.0021633 
   21400    228.85531     550.4287    124661.92   -39729.669    2847.3952   -42577.065    84.991022    1.0018576 
   21500    224.66325    301.38396    124547.69   -39713.526    2795.2379   -42508.763    85.201576    1.0027764 
   21600    231.16732    606.04976    124583.35   -39661.513    2876.1609   -42537.674    86.034149    1.0024894 
   21700    233.20336    511.54869    124896.79   -39634.351    2901.4931   -42535.844    86.537951   0.99997361 
   21800     233.1119    425.54641    124819.27   -39618.973    2900.3553   -42519.328    87.218685    1.0005947 
   21900    228.41701    487.95464    124934.33   -39641.579    2841.9418   -42483.521    87.790577   0.99967315 
   22000    227.78384     468.8581    124873.94   -39688.596     2834.064    -42522.66    88.092482    1.0001566 
   22100    232.17662    363.45546    125025.11   -39626.351    2888.7185   -42515.069    88.729327   0.99894729 
   22200    231.28409    600.08188    125081.87   -39649.843    2877.6138   -42527.457    89.074983   0.99849395 
   22300     228.7509    419.24225    125097.83   -39627.468    2846.0961   -42473.564    89.698569   0.99836655 
   22400    231.92243    273.79993    124836.85   -39600.511     2885.556   -42486.067    89.613096    1.0004537 
   22500    231.05347    643.50413    124872.92   -39594.596    2874.7445   -42469.341    90.135917    1.0001647 
   22600     230.4562    381.95093    124848.41   -39543.954    2867.3132   -42411.268    90.354329    1.0003611 
   22700    232.92426    423.00421    124662.37   -39549.539    2898.0206    -42447.56    90.655865     1.001854 
   22800    230.69343    414.31821     124421.5   -39518.839    2870.2648   -42389.104    90.436429    1.0037935 
   22900    230.60689     497.2462    124438.97   -39554.324    2869.1881   -42423.512    90.544002    1.0036526 
   23000    230.58376    449.74978    124536.42   -39512.746    2868.9004   -42381.647    90.803525    1.0028672 
   23100    226.87643    210.78315    124452.74   -39619.942    2822.7742   -42442.716    91.361189    1.0035415 
   23200    227.23119    246.55139    124317.81   -39575.646     2827.188   -42402.834    91.967368    1.0046307 
   23300    228.22517    686.03182    124338.66   -39621.482    2839.5551   -42461.037    92.368374    1.0044622 
   23400    233.41017    333.19581    124410.59   -39546.776    2904.0662   -42450.842    92.728685    1.0038815 
   23500    230.35057    151.62651     124460.6   -39581.801    2865.9991     -42447.8    93.467162    1.0034781 
   23600    228.24504     654.1916    124499.27   -39554.246    2839.8023   -42394.048    94.017441    1.0031664 
   23700     229.0555    391.93412    124488.37   -39601.565    2849.8859   -42451.451    94.272401    1.0032543 
   23800    229.82344    415.56262    124372.71   -39652.435    2859.4405   -42511.876    94.543815    1.0041873 
   23900    225.24644    618.30343    124559.74   -39668.507     2802.494   -42471.001    95.278926    1.0026794 
   24000    227.21893     482.3753    124702.34   -39580.991    2827.0354   -42408.027    95.693009    1.0015329 
   24100     232.2386    339.31367     124440.2   -39580.344    2889.4897   -42469.834    95.718913    1.0036426 
   24200     226.3938    274.97146    124326.62   -39649.405    2816.7693   -42466.174    96.319364    1.0045595 
   24300    229.14213    568.68473    124458.86    -39614.65    2850.9637   -42465.614    96.929968    1.0034922 
   24400    227.49386    416.91112    124685.23   -39668.701    2830.4562   -42499.157     97.11742    1.0016703 
   24500    230.37267    280.68304    124506.22   -39621.616    2866.2739    -42487.89    97.226664    1.0031104 
   24600    228.48816    610.89642    124559.72   -39611.824     2842.827   -42454.651    97.491505    1.0026796 
   24700     228.5181    450.92576    124814.54   -39628.837    2843.1996   -42472.036    97.737166    1.0006326 
   24800    227.99703    227.08445    124872.37   -39636.893    2836.7165   -42473.609    98.024084    1.0001691 
   24900    233.90912    316.67591    124969.48   -39586.212    2910.2741   -42496.486    98.279317   0.99939191 
   25000    235.33399    307.84917    124848.49    -39559.94    2928.0022   -42487.942    98.597825    1.0003605 
   25100    235.64313    417.89147    124623.82   -39563.115    2931.8485   -42494.964    99.311826    1.0021639 
   25200    226.72253    409.82667    124884.18   -39597.312    2820.8594   -42418.171     99.92125    1.0000746 
   25300    223.65074    349.65656    124740.38   -39588.128    2782.6404   -42370.768    100.26556    1.0012275 
   25400    227.55243    286.72186    124705.83   -39567.171    2831.1848   -42398.356    100.50421    1.0015048 
   25500    232.30353    578.17989    124679.03   -39520.558    2890.2976   -42410.856    101.07551    1.0017201 
   25600    228.10602    386.57302    124684.91   -39610.713    2838.0726   -42448.785    101.51868    1.0016729 
   25700    227.63408    463.00248    124632.64   -39630.644    2832.2007   -42462.845    101.94162     1.002093 
   25800    228.79973     427.8102    124476.59   -39609.634    2846.7037   -42456.337    102.27289    1.0033493 
   25900    230.21467    573.30429    124603.22   -39544.805    2864.3082   -42409.113    102.54104    1.0023296 
   26000    234.42386    446.18667    124592.14     -39473.1    2916.6785   -42389.778    103.22248    1.0024187 
   26100    231.73854    514.61609    124622.26   -39573.751     2883.268   -42457.019    103.81386    1.0021764 
   26200    231.58878    497.37687     124984.9    -39567.65    2881.4047   -42449.054     104.2873   0.99926865 
   26300    231.47912    273.15432    124850.21   -39554.343    2880.0404   -42434.383    104.78905    1.0003466 
   26400     232.2025    472.50792    124865.37    -39551.02    2889.0406   -42440.061    104.75031    1.0002252 
   26500    229.16499    522.22869    125007.78   -39610.578    2851.2482   -42461.826    105.38297   0.99908574 
   26600    227.01527    502.79066     124872.4    -39664.83    2824.5015   -42489.332    105.94226    1.0001689 
   26700    227.31569    300.55932    124705.99   -39694.164    2828.2393   -42522.403    106.23441    1.0015036 
   26800    231.16413    386.86886    124768.33   -39613.337    2876.1213   -42489.459    106.93716    1.0010031 
   26900    226.58914    425.76659    124745.24   -39625.719    2819.1997   -42444.918    107.32177    1.0011884 
   27000    223.09135    528.22403    124785.04   -39665.803    2775.6805   -42441.483    107.87738    1.0008691 
   27100    225.45848    521.94918    124528.55   -39653.713    2805.1322   -42458.845    108.47577    1.0029306 
   27200    224.11703    402.20824    124676.25   -39668.675     2788.442   -42457.117    108.72863    1.0017425 
   27300    227.28256    658.13331    124584.73   -39692.886    2827.8271   -42520.713    109.08607    1.0024783 
   27400    228.44094    424.21108    124573.99   -39641.059    2842.2396   -42483.299    109.55814    1.0025647 
   27500     230.6356    597.97842    124689.02   -39569.914    2869.5453    -42439.46     110.0139    1.0016398 
   27600    230.40068    425.79845    124606.57   -39609.183    2866.6225   -42475.806    110.58616    1.0023026 
   27700    234.13058    464.62181    124546.76   -39622.367    2913.0295   -42535.396    110.73614     1.002784 
   27800    233.72565    292.38721     124633.5   -39550.947    2907.9915   -42458.939     111.2925     1.002086 
   27900     226.8411    530.12469    124802.57   -39568.145    2822.3345   -42390.479    111.95015    1.0007285 
   28000    229.65616    630.14969    124742.89   -39594.626    2857.3592   -42451.985    112.53793    1.0012073 
   28100    231.26906     416.9206    124736.27   -39562.266    2877.4268   -42439.693    113.17556    1.0012604 
   28200    229.83368    497.29082    124836.48    -39604.92     2859.568   -42464.488    114.10647    1.0004567 
   28300    228.32502     564.1852    125012.68   -39603.169    2840.7974   -42443.966    114.44698   0.99904655 
   28400    226.83909    359.36963    125125.44   -39636.947    2822.3096   -42459.256    114.52461   0.99814625 
   28500    230.61674    360.67269    125031.86   -39680.987    2869.3106   -42550.297    114.88205   0.99889332 
   28600    229.73062    594.59775    124895.13   -39633.513    2858.2856   -42491.799    115.42169   0.99998687 
   28700    224.60317    109.11031    124982.14   -39643.922    2794.4904   -42438.413    115.34762    0.9992907 
   28800    228.69913    594.44502    124937.63   -39592.602    2845.4519   -42438.054    115.81192   0.99964673 
   28900    227.23607    570.96352    124979.85   -39545.519    2827.2487   -42372.768    116.03268   0.99930905 
   29000    229.13697    333.84511    124845.27   -39636.992    2850.8995   -42487.891    116.20971    1.0003863 
   29100    230.93034    242.46845    124930.77   -39597.686    2873.2124   -42470.898    116.67447   0.99970163 
   29200    231.04494    362.81759    124906.27   -39570.897    2874.6383   -42445.535    117.01453   0.99989767 
   29300    229.36847     458.1875    124921.92   -39645.579    2853.7799   -42499.359     117.3927   0.99977243 
   29400    233.17001    464.85082    124983.92   -39698.965    2901.0782   -42600.043    117.75545   0.99927647 
   29500    229.54778     318.0109    124950.48   -39745.015    2856.0108   -42601.026    118.10584   0.99954388 
   29600     230.3588    360.61013    124778.67   -39668.399    2866.1014   -42534.501    118.40606    1.0009202 
   29700    226.30383     175.6507    124792.27   -39716.774    2815.6499   -42532.424    118.99869    1.0008111 
   29800    233.07813    642.26095    124580.19   -39682.962     2899.935   -42582.897    119.07226    1.0025149 
   29900    226.52351    786.26549    124527.85   -39735.367    2818.3831    -42553.75     119.5077    1.0029362 
   30000    230.74609     555.4619    124736.83   -39724.911    2870.9201   -42595.832    119.83006    1.0012559 
   30100    229.02336    286.89792    124806.69   -39720.681     2849.486   -42570.167    119.89449    1.0006955 
   30200    228.03055    471.46663    124551.11   -39736.524    2837.1336   -42573.657    120.16195     1.002749 
   30300    233.24468    233.64933    124558.35   -39705.894    2902.0073   -42607.902     120.7762    1.0026906 
   30400    231.66974    651.67903    124524.65   -39680.058     2882.412    -42562.47     121.2393     1.002962 
   30500    230.79792    465.66653    124343.37   -39660.354     2871.565   -42531.919    121.13097    1.0044242 
   30600    228.75871    509.17708    124435.11   -39641.224    2846.1933   -42487.418    121.44928    1.0036837 
   30700    225.49356    572.16531    124300.94   -39624.376    2805.5686   -42429.944    121.72592    1.0047671 
   30800    229.11823    561.34909    124263.78   -39544.838    2850.6663   -42395.504    122.36412    1.0050675 
   30900    229.95783    579.53472    124419.46   -39648.539    2861.1126   -42509.652    123.12873    1.0038099 
   31000    225.62497    519.57277    124555.54   -39668.176    2807.2035    -42475.38    123.56664    1.0027133 
   31100    226.50223    268.62072    124453.02   -39644.423    2818.1183   -42462.541    123.62115    1.0035392 
   31200    225.35426    516.00123     124604.7   -39662.953    2803.8354   -42466.789    124.50517    1.0023177 
   31300    229.02021    553.10822    124623.62   -39615.779    2849.4468   -42465.226    125.29688    1.0021655 
   31400    226.51993    504.24954    124675.33   -39573.187    2818.3386   -42391.526    125.77161    1.0017498 
   31500    226.73222    521.83862     124553.6   -39615.065    2820.9798   -42436.045    126.03718    1.0027289 
   31600    233.24852    385.22454    124629.99   -39546.158     2902.055   -42448.213    126.39492    1.0021143 
   31700     227.3361    367.05566    124373.52    -39580.86    2828.4933   -42409.353    126.37322    1.0041808 
   31800    234.20481    360.56079    124374.77   -39512.314    2913.9531   -42426.267    126.71118    1.0041706 
   31900    229.02162    505.22688    124284.74    -39499.67    2849.4644   -42349.134    126.73966    1.0048981 
   32000    229.92733    449.97983    124158.14   -39477.659    2860.7331   -42338.392    127.16036    1.0059227 
   32100     233.7322     614.0356    124294.29   -39497.193    2908.0729   -42405.266    127.49725    1.0048208 
   32200    233.08453    573.17499    124522.28   -39510.005    2900.0146   -42410.019    128.01523    1.0029811 
   32300    232.12723    552.44872    124684.44   -39505.081     2888.104   -42393.185       128.36    1.0016766 
   32400    227.28578    446.61755    124675.07    -39559.59    2827.8672   -42387.457    128.37205    1.0017519 
   32500    229.56665    410.78303    124604.39   -39567.054    2856.2456   -42423.299     129.0273    1.0023202 
   32600    234.26932    186.56798    124748.24   -39514.475    2914.7557   -42429.231    129.57642    1.0011644 
   32700    226.28191    427.33527    124681.34   -39590.914    2815.3771   -42406.291    130.10477    1.0017015 
   32800    229.04895    440.79416    124640.43   -39623.239    2849.8044   -42473.044    130.65219    1.0020303 
   32900    230.75707    473.51001    124604.57    -39626.69    2871.0567   -42497.747    131.13461    1.0023187 
   33000    226.84606    507.12734    124879.39   -39671.911    2822.3963   -42494.307    131.18941    1.0001129 
   33100    230.29087    505.25358    124761.99   -39599.986    2865.2562   -42465.242    131.53531     1.001054 
   33200    229.88695    478.51708    124918.32   -39635.042    2860.2307   -42495.273    132.12828    0.9998012 
   33300      230.434    394.23407    124937.69   -39575.249     2867.037   -42442.286    132.85122   0.99964623 
   33400    226.03415    556.91598    124824.91   -39667.317    2812.2945   -42479.611    133.05318    1.0005494 
   33500    233.37904    631.94162    124966.88   -39635.722     2903.679   -42539.401    133.46273   0.99941271 
   33600    233.12609     476.3255    124955.97   -39619.036    2900.5318   -42519.568    133.74502   0.99950003 
   33700    230.99058    511.27276    125003.89   -39634.389     2873.962   -42508.351    133.84416   0.99911682 
   33800    229.28676    588.87993    124943.13    -39629.07    2852.7632   -42481.834    134.43036    0.9996027 
   33900    229.76236     428.1251    124974.79   -39640.766    2858.6806   -42499.447    134.75683   0.99934945 
   34000    231.63271    622.61532    124847.79   -39595.674    2881.9513   -42477.625    134.81644    1.0003661 
   34100    231.24675    246.58813    125037.84   -39637.963    2877.1492   -42515.112    135.06688   0.99884554 
   34200    227.83883    637.26313    124864.77   -39643.866    2834.7481   -42478.614    135.37487      1.00023 
   34300    229.91935    411.20923    125023.84   -39687.213    2860.6338   -42547.846    136.31277   0.99895744 
   34400     228.2954    381.67936    124984.64   -39610.354    2840.4289   -42450.783    136.73191   0.99927072 
   34500    229.74742    372.21009    124995.11   -39633.061    2858.4947   -42491.556    137.02247   0.99918705 
   34600    228.35183    281.12157    124979.63   -39614.058    2841.1309   -42455.189    137.98123   0.99931078 
   34700    226.94221    356.02203    124925.05   -39699.447    2823.5926    -42523.04    138.62232   0.99974735 
   34800    230.20071    590.50777    124964.34   -39689.385    2864.1345   -42553.519    139.04845   0.99943306 
   34900    232.05037    517.26585     125198.6   -39717.842    2887.1478    -42604.99    139.74164   0.99756299 
   35000    227.08786    259.95501    124799.82   -39806.236    2825.4047   -42631.641    139.19436    1.0007506 
   35100    225.73782     747.8946    124957.87   -39745.514    2808.6077   -42554.122    139.52541   0.99948481 
   35200    229.67601        565.8    125117.14   -39750.596    2857.6062   -42608.202    140.03794    0.9982125 
   35300    224.47925     610.7117    125226.28   -39732.043    2792.9486   -42524.991    140.64797   0.99734246 
   35400    224.62488    493.80512     125084.9   -39746.618    2794.7606   -42541.379    141.29703    0.9984698 
   35500    232.65895    564.90385    125117.06   -39633.353    2894.7196   -42528.072    142.17812   0.99821315 
   35600    228.09814    403.88559    125007.71   -39685.584    2837.9746   -42523.558    142.33577   0.99908633 
   35700    231.09025     428.1686    124885.09   -39641.788    2875.2021    -42516.99    142.68686    1.0000672 
   35800    229.98385    488.62405    124577.35   -39677.861    2861.4363   -42539.298    142.27789    1.0025377 
   35900    234.02911    280.59278    124419.82   -39606.673    2911.7671    -42518.44    142.26291     1.003807 
   36000    231.29421    514.83504     124338.3     -39570.7    2877.7397    -42448.44    143.06429    1.0044652 
   36100     229.8824    377.17788    124399.46   -39576.235    2860.1741   -42436.409    143.85729    1.0039713 
   36200    228.84871    379.80288    124221.08   -39589.086    2847.3131   -42436.399    144.73703     1.005413 
   36300     227.9303    387.65705    124427.33   -39650.986    2835.8862   -42486.872    145.25682    1.0037465 
   36400    230.89752    392.30975    124375.45   -39595.674    2872.8042   -42468.478    145.82794    1.0041651 
   36500    231.00945    248.37891    124659.87    -39577.06    2874.1967   -42451.257     146.1388    1.0018741 
   36600    226.61548    481.56173    124599.24   -39716.776    2819.5274   -42536.304    146.37742    1.0023616 
   36700    228.52136    533.27277    124543.46   -39650.838    2843.2401   -42494.078    146.91765    1.0028105 
   36800    227.13576    663.67334    124706.28   -39631.962    2826.0007   -42457.963    147.47154    1.0015012 
   36900    227.51992    571.98905    124872.19   -39638.959    2830.7803    -42469.74    147.88558    1.0001706 
   37000    234.83414    336.11744    125018.15   -39585.652    2921.7832   -42507.435    148.73262   0.99900286 
   37100    229.64829    556.82608    125044.57   -39581.545    2857.2614   -42438.806    149.17133   0.99879182 
   37200    225.67294    295.52648    125042.01    -39647.84    2807.8004    -42455.64    149.27915   0.99881224 
   37300    225.39751    326.71255    124803.07   -39666.001    2804.3735   -42470.375    149.16119    1.0007245 
   37400    230.95834    424.72206    124751.92   -39708.317    2873.5608   -42581.878    150.27969    1.0011348 
   37500    224.61389    616.36269    124716.97   -39733.209    2794.6238   -42527.832    150.68983    1.0014154 
   37600     229.5067    536.65086    124759.48   -39693.577    2855.4997   -42549.076    151.33275    1.0010741 
   37700    232.04945    411.56035    125128.89   -39727.245    2887.1363   -42614.381    151.88625   0.99811873 
   37800    225.14384     450.4985    124991.04    -39838.54    2801.2174   -42639.757    152.27363   0.99921954 
   37900    223.34921    549.42849    125049.18   -39783.503    2778.8888   -42562.391    152.91872   0.99875495 
   38000    231.46569     458.3593       124932   -39755.056    2879.8733    -42634.93    153.81401   0.99969177 
   38100    233.95019    590.87402    125006.39   -39711.961    2910.7851   -42622.746     154.0739   0.99909682 
   38200    228.60945    550.95791    125000.51   -39735.769    2844.3361   -42580.105    154.33588   0.99914387 
   38300    233.86389    606.77818    124993.83   -39663.373    2909.7115   -42573.085    154.78244   0.99919728 
   38400    231.47902    508.93731       124946   -39721.548    2880.0391   -42601.587    155.31195   0.99957973 
   38500    228.52962    547.74474    125086.32   -39733.442    2843.3429   -42576.785    155.99801    0.9984584 
   38600    225.68153    321.11045    124970.78   -39665.821    2807.9073   -42473.728    156.21017   0.99938151 
   38700    226.86732     523.2143    124921.71   -39651.874    2822.6608   -42474.535    156.41549   0.99977407 
   38800    228.13918    459.27063    124827.49   -39669.731    2838.4852   -42508.216    156.76818    1.0005287 
   38900    232.55902    414.16529    124933.54   -39623.059    2893.4764   -42516.535    157.30808   0.99967943 
   39000    227.05583     623.6171    124876.37   -39660.603    2825.0062   -42485.609    157.13267    1.0001371 
   39100    232.35737    316.94785    125019.37   -39620.738    2890.9674   -42511.705    157.87646   0.99899309 
   39200    229.57181    485.15031    124901.01   -39655.414    2856.3097   -42511.724    158.60305   0.99993981 
   39300    230.92884    654.34968    125121.11   -39634.395    2873.1939   -42507.589    159.38274   0.99818083 
   39400     233.4698    534.37882     125247.7   -39581.588    2904.8082   -42486.396    159.79045   0.99717195 
   39500    231.90987     532.4152    125122.08   -39575.222    2885.3996   -42460.622    159.73009    0.9981731 
   39600    230.27577    427.34571    125337.77   -39617.448    2865.0683   -42482.516    160.15209   0.99645538 
   39700    232.14748    372.78813    125424.64   -39563.943     2888.356   -42452.299    160.22329   0.99576518 
   39800    229.17788    340.29839    125360.88   -39640.124    2851.4085   -42491.532    160.48798   0.99627166 
   39900    228.54221    492.00982    125165.48   -39675.018    2843.4996   -42518.518    160.53165   0.99782696 
   40000    223.84605    550.25996    125156.47     -39691.6    2785.0704    -42476.67    160.96667   0.99789882 
   40100    229.96787    420.89059    124951.94   -39581.488    2861.2376   -42442.726    161.29119   0.99953219 
   40200    227.41145    547.16107    125031.85   -39597.283    2829.4308   -42426.714    162.41288   0.99889338 
   40300    232.33665    379.29775    124918.37   -39585.707    2890.7096   -42476.417     162.3681   0.99980085 
   40400    232.64316    634.20093    124943.19   -39496.485    2894.5232   -42391.008    162.94681   0.99960223 
   40500    233.53558    441.26397    124819.43    -39531.67    2905.6266   -42437.297    163.12199    1.0005933 
   40600    231.80621    371.55556    124620.72   -39579.708      2884.11   -42463.818    162.94643    1.0021888 
   40700    227.89855    558.48562    124397.05   -39628.786    2835.4913   -42464.277    163.40932    1.0039908 
   40800    224.11127    486.00588    124464.27   -39664.932    2788.3702   -42453.302    163.49561    1.0034485 
   40900    226.50648    480.61701    124452.76   -39655.176    2818.1712   -42473.347    163.80384    1.0035414 
   41000     227.6727     534.1506    124504.77   -39577.037    2832.6812   -42409.718    164.02625    1.0031221 
   41100    233.37403    412.56287     124354.5    -39563.18    2903.6166   -42466.797    164.09081    1.0043343 
   41200    230.91165    447.22736    124365.76   -39586.774      2872.98   -42459.754     164.6984    1.0042434 
   41300    225.45319    463.54209    124521.53   -39725.834    2805.0663     -42530.9    165.12869    1.0029871 
   41400    229.56674    316.09392    124511.37   -39670.738    2856.2467   -42526.985    165.54346    1.0030689 
   41500    227.43894    449.90575    124643.42   -39685.466    2829.7728   -42515.239    165.95945    1.0020063 
   41600    227.76395    446.68076    124719.94   -39647.013    2833.8166    -42480.83    166.30289    1.0013915 
   41700    231.93518    550.18525    124895.32   -39623.311    2885.7146   -42509.026     167.1092   0.99998537 
   41800    233.13149     485.8547    124965.32   -39657.383    2900.5989   -42557.982     167.0532   0.99942517 
   41900    231.38462    357.39358    124949.98   -39641.772    2878.8646   -42520.637    167.27822   0.99954793 
   42000    228.79951    431.68815    125261.55   -39635.749    2846.7009    -42482.45    167.52259    0.9970617 
   42100    229.36508      481.861    125119.51   -39626.844    2853.7377   -42480.582    167.84417   0.99819356 
   42200    228.96897    531.46493    124946.45   -39584.452    2848.8093   -42433.262    167.77226   0.99957618 
   42300    231.66124    440.32808    125000.33   -39565.469    2882.3063   -42447.775    168.21871    0.9991453 
   42400    229.48487    379.15344    124893.21   -39602.214     2855.228   -42457.442      168.616    1.0000022 
   42500    230.10557     489.6547    124977.27    -39587.71    2862.9508   -42450.661    169.09516   0.99932969 
   42600     231.6328    291.20575    125126.01   -39598.164    2881.9524   -42480.117    169.40414    0.9981417 
   42700    228.42604    520.23155    125217.98   -39614.962    2842.0542   -42457.016    169.42298   0.99740864 
   42800    226.84651    290.32817    125214.44   -39548.006    2822.4019   -42370.408    169.55687   0.99743682 
   42900    231.15842    374.05306    125150.36   -39634.144    2876.0502   -42510.194    169.92273   0.99794748 
   43000     229.5315    507.65998    125054.65   -39661.147    2855.8082   -42516.956    170.34318   0.99871129 
   43100    228.11027    434.22082    124989.91   -39632.304    2838.1254   -42470.429    170.85438   0.99922858 
   43200    231.70253    461.08571    125144.07   -39596.692      2882.82   -42479.512    171.36641   0.99799764 
   43300    232.08766    374.24686    125029.72   -39631.347    2887.6117   -42518.958    171.67391    0.9989104 
   43400    232.50829    605.79927     125274.1   -39585.134    2892.8452   -42477.979    172.11768   0.99696181 
   43500    230.57233    380.55892    125037.42   -39577.834    2868.7581   -42446.592    171.67182    0.9988489 
   43600    234.55202    598.62946    125041.73   -39488.846     2918.273   -42407.119    172.04398   0.99881447 
   43700     238.5663    396.39199    124822.93   -39534.795    2968.2184   -42503.014    172.10576    1.0005653 
   43800    231.34194     331.1292    124855.27    -39555.31    2878.3336   -42433.644    172.78311    1.0003061 
   43900    230.31146      712.031    124997.61   -39586.454    2865.5125   -42451.967    173.35046   0.99916702 
   44000    229.79572    394.63799    125138.95   -39616.858    2859.0956   -42475.954    174.15918   0.99803855 
   44100    229.64966    301.95329    125025.39   -39623.603    2857.2784   -42480.882    174.82259   0.99894501 
   44200    226.84544    607.72905    124885.39    -39670.59    2822.3885   -42492.978    175.26216    1.0000649 
   44300    230.85076    477.94216    124772.49   -39689.599    2872.2224   -42561.822    175.82035    1.0009698 
   44400    231.43853    525.60575    125159.16   -39646.608    2879.5353   -42526.144    176.95515   0.99787733 
   44500    228.91917    309.29168    125024.02   -39680.081    2848.1896    -42528.27    177.21271   0.99895598 
   44600    224.36412    447.31352    124906.43   -39747.537    2791.5163   -42539.053    177.72807   0.99989641 
   44700    225.26384    430.94374    124945.95   -39712.709    2802.7104   -42515.419    177.94454   0.99958019 
   44800    227.74273    481.46555    125096.71   -39672.945    2833.5525   -42506.498    178.19734   0.99837552 
   44900     232.2354    366.98198    124945.09   -39639.314    2889.4498   -42528.763    177.68751   0.99958706 
   45000     230.5308    247.66586    124720.38   -39629.463    2868.2414   -42497.705    178.03816     1.001388 
   45100    230.88368    673.90769     124868.9   -39571.714    2872.6319   -42444.345    178.57147     1.000197 
   45200    228.87211    219.52232    124831.75   -39626.681    2847.6041   -42474.285    179.21695    1.0004946 
   45300    225.32304    497.19706    124964.35   -39641.287     2803.447   -42444.734    180.44609   0.99943293 
   45400    229.41597    601.33996    125059.24   -39610.476    2854.3708   -42464.847    180.72015   0.99867461 
   45500    228.83884     339.5069    125059.23   -39616.994    2847.1902   -42464.184    181.34282   0.99867471 
   45600    231.95924    416.66283    125058.87   -39614.814     2886.014   -42500.828    182.19792   0.99867756 
   45700    229.31088    512.45342    125123.02   -39632.465    2853.0633   -42485.528    182.56511    0.9981656 
   45800    234.11824    377.41825    124977.43   -39568.994     2912.876    -42481.87    182.57724   0.99932835 
   45900    237.60078    686.10562    124894.62    -39510.23    2956.2055   -42466.435    182.95187   0.99999096 
   46000    231.73014    568.39691    125131.54   -39488.656    2883.1635   -42371.819    183.95867   0.99809757 
   46100    237.24309    409.18888    125091.84    -39432.66    2951.7551   -42384.415    184.38714   0.99841441 
   46200    235.96681    235.53121    125106.56   -39407.525    2935.8757   -42343.401    184.40694   0.99829694 
   46300     236.2577    456.65026    124837.24     -39426.6    2939.4949   -42366.095    184.83549    1.0004506 
   46400    238.36465    220.59784    124856.53   -39477.194    2965.7094   -42442.903    185.40566     1.000296 
   46500    228.45194    630.31525    124681.26   -39494.277    2842.3765   -42336.654     185.2909    1.0017022 
   46600    233.90123    364.40795    124578.93   -39495.566     2910.176   -42405.742    186.00539     1.002525 
   46700    225.88195    530.85168    124529.03   -39575.226    2810.4009   -42385.627    185.99412    1.0029267 
   46800    226.14186    418.35094    124597.66   -39605.474    2813.6347   -42419.109    185.72571    1.0023743 
   46900    235.51725    385.79222    124619.06   -39532.184    2930.2823   -42462.467    186.45065    1.0022022 
   47000     226.9582    620.51194    124546.07   -39516.275    2823.7915   -42340.067    186.77452    1.0027895 
   47100    234.06863    334.81236    124290.53    -39491.66    2912.2587   -42403.918    187.10408    1.0048512 
   47200    232.39638    425.56904    124211.49    -39543.88    2891.4528   -42435.333    187.26298    1.0054906 
   47300    227.58053    696.04302    124082.52   -39572.305    2831.5344   -42403.839    187.73746    1.0065357 
   47400    226.87216    495.80366    124405.05   -39514.565     2822.721   -42337.286    189.00304    1.0039262 
   47500    232.25811    355.86613    124384.75   -39446.099    2889.7325   -42335.832    189.64896    1.0040901 
   47600    235.96592    616.74375    124307.26   -39395.092    2935.8647   -42330.956    189.84054     1.004716 
   47700    232.87882    421.83327    124319.05   -39435.453    2897.4552   -42332.908    190.35248    1.0046207 
   47800    233.21075    520.76775    124198.31   -39450.698    2901.5851   -42352.283    190.90874    1.0055974 
   47900     225.7098    851.89292    124308.78   -39543.162     2808.259   -42351.421    191.28608    1.0047037 
   48000    230.60101    496.02736    124417.68   -39559.471     2869.115   -42428.586    191.76886    1.0038243 
   48100    230.14655    291.95315    124246.87    -39519.18    2863.4606    -42382.64    191.90167    1.0052043 
   48200    225.16218    462.22361    124221.71   -39557.211    2801.4456   -42358.656    192.08718     1.005408 
   48300    229.30618    533.58697     124128.1   -39535.475    2853.0048    -42388.48    192.46738    1.0061661 
   48400    229.93585    511.35084    124100.54   -39439.201    2860.8391    -42300.04    192.69364    1.0063896 
   48500    232.20475    595.17657    124286.67   -39497.563    2889.0686   -42386.631    193.74613    1.0048824 
   48600    232.87345    474.56732    124225.22   -39502.662    2897.3885    -42400.05    193.84696    1.0053795 
   48700    229.67467    416.81863     124186.9   -39478.418    2857.5895   -42336.007    194.22985    1.0056898 
   48800    227.30257    580.08726    124062.73   -39505.986    2828.0761   -42334.062    194.39296    1.0066963 
   48900    233.40237    276.41247    124097.12   -39496.894    2903.9692   -42400.863    195.18764    1.0064173 
   49000    234.71039    502.41357    124117.11   -39547.482    2920.2435   -42467.725    195.58856    1.0062552 
   49100    232.83965    515.79071     124520.4   -39568.077    2896.9679   -42465.045    196.20516    1.0029962 
   49200    229.67838    333.97729    124571.34   -39607.442    2857.6357   -42465.078    196.70313    1.0025861 
   49300     233.1957    155.60234     124545.9   -39552.908    2901.3978   -42454.306    197.16601    1.0027909 
   49400    234.64097    411.86544    124441.31   -39543.767    2919.3797   -42463.147    197.90266    1.0036337 
   49500    234.06988    343.54754    124245.49   -39556.643    2912.2743   -42468.917    198.01139    1.0052155 
   49600    227.48982    510.67666    124293.05    -39554.16    2830.4058   -42384.566    198.61157    1.0048308 
   49700    230.30487    402.87982    124338.57   -39571.418    2865.4305   -42436.848    198.97153     1.004463 
   49800    229.55432    527.32801    124508.72   -39625.607    2856.0922   -42481.699    199.60122    1.0030903 
   49900    236.55445    310.99453    124571.37   -39522.858    2943.1871   -42466.045    199.97756    1.0025858 
   50000    230.64334    238.51759    124258.65   -39563.799    2869.6416   -42433.441    200.00894    1.0051091 
   50100    228.20797    338.57724    124205.98   -39559.098     2839.341   -42398.439    200.57605    1.0055353 
   50200    230.25734    373.36058     124475.2   -39593.097     2864.839   -42457.936    201.01135    1.0033604 
   50300    230.88371    482.90387    124371.24   -39562.728    2872.6323    -42435.36    201.18045    1.0041991 
   50400    230.22416    587.90099    124444.38   -39591.729    2864.4262   -42456.155    201.30131    1.0036089 
   50500     227.9348    545.04707    124633.72   -39631.062    2835.9423   -42467.005    201.98407    1.0020843 
   50600    229.00024    544.91479    124607.73    -39657.66    2849.1984   -42506.859    202.75029    1.0022933 
   50700    229.70157    269.97272    124490.52   -39666.669    2857.9243   -42524.593    202.68522     1.003237 
   50800    227.47391    413.58175    124393.76   -39668.261    2830.2079   -42498.469    202.76745    1.0040174 
   50900    230.95116    329.55624    124504.24   -39590.992    2873.4715   -42464.464     202.9388    1.0031264 
   51000    226.38702    556.54207    124557.22   -39616.684    2816.6849   -42433.369    203.51337    1.0026997 
   51100    228.73564    398.57829    124656.95   -39641.508    2845.9063   -42487.414    204.28589    1.0018975 
   51200    223.93293    616.11057    124531.46   -39618.554    2786.1513   -42404.705    204.62507    1.0029072 
   51300    223.91372    553.82115    124514.92   -39675.833    2785.9124   -42461.745    205.05459    1.0030404 
   51400    224.46512    415.57672    124779.16   -39675.115    2792.7728   -42467.888    206.23054    1.0009163 
   51500    226.82545    447.71146    124889.72   -39668.072    2822.1398   -42490.212    206.35611    1.0000302 
   51600    230.19924    440.29712    124924.16   -39602.488    2864.1162   -42466.604    206.77832   0.99975454 
   51700    233.45529    186.15852    124902.31   -39597.913    2904.6277   -42502.541    206.77674   0.99992941 
   51800    228.23938    327.05862    124496.15   -39645.054    2839.7318   -42484.786    206.80675    1.0031916 
   51900    226.38172    551.13855    124572.48   -39682.521     2816.619    -42499.14    207.34575    1.0025769 
   52000    229.02639    326.51475    124766.63   -39701.762    2849.5238   -42551.285    207.73474    1.0010167 
   52100     224.1047    572.65608    125038.84   -39666.063    2788.2885   -42454.352    208.55121   0.99883758 
   52200    228.71059    490.41833     124918.3   -39670.166    2845.5946    -42515.76     208.3768    0.9998014 
   52300    227.65878    522.00146    124938.73   -39635.879    2832.5081   -42468.387    208.66145   0.99963792 
   52400    232.98308    596.37349    124884.88   -39598.732    2898.7524   -42497.485    208.86392    1.0000689 
   52500    230.48529    522.25698    125066.37   -39600.867    2867.6752   -42468.542    209.31065   0.99861771 
   52600    232.54087    473.48311     124784.7   -39664.623    2893.2506   -42557.874    209.04408    1.0008719 
   52700    228.62827     494.8849    124833.45   -39687.984    2844.5703   -42532.554    209.55983     1.000481 
   52800    226.42575    629.15082     124671.1   -39643.784    2817.1668   -42460.951    209.80653    1.0017838 
   52900    229.80615    593.51588     124667.3   -39640.623    2859.2254   -42499.849      210.083    1.0018144 
   53000      226.836    405.87951    124701.84   -39608.096    2822.2711   -42430.367    210.54054    1.0015369 
   53100    228.99144    486.47115    124620.04   -39642.754    2849.0889   -42491.843    210.61601    1.0021943 
   53200    229.57153    650.50768    124841.02   -39636.956    2856.3063   -42493.263    211.29134    1.0004203 
   53300    232.03658    344.19552    124831.98   -39634.327    2886.9761   -42521.303    211.68857    1.0004927 
   53400    227.45215    469.93326    124559.19   -39702.947    2829.9372   -42532.885     211.2527    1.0026839 
   53500    228.29798    597.49195    124476.94   -39710.097    2840.4609   -42550.557    211.99968    1.0033464 
   53600    231.95441    190.85027    124596.64   -39726.417    2885.9538   -42612.371    212.86344    1.0023825 
   53700    224.64473    561.49906    124536.87   -39761.477    2795.0075   -42556.484     212.8944    1.0028636 
   53800     229.8274    306.57659    124622.91   -39646.631    2859.4898   -42506.121    213.35724    1.0021712 
   53900    228.74259    582.13748    124503.28   -39700.876    2845.9927   -42546.868    213.12049    1.0031341 
   54000    231.41984    325.61386    124640.38   -39679.706    2879.3028   -42559.009     213.8565    1.0020308 
   54100    228.24716    429.36992    124792.32   -39693.582    2839.8286   -42533.411    214.61813    1.0008107 
   54200    228.86376     701.5179    125088.98   -39664.696    2847.5002   -42512.197    215.25643   0.99843722 
   54300    229.98315    337.01105    125108.79   -39639.201    2861.4276   -42500.629    215.59776   0.99827909 
   54400    228.93033    412.42546    125060.87   -39667.548    2848.3285   -42515.876    215.99998   0.99866165 
   54500    231.16256    485.80148    124973.29   -39660.042    2876.1017   -42536.144    216.90762   0.99936148 
   54600    236.98597    433.77044    125135.49   -39558.163     2948.556   -42506.719    217.44838   0.99806612 
   54700    231.20227    267.37441    125007.57   -39575.678    2876.5958   -42452.274    218.06341   0.99908745 
   54800    231.47202    494.91879    125046.06   -39654.627     2879.952   -42534.579    218.47416   0.99877986 
   54900    231.09405    503.86256    125146.55   -39711.454    2875.2494   -42586.703    219.33984   0.99797793 
   55000    231.50192    442.36042    125251.66   -39784.164    2880.3239   -42664.488    219.29841   0.99714042 
   55100    230.46268    619.95012    124994.45   -39747.531    2867.3939   -42614.925    219.56002   0.99919233 
   55200    226.32954    524.04977    125358.03   -39755.468    2815.9698   -42571.437    220.17894   0.99629428 
   55300    226.54574    217.55698    125253.26   -39698.223    2818.6597   -42516.883    220.35348   0.99712768 
   55400    228.13578    254.17156    125006.66   -39656.105    2838.4428   -42494.548    220.05008   0.99909466 
   55500    231.80568    609.44716    124694.11   -39575.406    2884.1033    -42459.51    220.16765     1.001599 
   55600     230.1223    398.27005    124807.83    -39622.54    2863.1589   -42485.699    220.62528    1.0006864 
   55700    233.11077    315.24293    124741.69   -39619.617    2900.3412   -42519.958    220.98989    1.0012169 
   55800    229.40494    469.10109    124615.65     -39621.6    2854.2336   -42475.834    220.95495    1.0022296 
   55900     234.1726    258.65931     124724.9   -39565.132    2913.5524   -42478.684    221.19922    1.0013517 
   56000    234.19496    511.12726    124966.76   -39546.372    2913.8306   -42460.203    221.57564   0.99941372 
   56100    232.51736    654.54094    124810.09   -39514.413     2892.958   -42407.371    221.78441    1.0006682 
   56200    235.86471    407.48231    124809.24   -39524.581    2934.6054   -42459.187    221.78356    1.0006751 
   56300    233.20459    381.26542     124656.3   -39584.845    2901.5085   -42486.353    222.06953    1.0019027 
   56400    229.01206    415.29801    124465.83   -39571.532    2849.3454   -42420.877     222.2054     1.003436 
   56500    228.55795    431.02938    124531.34   -39652.717    2843.6955   -42496.413    222.74076    1.0029081 
   56600    230.87076    406.86691    124613.58   -39663.758    2872.4712   -42536.229    223.41512    1.0022462 
   56700    225.23117    447.46959    124771.09   -39697.449     2802.304   -42499.753    224.03984     1.000981 
   56800    228.06645    476.21313     124778.6   -39610.687    2837.5802   -42448.267    224.11098    1.0009207 
   56900    229.24642    340.11461     124725.5   -39608.665    2852.2613   -42460.926    224.83438    1.0013469 
   57000    235.86303    157.78633    124518.74   -39565.751    2934.5845   -42500.335    224.96968    1.0030096 
   57100    230.11983    383.65952    124419.55   -39621.562    2863.1282    -42484.69    225.29673    1.0038092 
   57200    227.00669    243.22244    124297.83   -39663.824    2824.3948   -42488.219     225.3803    1.0047922 
   57300    225.38832    595.60146    124112.66   -39709.678    2804.2592   -42513.937    225.53194    1.0062913 
   57400    223.88548    581.69416    124237.97   -39723.323    2785.5611   -42508.884    226.20534    1.0052763 
   57500    224.35041    522.81935    124295.44   -39770.528    2791.3457   -42561.874    226.52645    1.0048115 
   57600    225.61313    584.57895     124550.4    -39738.54    2807.0563   -42545.596    227.22813    1.0027546 
   57700    226.38547    717.55523    124700.96   -39793.411    2816.6656   -42610.076    227.33542    1.0015439 
   57800     219.4707    476.91213    124398.44   -39809.715    2730.6327   -42540.347    227.99237    1.0039796 
   57900    229.22402    361.32184    124598.29   -39768.808    2851.9825   -42620.791    228.34458    1.0023692 
   58000    226.15785    583.81674    124668.53   -39764.217    2813.8336   -42578.051    228.76365    1.0018045 
   58100    228.70221    442.57099    124589.35   -39702.161    2845.4903   -42547.651    229.04902    1.0024412 
   58200    228.83297    589.80568    124599.14   -39661.529    2847.1172   -42508.647    229.00257    1.0023624 
   58300     231.0336    414.32828    124702.69   -39591.699    2874.4973   -42466.196    229.53681    1.0015301 
   58400    232.37743    582.99633    124728.95   -39598.979    2891.2171   -42490.196    229.52272    1.0013192 
   58500    230.90685    428.07208    124753.82   -39598.763    2872.9202   -42471.683    229.99054    1.0011196 
   58600    229.45952    617.50332    124903.11   -39574.663    2854.9127   -42429.576    230.73852   0.99992299 
   58700    234.81946     673.3776    124979.49   -39577.353    2921.6006   -42498.953    231.74585   0.99931187 
   58800    229.91312    460.12403    125136.25   -39624.675    2860.5563   -42485.232    232.47637   0.99806001 
   58900    227.22298    533.59605    125191.54    -39682.02    2827.0859   -42509.106    232.96187   0.99761923 
   59000    231.92094    299.84624    125160.31    -39683.43    2885.5374   -42568.967    232.95704   0.99786818 
   59100    232.20164    530.78639    125224.85   -39674.653    2889.0299   -42563.683    233.49931   0.99735389 
   59200    228.38426    503.73716    125296.72   -39689.103    2841.5343   -42530.638    233.72578   0.99678181 
   59300    231.40323    464.07287    125422.85   -39697.527    2879.0961   -42576.623    234.12133   0.99577944 
   59400    228.42154    403.50046    125492.97   -39752.837    2841.9983   -42594.836    233.95933   0.99522303 
   59500    227.80215    566.63493    125326.72   -39716.072    2834.2918   -42550.364    233.57637   0.99654318 
   59600    230.12096    424.86302     125288.7   -39694.339    2863.1423   -42557.481    234.02817   0.99684564 
   59700    225.06372    444.84758     125308.6   -39729.235    2800.2206   -42529.456    234.71882   0.99668727 
   59800    227.99952    437.65518    125184.15   -39722.188    2836.7475   -42558.936     234.9722   0.99767812 
   59900    229.73708    804.28993    125069.54    -39698.14     2858.366   -42556.506    235.50559   0.99859238 
   60000    223.56446    472.64891    124923.74   -39736.673    2781.5669    -42518.24    235.07124   0.99975789 
   60100     226.0678    577.74025    124994.91   -39693.542    2812.7132   -42506.255    234.70783   0.99918865 
   60200    230.64333    380.05333    124995.66   -39669.398    2869.6415   -42539.039    235.08113   0.99918263 
   60300    230.28335    492.31886    125082.28   -39630.504    2865.1626   -42495.667    235.56193   0.99849067 
   60400    230.21752    343.71422    124929.86    -39572.12    2864.3437   -42436.464    235.50582   0.99970891 
   60500    230.45096    366.98516    124761.51   -39599.913    2867.2481   -42467.161    235.69249    1.0010579 
   60600    230.50555    547.85253    124840.93   -39644.266    2867.9273   -42512.193    235.73341     1.000421 
   60700    228.48432    405.83036    124666.07   -39648.835    2842.7793   -42491.614     236.0516    1.0018243 
   60800     230.2098    340.66758     124696.9   -39602.236    2864.2475   -42466.484    236.05966    1.0015766 
   60900    230.84526     374.4168    124709.69    -39584.08    2872.1539   -42456.234    236.88449    1.0014738 
   61000    232.61038    385.33796    124682.89   -39631.042    2894.1154   -42525.158    237.24188    1.0016891 
   61100    229.43012    480.76747     124741.8   -39663.986    2854.5469   -42518.533    237.70124    1.0012161 
   61200    231.27311    523.48042    124930.19   -39676.235    2877.4772   -42553.712    238.54001   0.99970624 
   61300     229.0869    408.25657    125118.62   -39676.598    2850.2765   -42526.874    239.11238   0.99820066 
   61400    228.15368    480.58835    124845.75   -39709.442    2838.6655   -42548.107     239.4852    1.0003824 
   61500    225.21346    291.33215     124774.8   -39713.702    2802.0837   -42515.785    239.91342    1.0009512 
   61600    226.29528    253.08317    124719.56   -39675.993    2815.5435   -42491.536    239.62224    1.0013945 
   61700    228.54397    302.31346    124664.89   -39743.261    2843.5215   -42586.782    239.60567    1.0018337 
   61800    222.73922    566.45689    124562.27    -39807.92    2771.2993    -42579.22    239.79657    1.0026591 
   61900    228.87912    457.98839    124359.66   -39738.566    2847.6914   -42586.257    239.87995    1.0042926 
   62000    227.78276    452.43604    124362.31   -39679.549    2834.0506   -42513.599    240.26019    1.0042713 
   62100    226.66043    315.46055    124435.93   -39674.722    2820.0867   -42494.809    241.17871    1.0036771 
   62200    232.32723    411.13557    124611.66   -39617.243    2890.5924   -42507.835    241.36044    1.0022617 
   62300    227.56393    502.13153    124712.57   -39656.593    2831.3279    -42487.92    242.14113    1.0014507 
   62400    227.38562    708.48149    124775.24   -39610.701    2829.1094   -42439.811    242.74215    1.0009477 
   62500    231.06332    452.63625    124969.48   -39623.996     2874.867   -42498.863    243.04436   0.99939198 
   62600    228.32629    378.81937    125048.58   -39623.903    2840.8132   -42464.716     243.6246   0.99875981 
   62700    227.99538    232.95721    124625.18   -39655.188    2836.6959   -42491.884    243.33338     1.002153 
   62800    229.34811    435.64759    124616.83   -39624.555    2853.5265   -42478.082    244.06424    1.0022201 
   62900    226.38198    471.01324    124428.44   -39560.454    2816.6222   -42377.077    244.67597    1.0037375 
   63000    229.97553    234.07031    124485.64    -39521.88    2861.3328   -42383.213    244.95354    1.0032763 
   63100    235.34463     390.9765    124366.92   -39500.909    2928.1346   -42429.043    245.59146     1.004234 
   63200    230.69456     447.0931    124442.43   -39547.838    2870.2789   -42418.117    246.55451    1.0036246 
   63300    233.47921    222.01564    124338.54   -39601.437    2904.9253   -42506.362     247.2146    1.0044632 
   63400     232.8036    597.98779     124589.4   -39520.639    2896.5193   -42417.158    248.18437    1.0024407 
   63500    229.42399    339.68441    124430.55   -39620.219    2854.4707   -42474.689    248.30612    1.0037205 
   63600    233.60253    474.19351    124381.21   -39611.493    2906.4596   -42517.952    248.81306    1.0041186 
   63700    229.60123    304.01554    124436.69   -39622.137    2856.6758   -42478.813    249.57485    1.0036709 
   63800      225.967    559.20986    124427.05   -39726.403    2811.4591   -42537.862    249.99318    1.0037487 
   63900    226.70503    502.13528    124606.94   -39711.665    2820.6416   -42532.306     250.7816    1.0022996 
   64000     224.2379     347.3024     124734.9   -39690.304    2789.9458    -42480.25    251.00394    1.0012714 
   64100    227.81492    321.11153     124713.8   -39600.267    2834.4508   -42434.718    251.18654    1.0014408 
   64200    229.79567    422.99606    124593.75   -39587.244     2859.095   -42446.339    251.16744    1.0024058 
   64300    232.63777    602.39555    124670.16   -39482.263    2894.4562   -42376.719    252.05352    1.0017914 
   64400    232.45868    378.75373    124684.52   -39516.057    2892.2279   -42408.285    252.36689     1.001676 
   64500    235.10337    199.12784    124361.35   -39504.392    2925.1329   -42429.525    252.29339     1.004279 
   64600    228.74792    555.11241     124550.6   -39550.854     2846.059   -42396.913    253.06049     1.002753 
   64700    228.09102    434.09083    124483.44   -39571.018     2837.886   -42408.904    253.41639     1.003294 
   64800    231.56321     403.0019    124636.87   -39586.185    2881.0865   -42467.272    253.43313    1.0020589 
   64900    224.36646     482.5898    124540.87   -39565.122    2791.5454   -42356.667    253.75003    1.0028314 
   65000    232.89672    388.60331    124537.38   -39525.841     2897.678   -42423.519     253.9757    1.0028595 
   65100     232.1547    375.56356    124737.46   -39555.995    2888.4458    -42444.44    255.04138    1.0012509 
   65200    230.80433    301.11347    124629.55   -39547.351    2871.6447   -42418.996    255.05627    1.0021178 
   65300    229.62773    423.72733    124593.25   -39552.066    2857.0055   -42409.072    255.16603    1.0024098 
   65400    230.61692    420.51399    124365.87   -39473.606    2869.3129   -42342.918    255.47984    1.0042425 
   65500    231.44451    470.17222    124415.92    -39540.59    2879.6098     -42420.2    256.13049    1.0038385 
   65600     225.1919    514.49845    124478.67    -39574.49    2801.8153   -42376.306    256.58677    1.0033324 
   65700    234.08987    367.41494     124519.8   -39612.004    2912.5231   -42524.527    257.30237     1.003001 
   65800    228.81403    470.87249     124352.4    -39627.82    2846.8815   -42474.701    257.07575    1.0043513 
   65900    229.17983    558.12648     124488.1   -39596.166    2851.4328   -42447.598    257.69693    1.0032564 
   66000    229.15092    473.84756    124505.63   -39496.634    2851.0731   -42347.707    257.88537    1.0031152 
   66100    232.28558    478.16858    124848.98   -39442.566    2890.0742    -42332.64     258.8805    1.0003565 
   66200    238.68359    328.86866    124797.71   -39419.454    2969.6776   -42389.132    259.75973    1.0007675 
   66300    233.63472    471.98096    124686.31   -39471.823    2906.8601   -42378.683    259.79457    1.0016617 
   66400    232.23339    572.29456    124725.31   -39535.072    2889.4249   -42424.496    260.38819    1.0013484 
   66500    228.84426    627.81392    124797.34   -39555.249    2847.2577   -42402.507    260.65166    1.0007705 
   66600    231.12212    499.07585    124799.24   -39592.946    2875.5986   -42468.544    260.85027    1.0007552 
   66700    226.13266     603.1134    124938.23   -39624.889    2813.5202   -42438.409    261.70795   0.99964188 
   66800    231.12896     415.3415    124950.87   -39577.257    2875.6837    -42452.94    261.88514    0.9995408 
[...]
   84600    228.41726    588.60978    124980.36   -39762.344     2841.945   -42604.289    332.03248   0.99930493 
   84700    223.06994    582.62396    125117.74    -39796.04    2775.4141   -42571.454    332.45993   0.99820768 
   84800    228.63747    423.70805    124994.75    -39762.45    2844.6848   -42607.135     332.8331   0.99918988 
   84900    227.36395    413.26042    125206.95   -39756.268    2828.8398   -42585.108    333.48595    0.9974965 
   85000    231.00816    435.51973    125292.61    -39702.74    2874.1807    -42576.92     333.6322   0.99681453 
   85100    230.05879    362.14352    125461.86   -39710.039    2862.3687   -42572.408    334.36297    0.9954698 
   85200    232.91388     603.2876    125543.03   -39724.915    2897.8915   -42622.806    335.09977   0.99482614 
   85300    227.15504    499.05648    125508.87   -39755.737    2826.2405   -42581.977    335.69753   0.99509693 
   85400    230.01732    468.13414    125636.44   -39740.508    2861.8528   -42602.361     336.2204   0.99408654 
   85500    231.77521    594.70489    125687.06   -39701.659    2883.7242   -42585.383    336.51303   0.99368612 
   85600    228.70644    359.48098    125510.27   -39675.053    2845.5429   -42520.596    336.25361   0.99508585 
   85700    231.35627    560.23506    125453.54   -39722.922    2878.5118   -42601.434    336.62464   0.99553582 
   85800    229.67291    273.45201     125428.3    -39731.25    2857.5676   -42588.818    336.75894   0.99573616 
   85900    236.07458    491.08143    125349.46     -39624.1    2937.2166   -42561.317    336.92949   0.99636243 
   86000    230.81919    311.25134    125234.53   -39681.844    2871.8296   -42553.673    337.02171   0.99727683 
   86100    230.68426     466.7397    125527.08   -39657.708    2870.1508   -42527.859    337.80449   0.99495254 
   86200    229.18829    518.80678    125461.72   -39613.933    2851.5381   -42465.471    338.05841   0.99547094 
   86300    227.28975    399.76814    125377.35   -39659.154    2827.9167    -42487.07    338.37597   0.99614077 
   86400    230.24893    685.22215    125310.64   -39668.979    2864.7344   -42533.713     338.4832   0.99667108 
   86500    228.89111    505.13537    125465.51     -39636.4    2847.8405    -42484.24    339.04416   0.99544082 
   86600    235.13992    361.49749    125468.45   -39582.389    2925.5876   -42507.976    339.93792   0.99541747 
   86700    230.99547    512.91806    125496.93   -39581.971    2874.0229   -42455.994    340.62755   0.99519162 
   86800    231.66883    318.95102    125507.14    -39652.86    2882.4007   -42535.261    341.53863   0.99511067 
   86900    229.76513    334.15328     125414.9   -39637.024     2858.715   -42495.739    341.58778   0.99584257 
   87000    230.80123    468.50714    125207.87   -39633.464    2871.6061    -42505.07    341.43835   0.99748915 
   87100    226.91304    512.01777       125041   -39681.123    2823.2296   -42504.353     341.5581    0.9988203 
   87200     230.3005    236.75963    124960.75   -39655.524    2865.3761     -42520.9    342.05226   0.99946176 
   87300    227.51471    523.98932    124852.79   -39642.102    2830.7156   -42472.817    342.13968     1.000326 
   87400    232.14678    305.95451    124685.21   -39652.128    2888.3473   -42540.475    342.25428    1.0016704 
   87500    230.54339     577.5731    124626.18   -39652.459    2868.3981   -42520.857    343.08882    1.0021449 
   87600    228.86853     623.9728    124864.36   -39650.728    2847.5596   -42498.288    344.49413    1.0002333 
   87700    230.55293    221.90649    124645.22   -39652.857    2868.5167   -42521.374    344.83618    1.0019918 
   87800    232.59754    812.95038    124527.62   -39652.155    2893.9556    -42546.11      344.961    1.0029381 
   87900    228.37289    495.63468    124621.36   -39682.096    2841.3929   -42523.489    345.17847    1.0021837 
   88000    228.07906    389.12435    124519.79   -39690.479    2837.7372   -42528.216    345.60766    1.0030012 
   88100    230.02784    590.24374    124691.23   -39620.411    2861.9836   -42482.394    346.45625    1.0016221 
   88200    231.24078    289.93269    124739.63   -39599.644    2877.0749   -42476.719    346.30107    1.0012334 
   88300    228.39744    532.74362    124629.95   -39614.899    2841.6983   -42456.597    346.55684    1.0021146 
   88400    225.95366    453.59939    124380.18    -39706.62    2811.2932   -42517.913    346.60162    1.0041269 
   88500    231.54578    558.86726    124544.87   -39606.243    2880.8697   -42487.112    347.45561    1.0027992 
   88600      231.137    491.48262    124736.08   -39566.726    2875.7837    -42442.51    348.81091     1.001262 
   88700    231.02125    537.46398    124742.77   -39560.701    2874.3435   -42435.045    350.18567    1.0012083 
   88800    235.94726    310.71858    124501.73   -39498.479    2935.6325   -42434.112    350.65774    1.0031466 
   88900    232.71057    321.25429    124401.74   -39547.691    2895.3619   -42443.053    350.82505    1.0039529 
   89000    232.48442    433.64477    124355.39   -39534.953    2892.5481   -42427.502     351.3284    1.0043271 
   89100    229.82653    303.97139    124156.94   -39642.965     2859.479   -42502.444    351.43144    1.0059324 
   89200    227.53592    402.98123    123990.34   -39670.281    2830.9794    -42501.26    351.79595    1.0072841 
   89300    227.02088    300.32196    124180.19    -39684.15    2824.5714   -42508.721    352.21564    1.0057441 
   89400    225.56698     654.3376    124101.85   -39701.706    2806.4821   -42508.188    352.66869     1.006379 
   89500    223.73188    283.76242    124246.77   -39730.039      2783.65   -42513.689    353.23146    1.0052052 
   89600    220.54687    416.53744    124201.83   -39763.323    2744.0224   -42507.345    353.75095    1.0055689 
   89700    226.31754    492.23775    124201.35    -39711.43    2815.8204    -42527.25     353.5967    1.0055727 
   89800     227.3038    488.75258    124488.01   -39674.655    2828.0914   -42502.746    354.02298    1.0032572 
   89900    224.66159    429.41332    124663.65   -39738.087    2795.2173   -42533.304    354.81178    1.0018437 
   90000     227.8847    506.62766    124541.52   -39651.863     2835.319   -42487.182    354.87618    1.0028261 
   90100     235.8619    553.93901    124839.27   -39672.612    2934.5705   -42607.182     356.2414    1.0004343 
   90200    228.78703    517.43251    124890.34    -39715.21    2846.5456   -42561.756    357.10911    1.0000252 
   90300    226.20486    453.96019    124808.78    -39731.84    2814.4185   -42546.258    357.36824    1.0006787 
   90400    227.72646    446.61358    124804.77   -39729.064    2833.3501   -42562.414    357.76073    1.0007109 
   90500     226.4706    463.45767    124919.26   -39704.702    2817.7248   -42522.427     358.8268   0.99979374 
   90600    233.37579    377.10492    124759.97   -39630.371    2903.6385    -42534.01    358.91928    1.0010702 
   90700    232.66015    457.93145    124946.87   -39645.771    2894.7346   -42540.506    359.61159   0.99957277 
   90800    229.56048    631.52392    124919.62   -39675.028    2856.1688   -42531.197    359.60358   0.99979087 
   90900    227.25092    522.03927    125108.98   -39779.862    2827.4335   -42607.296    360.30998   0.99827763 
   91000    225.88184    506.67168    125067.72   -39790.724    2810.3996   -42601.124    360.53414   0.99860691 
   91100    230.29649     379.0607     125065.1   -39786.057    2865.3261   -42651.383    360.97089   0.99862788 
   91200    227.62954    414.86254    125278.26   -39753.656    2832.1443     -42585.8    361.71265   0.99692871 
   91300    232.41301    464.59577    125137.77   -39667.231    2891.6597   -42558.891    361.92086   0.99804793 
   91400     233.2322    367.31735    125278.95   -39651.838     2901.852    -42553.69    362.70844   0.99692318 
   91500    234.50626      300.879     125250.4   -39655.811    2917.7037   -42573.515    363.09697   0.99715043 
   91600    226.44915    549.11626    125197.31   -39689.032    2817.4579    -42506.49    363.38724   0.99757331 
   91700    231.67583    306.13701    125274.22   -39757.986    2882.4877   -42640.474     363.6954    0.9969608 
   91800     229.5112    479.12549    125253.04   -39713.618    2855.5556   -42569.174    364.44649    0.9971294 
   91900    228.87936    386.79068    125312.91   -39704.193    2847.6944   -42551.888    365.51485   0.99665307 
   92000    229.34288    443.06534    125303.63   -39705.096    2853.4614   -42558.558    366.15869   0.99672682 
   92100    229.55218    576.08753    125253.35   -39758.691    2856.0655   -42614.757    366.43546   0.99712695 
   92200    229.45383    418.25415    125262.16   -39690.399    2854.8419   -42545.241    367.29004   0.99705685 
   92300     231.5709    360.95416    125095.86   -39617.078    2881.1822    -42498.26    366.99879   0.99838232 
   92400     236.8868     305.8893    124964.07   -39612.064    2947.3222   -42559.386    366.65057   0.99943519 
   92500    232.88582    381.67124    124729.68   -39666.329    2897.5423   -42563.871    366.13265    1.0013134 
   92600    229.88148    554.56557     124833.1   -39630.251    2860.1627   -42490.414    366.81732    1.0004838 
   92700    232.87646    359.07732    124812.44   -39614.074    2897.4258     -42511.5    367.16433    1.0006494 
   92800    232.39028    500.66067    124811.49   -39658.955    2891.3769   -42550.332     367.1275     1.000657 
   92900    230.78827    258.55319    124831.96   -39638.115    2871.4448    -42509.56     367.4223    1.0004929 
   93000    230.06835    601.46555     124722.7   -39665.279    2862.4877   -42527.766    367.53826    1.0013694 
   93100    235.45192    461.69925    124769.31   -39601.731    2929.4695     -42531.2    368.13828    1.0009953 
   93200    231.58553    404.07829    124737.37   -39607.213    2881.3642   -42488.577     368.6662    1.0012516 
   93300    229.87699    524.29374    124771.71   -39631.322    2860.1067   -42491.429     369.7168    1.0009761 
   93400    226.42376    517.74253    124737.71    -39650.25     2817.142   -42467.392    369.78464    1.0012489 
   93500    226.87117    583.90507    124736.29   -39686.126    2822.7087   -42508.835    369.34839    1.0012603 
   93600    226.04114    341.86491     124545.8    -39751.37    2812.3815   -42563.751    369.34905    1.0027917 
   93700    226.38605     495.4126    124622.46   -39716.465    2816.6729   -42533.138    370.13437    1.0021748 
   93800    228.55616    452.70229    124780.45   -39671.523    2843.6731   -42515.197    370.10648    1.0009059 
   93900    229.41012     422.0079    124875.31   -39645.957    2854.2981   -42500.255    370.86293    1.0001456 
   94000    228.44748    242.57026    124654.78    -39664.86    2842.3209   -42507.181    370.84569     1.001915 
   94100     228.2469    569.24499     124623.1   -39658.399    2839.8253   -42498.224    371.10202    1.0021697 
   94200    230.15203    401.26666     124706.7   -39642.148    2863.5288   -42505.677    371.30362    1.0014979 
   94300    228.18056    630.90569    124621.49   -39579.315         2839   -42418.315     371.8532    1.0021826 
   94400    231.43063    480.12974     124825.3   -39556.126     2879.437   -42435.563    372.28434    1.0005463 
   94500    233.95561    440.40423    124718.12   -39496.433    2910.8526   -42407.285    372.81811    1.0014062 
   94600    231.68931    251.15863    124649.17   -39560.033    2882.6555   -42442.689    372.62772    1.0019601 
   94700    229.94516    252.27373    124411.62   -39586.317    2860.9549   -42447.272    372.63307    1.0038732 
   94800    227.93542    489.83261    124680.52   -39577.859      2835.95   -42413.809    373.76123    1.0017081 
   94900    234.63673    453.96029    124620.85   -39554.008     2919.327   -42473.335    374.05052    1.0021877 
   95000    231.13754    524.84672    124626.62   -39541.744    2875.7905   -42417.535    374.88263    1.0021414 
   95100    229.78024    458.99749     124559.6   -39536.914     2858.903   -42395.817    375.19311    1.0026806 
   95200    229.58799    479.60093    124474.43    -39568.39    2856.5111   -42424.901     375.8648    1.0033666 
   95300    232.78361    484.66167     124639.5   -39480.766    2896.2706   -42377.036     376.6038    1.0020378 
   95400    230.92995     448.5118    124755.08   -39546.934    2873.2076   -42420.141    377.77422    1.0011094 
   95500    231.68705    526.20728    124901.57   -39562.671    2882.6274   -42445.298     378.4616   0.99993529 
   95600     229.5596     252.9172    125000.27   -39546.776    2856.1578   -42402.934    379.37521   0.99914578 
   95700    228.85027    493.09115    125109.35   -39605.555    2847.3325   -42452.888    379.32529   0.99827463 
   95800    229.12114    449.67556    124990.31   -39669.395    2850.7026   -42520.097    379.25709   0.99922537 
   95900    232.07111    282.58127     124956.1   -39621.852    2887.4058   -42509.258    379.51678   0.99949894 
   96000    225.78929     361.2427    124836.95   -39699.665    2809.2481   -42508.913    379.46115    1.0004529 
   96100     231.6273    445.05768    125056.34   -39643.594     2881.884   -42525.478    380.17439   0.99869782 
   96200    225.93361    276.88726    125293.93   -39685.087    2811.0437   -42496.131     380.9598   0.99680403 
   96300    230.46128    386.04495    125356.09   -39645.888    2867.3765   -42513.265    381.06344   0.99630969 
   96400    228.75301    399.35891    124987.84   -39637.073    2846.1224   -42483.195    381.19073   0.99924514 
   96500    229.75738    509.37285    125019.86   -39689.677    2858.6186   -42548.295    380.82671   0.99898925 
   96600    232.04291    322.56919    125280.25   -39688.803    2887.0549   -42575.858    382.18035   0.99691282 
   96700    225.66264     550.7008    125296.76   -39777.258    2807.6722    -42584.93    382.39213   0.99678149 
   96800    225.98719    506.45286    125204.55   -39838.206    2811.7102   -42649.916    382.54962    0.9975156 
   96900     225.0619    656.41179    125289.21   -39758.014    2800.1979   -42558.212    382.96079   0.99684157 
   97000    228.56457    485.10388    125428.33   -39752.167    2843.7777   -42595.944    383.48475   0.99573587 
   97100    225.76073    388.72519    125258.04    -39741.42    2808.8927   -42550.313    383.40078   0.99708963 
   97200    226.60558     406.1734    125063.33   -39733.314    2819.4042   -42552.718    383.22764   0.99864197 
   97300    223.43459     397.3206    124861.85     -39731.3    2779.9511   -42511.251    382.95247    1.0002534 
   97400    227.79116    592.14666    124980.24   -39735.314    2834.1551   -42569.469    383.62005   0.99930586 
   97500    231.44529    539.30339    125183.11   -39627.365    2879.6194   -42506.984    384.56285   0.99768645 
   97600    229.02684     304.3361    124849.61    -39685.71    2849.5293   -42535.239    383.94934    1.0003515 
   97700    232.70848     415.4541    124832.55   -39615.445    2895.3359   -42510.781    384.07854    1.0004882 
   97800    230.14797    359.49621    124915.87   -39594.229    2863.4783   -42457.707    384.73422   0.99982086 
   97900    233.93901    590.41774    124854.05   -39556.488     2910.646   -42467.134    385.04848    1.0003159 
   98000    227.15126    457.72034    124779.81   -39570.574    2826.1935   -42396.767    385.48944     1.000911 
   98100    229.59611    296.47185    124543.44   -39633.252     2856.612   -42489.864    384.30964    1.0028106 
   98200    230.12308    338.63627    124807.54   -39612.386    2863.1686   -42475.554    385.35143    1.0006887 
   98300    231.26786    661.63982    124920.25   -39641.922    2877.4119   -42519.334    385.57092   0.99978582 
   98400    224.82117    533.16952    124844.09   -39646.045    2797.2027   -42443.247    386.18395    1.0003957 
   98500    228.16535    283.39468       125012   -39646.414    2838.8108   -42485.224    387.14698   0.99905201 
   98600    228.48396    339.78834    124952.93   -39674.606    2842.7748   -42517.381    387.11971   0.99952434 
   98700    227.85437    385.75826    124737.19   -39717.316    2834.9415   -42552.257    386.06655     1.001253 
   98800    226.24595    220.29258    124772.09   -39686.885    2814.9298   -42501.815    387.43516     1.000973 
   98900    226.95448    299.92286    124847.75   -39689.881    2823.7451   -42513.626     387.2729    1.0003664 
   99000    223.73666    336.65079    124547.44   -39732.568    2783.7094   -42516.277    386.38963    1.0027785 
   99100    229.25457    343.33659    124432.39   -39632.894    2852.3627   -42485.257    386.68509    1.0037056 
   99200    230.36637    396.90785    124496.65   -39614.468    2866.1956   -42480.663    387.15159    1.0031876 
   99300    232.98846    596.67675    124703.43   -39565.058    2898.8194   -42463.878    388.09137    1.0015241 
   99400    227.30224    468.20351    124493.74   -39524.029     2828.072   -42352.101    388.28971     1.003211 
   99500    236.14736    621.01321     124677.8   -39399.047    2938.1221   -42337.169    389.13624      1.00173 
   99600    230.23384    356.54919    124473.09   -39429.842    2864.5467   -42294.389    389.03899    1.0033774 
   99700    231.82056    420.96877    124524.23   -39420.913    2884.2885   -42305.201    389.75323    1.0029654 
   99800    229.46578    576.55654    124400.13   -39419.551    2854.9905   -42274.542     389.8486    1.0039659 
   99900    230.83179    538.91917    124214.76   -39475.559    2871.9863   -42347.545    390.01085    1.0054641 
  100000     230.3307    677.03842    124185.78   -39479.773    2865.7518   -42345.525    390.37724    1.0056988 
  100100    235.08863    362.44044       124704   -39421.016    2924.9494   -42345.966     391.8334    1.0015195 
  100200    236.58155    455.73927    124599.17       -39434    2943.5243   -42377.524    392.41661    1.0023621 
  100300    234.26506    422.66356    124607.25   -39432.479    2914.7027   -42347.181    392.67094    1.0022972 
  100400     235.2807    617.38565    124657.37   -39482.564    2927.3392   -42409.903    393.25026    1.0018942 
  100500    235.47099    580.15798    124583.58   -39417.398    2929.7068   -42347.105    393.40672    1.0024876 
  100600    232.58807    553.39536    124741.39   -39505.175    2893.8378   -42399.012    393.55166    1.0012194 
  100630    234.95861    434.39017    124780.91   -39490.618    2923.3318    -42413.95    393.74678    1.0009022 
Loop time of 104.735 on 6 procs for 100000 steps with 4175 atoms

Performance: 412.471 ns/day, 0.058 hours/ns, 954.795 timesteps/s
98.8% CPU use with 6 MPI tasks x no OpenMP threads

MPI task timing breakdown:
Section |  min time  |  avg time  |  max time  |%varavg| %total
---------------------------------------------------------------
Pair    | 85.548     | 87.258     | 89.082     |  12.1 | 83.31
Neigh   | 5.3694     | 5.3944     | 5.4388     |   1.0 |  5.15
Comm    | 7.4892     | 9.3892     | 11.124     |  37.7 |  8.96
Output  | 0.16563    | 0.16674    | 0.17188    |   0.6 |  0.16
Modify  | 1.8392     | 1.8696     | 1.9115     |   1.8 |  1.79
Other   |            | 0.6569     |            |       |  0.63

Nlocal:        695.833 ave         707 max         686 min
Histogram: 3 0 0 0 0 0 0 1 0 2
Nghost:        1513.17 ave        1527 max        1500 min
Histogram: 1 1 0 0 1 0 1 1 0 1
Neighs:        0.00000 ave           0 max           0 min
Histogram: 6 0 0 0 0 0 0 0 0 0
FullNghs:      20142.3 ave       20600 max       19759 min
Histogram: 2 1 0 0 0 0 0 1 1 1

Total # of neighbors = 120854
Ave neighs/atom = 28.947066
Neighbor list builds = 5844
Dangerous builds = 0

undump              1
unfix               2
unfix               3
unfix               4


################################################
#######         Run Simulation         #########
################################################

reset_timestep      0
log                 log.run_${NAME}
log                 log.run_liquid_density_MLmW
