
# Create simulation box of size 50 x 50 x 50 Angstrom
#
lattice	            sc 1
Lattice spacing in x,y,z = 1 1 1
region 	            all block 0 50 0 50 0 50 units box
create_box          1 all
Created orthogonal box = (0 0 0) to (50 50 50)
  2 by 2 by 3 MPI processor grid

# fill box with 4175 randomly distributed atoms
#
create_atoms        1 random 4175 63782 all
Created 4175 atoms
  create_atoms CPU = 0.000415325 secs
mass                1 18.015

# Define potential
#
pair_style          sw
pair_coeff          * * ML_mW.sw mW
Reading potential file ML_mW.sw with DATE: 2019-02-27

# Run minimization
#
minimize            1.0e-8 1.0e-8 10000 1000
WARNING: Using 'neigh_modify every 1 delay 0 check yes' setting during minimization (../min.cpp:168)
Neighbor list info ...
  update every 1 steps, delay 0 steps, check yes
  max neighbors/atom: 2000, page size: 100000
  master list distance cutoff = 6.00329
  ghost atom cutoff = 6.00329
  binsize = 3.00165, bins = 17 17 17
  1 neighbor lists, perpetual/occasional/extra = 1 0 0
  (1) pair sw, perpetual
      attributes: full, newton on
      pair build: full/bin/atomonly
      stencil: full/bin/3d
      bin: standard
Per MPI rank memory allocation (min/avg/max) = 4.218 | 4.221 | 4.224 Mbytes
Step Temp E_pair E_mol TotEng Press 
       0            0    7753562.7            0    7753562.7    5856924.8 
     599            0   -42747.864            0   -42747.864   -3700.8233 
Loop time of 1.42327 on 12 procs for 599 steps with 4175 atoms

99.7% CPU use with 12 MPI tasks x no OpenMP threads

Minimization stats:
  Stopping criterion = max force evaluations
  Energy initial, next-to-last, final = 
          7753562.6792      -42747.856824     -42747.8635156
  Force two-norm initial, final = 2.01925e+08 0.472155
  Force max component initial, final = 1.09491e+08 0.0926078
  Final line search alpha, max atom move = 0.287984 0.0266696
  Iterations, force evaluations = 599 1001

MPI task timing breakdown:
Section |  min time  |  avg time  |  max time  |%varavg| %total
---------------------------------------------------------------
Pair    | 1.1115     | 1.2379     | 1.3696     |   6.9 | 86.98
Neigh   | 0.0086167  | 0.0090022  | 0.009614   |   0.3 |  0.63
Comm    | 0.023956   | 0.15566    | 0.28242    |  19.4 | 10.94
Output  | 0          | 0          | 0          |   0.0 |  0.00
Modify  | 0          | 0          | 0          |   0.0 |  0.00
Other   |            | 0.02072    |            |       |  1.46

Nlocal:    347.917 ave 361 max 335 min
Histogram: 1 2 1 1 0 1 2 2 1 1
Nghost:    950.167 ave 983 max 907 min
Histogram: 1 1 0 0 2 2 2 2 1 1
Neighs:    0 ave 0 max 0 min
Histogram: 12 0 0 0 0 0 0 0 0 0
FullNghs:  10283.3 ave 10915 max 9431 min
Histogram: 1 0 2 1 1 1 1 1 2 2

Total # of neighbors = 123400
Ave neighs/atom = 29.5569
Neighbor list builds = 16
Dangerous builds = 0

# Add velocity/set timestep
#
velocity            all create ${TEMP} 120598 rot yes dist gaussian
velocity            all create 289 120598 rot yes dist gaussian
timestep            5.0

# Define output
#
compute	            1 all msd
thermo	            50
thermo_style        custom step temp press vol etotal ke pe c_1[4] density

# Neighbor lists
#
neigh_modify        delay 0 every 1 check yes

# Set fixes
#
fix                 1 all momentum 10 linear 1 1 1 rescale
fix                 2 all nve
fix                 3 all temp/csvr ${TEMP} ${TEMP} 500.0 928347
fix                 3 all temp/csvr 289 ${TEMP} 500.0 928347
fix                 3 all temp/csvr 289 289 500.0 928347
fix                 4 all press/berendsen iso ${PRES} ${PRES} 1000.0 modulus 20000
fix                 4 all press/berendsen iso 1 ${PRES} 1000.0 modulus 20000
fix                 4 all press/berendsen iso 1 1 1000.0 modulus 20000

# Run 1 ns equilibration
#
dump                1 all custom 1000 eq.${NAME}.dump id type x y z vx vy vz
dump                1 all custom 1000 eq.liquid_289K_1atm_ML.dump id type x y z vx vy vz
run                 200000
Per MPI rank memory allocation (min/avg/max) = 3.468 | 3.471 | 3.474 Mbytes
Step Temp Press Volume TotEng KinEng PotEng c_1[4] Density 
     599          289   -2385.8788       125000   -39152.154    3595.7094   -42747.864            0   0.99914793 
     600    283.87574   -2253.8539    124929.58   -39146.635    3531.9539   -42678.589 0.0010228325   0.99971116 
     650    170.67651   -954.14347    123527.83    -38359.17    2123.5403    -40482.71   0.30356349    1.0110555 
     700    201.47608   -366.27698    122458.08   -37694.211    2506.7455   -40200.957   0.70433783    1.0198877 
     750    217.92431    26.043714    121696.92   -37252.604    2711.3927   -39963.996    1.1684677    1.0262667 
     800    233.92349   -251.59781    121319.36   -36874.354    2910.4529   -39784.807    1.6630292    1.0294605 
     850    245.16894   -381.30022    121255.83   -36589.316    3050.3677   -39639.683    2.1784044    1.0299998 
     900    256.38294    133.27874    120882.68   -36332.085    3189.8912   -39521.977    2.7739299    1.0331794 
     950    261.36153   -62.155302    120815.85   -36106.072    3251.8343   -39357.906    3.4306098    1.0337508 
    1000    268.28082   -411.11767    120765.86    -35999.03    3337.9234   -39336.953    4.0413135    1.0341788 
    1050     274.0703   -156.28367    120691.17   -35861.341    3409.9556   -39271.297    4.7213112    1.0348188 
    1100    269.14812    352.87105    120903.92   -35784.188    3348.7143   -39132.902    5.3553821    1.0329978 
    1150    271.71372   -78.069251    120953.63    -35812.89    3380.6352   -39193.525     5.950494    1.0325733 
    1200    277.99096   -590.13245    120633.15   -35778.711    3458.7361   -39237.447    6.5885825    1.0353165 
    1250    273.64684    53.354639    120779.28   -35681.432    3404.6869   -39086.118    7.1875064    1.0340639 
    1300    274.14972    125.55291    120872.98   -35623.539    3410.9437   -39034.482    7.9325332    1.0332622 
    1350    273.97071    86.911124    121036.24   -35607.769    3408.7165   -39016.485    8.5531696    1.0318686 
    1400    279.13362    50.159416     121123.1   -35598.015    3472.9529   -39070.968    9.1191698    1.0311286 
    1450    280.80762    50.716386    120958.28   -35513.696    3493.7806   -39007.476    9.7787965    1.0325336 
    1500    281.50117   -56.601274     121100.4   -35442.449    3502.4097   -38944.859    10.457957    1.0313219 
    1550    290.75275    123.78735    121064.76   -35340.619     3617.517   -38958.136     11.14487    1.0316255 
    1600    286.86646   -19.075264    121444.32   -35302.358    3569.1641   -38871.522    11.913603    1.0284012 
    1650    287.17872    347.82179    121720.79   -35256.242    3573.0492   -38829.292    12.572544    1.0260654 
    1700    290.31934    102.15652    122074.94   -35302.174    3612.1246   -38914.299    13.295086    1.0230887 
    1750    281.44455    22.540659    122280.36   -35363.807    3501.7053   -38865.512    14.151353      1.02137 
    1800    283.81976   -175.29769    122229.51   -35372.961    3531.2574   -38904.218    14.766453    1.0217949 
    1850    281.68539   -246.60837    122280.04   -35341.369    3504.7017    -38846.07    15.452426    1.0213727 
    1900    283.67684    298.69685    122205.04   -35280.817    3529.4792   -38810.297     16.11351    1.0219995 
    1950    284.73858   -80.791175    122286.41   -35283.879    3542.6893   -38826.568    16.855335    1.0213195 
    2000    295.70284    186.74398    122378.36   -35152.032    3679.1055   -38831.138    17.566298    1.0205521 
    2050    290.27603   -155.24234     122475.4   -35130.313    3611.5856   -38741.898    18.286294    1.0197435 
    2100    287.49482     40.24823    122598.66   -35136.536    3576.9821   -38713.518    19.078663    1.0187183 
    2150    290.78417   -45.330973    122623.82   -35128.533    3617.9079   -38746.441    19.789335    1.0185092 
    2200     292.3862   -443.05233    122642.59   -35112.088    3637.8402   -38749.928     20.45601    1.0183533 
    2250    287.66463    132.99512    122500.22   -35131.641    3579.0949   -38710.736     21.27641    1.0195369 
    2300    290.88345     383.6711    122522.35   -35133.368    3619.1431   -38752.511    21.909078    1.0193527 
    2350     290.2012    128.40435    122666.61     -35091.4    3610.6546   -38702.055    22.785521    1.0181539 
    2400    291.76412   -46.535437    122571.02    -35118.78    3630.1003    -38748.88    23.442135     1.018948 
    2450    293.36372    -139.4048    122604.36   -35051.253    3650.0025   -38701.255    24.240633    1.0186709 
    2500    292.56036    103.35455    122670.18   -34988.649    3640.0071   -38628.656    25.011903    1.0181243 
    2550    298.47784    137.23942     122939.1   -34977.689    3713.6318    -38691.32    25.827221    1.0158972 
    2600    297.74321    24.983524    123059.37   -34946.042    3704.4916   -38650.533    26.564534    1.0149044 
    2650    294.63261   -28.876827     123028.6    -34977.39    3665.7897    -38643.18    27.402689    1.0151582 
    2700    292.21588    178.82733    123315.47   -34954.867    3635.7211   -38590.588    28.257885    1.0127966 
    2750    294.92319   -204.60246    123436.84   -34965.519    3669.4052   -38634.924    29.140936    1.0118008 
    2800    293.66867   -149.37159    123329.85   -34948.892    3653.7966   -38602.688    29.936264    1.0126786 
    2850    293.86473    82.903195    123442.08   -34987.116    3656.2359   -38643.352    30.693489    1.0117578 
    2900    287.61782   -251.59574    123427.37   -35030.041    3578.5124   -38608.553    31.367216    1.0118784 
    2950    288.70032   -321.33356     123255.2   -35055.526    3591.9808   -38647.507    32.141286    1.0132918 
    3000    289.52521   -247.03911       123185   -35015.459     3602.244   -38617.703    32.942725    1.0138693 
    3050    293.48247    232.79176    123087.83   -34973.868    3651.4799   -38625.348    33.761771    1.0146697 
    3100    298.30907   -101.63954    123118.14   -35008.395     3711.532   -38719.927    34.586116    1.0144199 
    3150    284.19573   -8.4944292    123082.64   -35064.424    3535.9352   -38600.359    35.446564    1.0147125 
    3200    290.20279   -333.19816    122987.76   -35074.688    3610.6744   -38685.363    36.406987    1.0154953 
    3250    288.21619   -151.04082    122750.53    -35075.37    3585.9574   -38661.327    37.335621    1.0174579 
    3300    292.41933    613.78243    122806.33   -35050.976    3638.2524   -38689.228    38.195201    1.0169955 
    3350    289.27532   -14.944601    123004.74   -35092.932    3599.1349   -38692.067    39.073905    1.0153551 
    3400     296.5666   -63.222473    123056.18    -35065.06    3689.8524   -38754.913    39.680964    1.0149307 
    3450    286.64745   -291.92227    122832.21   -35160.044    3566.4392   -38726.483    40.361234    1.0167813 
    3500    284.98094   -14.442377    122688.74   -35162.418    3545.7047   -38708.123    40.996426    1.0179703 
    3550    286.93261   -155.20558    122881.18   -35153.577    3569.9872   -38723.564    41.657165    1.0163761 
    3600    288.36029   -24.175294       123040   -35191.548    3587.7502   -38779.299    42.190975    1.0150641 
    3650      280.326   -230.98079     122956.3   -35198.275    3487.7884   -38686.063    42.829786    1.0157551 
    3700    288.00478    -330.2011    122822.44   -35187.559     3583.327   -38770.886    43.487274    1.0168622 
    3750    281.82062    199.13928    122944.34    -35180.03    3506.3843   -38686.414    44.049627     1.015854 
    3800    281.64539   -8.9021884    122908.47   -35189.536    3504.2041    -38693.74     44.58022    1.0161504 
    3850    290.94211   -201.86553    122885.14   -35181.576     3619.873   -38801.449    45.132963    1.0163433 
    3900    286.36757   -2.3885406    122769.18    -35158.95     3562.957   -38721.907    45.955804    1.0173033 
    3950    281.77524   -12.028575    122692.39   -35167.182    3505.8197   -38673.002    46.853324      1.01794 
    4000    290.03146    13.811246    122651.75   -35161.621    3608.5427   -38770.164    47.544217    1.0182772 
    4050    286.06813    123.37148    122853.61   -35173.575    3559.2314   -38732.806    48.089525    1.0166041 
    4100    286.08504   -288.79457    122783.25   -35099.125    3559.4418   -38658.567    48.659453    1.0171867 
    4150     285.7225    -176.4071     122640.4   -35141.212    3554.9311   -38696.143    49.119043    1.0183715 
    4200    292.82556    531.05053    122697.88   -35103.635    3643.3067   -38746.942    49.751642    1.0178944 
    4250    287.15884   -117.60137    122563.29   -35173.791    3572.8019   -38746.593    50.421503    1.0190122 
    4300    288.55595     296.4847     122705.9   -35129.259    3590.1846   -38719.444    51.311316    1.0178279 
    4350    282.70259    203.49731    122629.83   -35170.222    3517.3577    -38687.58    51.991264    1.0184593 
    4400    285.35184    310.00725    122486.04    -35145.14    3550.3194   -38695.459    52.700334    1.0196549 
    4450    288.23456    36.904771     122551.6   -35107.532    3586.1859   -38693.718    53.387844    1.0191095 
    4500    291.35893    207.17467    122709.22   -35176.648     3625.059   -38801.707    54.009658    1.0178004 
    4550    287.79126    124.26697    122936.19   -35183.696    3580.6704   -38764.366    54.779851    1.0159212 
    4600    284.15275   -235.51994    123018.44   -35199.983    3535.4004   -38735.384     55.56374     1.015242 
    4650    287.83905   -248.81232    122785.89   -35165.451     3581.265   -38746.716    56.190801    1.0171649 
    4700    289.73631    143.60951    122723.52   -35132.807    3604.8705   -38737.677     56.97157    1.0176818 
    4750    289.52307    34.077754     122731.2   -35182.584    3602.2174   -38784.801    57.816163    1.0176181 
    4800    291.27274    333.54427    123100.85   -35078.431    3623.9867   -38702.417    58.569112    1.0145624 
    4850    294.06169    -111.4054     123183.7   -34990.443    3658.6865   -38649.129    59.449596      1.01388 
    4900    289.86004   -56.552342    123330.38   -34947.926    3606.4099   -38554.336    60.364541    1.0126742 
    4950    296.01957   -39.941415    123383.96   -34913.114    3683.0463    -38596.16    61.184687    1.0122344 
    5000    295.35561   -220.22236    123366.39    -34945.68    3674.7853   -38620.466    61.863889    1.0123786 
    5050    292.86003   -198.25382    123440.98   -35013.091    3643.7355   -38656.826    62.519052    1.0117669 
    5100    292.95297    116.56207    123214.01   -35034.275    3644.8919   -38679.167    63.246851    1.0136306 
    5150    286.23931   -159.77723    123260.12   -35104.408    3561.3612   -38665.769     64.07457    1.0132514 
    5200    289.57551    60.683077    123294.23   -35092.128    3602.8699   -38694.998    64.908298    1.0129711 
    5250    289.65948   -4.5863731    123272.84   -35028.083    3603.9146   -38631.998    65.683216    1.0131468 
    5300    281.28562    220.21319    123359.09   -35123.941    3499.7279   -38623.669    66.265474    1.0124385 
    5350    289.52265   -409.25123    123274.28   -35032.548    3602.2122    -38634.76    67.090086    1.0131351 
    5400    288.81493   -3.0495152    122998.44   -35047.568    3593.4068   -38640.975    67.663522    1.0154072 
    5450    290.77923    234.23788    122982.55   -35090.227    3617.8464   -38708.073    68.383237    1.0155383 
    5500    291.41925   -203.47508    123014.23    -35087.71    3625.8095    -38713.52    69.118235    1.0152768 
    5550    285.95059   -20.093615    122833.55    -35129.46     3557.769   -38687.229    69.986183    1.0167702 
    5600    282.92271   -205.02518     122735.1   -35142.679    3520.0964   -38662.775    70.612305    1.0175857 
    5650    293.20148   -276.18776    122493.36   -35136.155    3647.9839   -38784.139    71.409757     1.019594 
    5700    285.78358   -219.00235    122390.65   -35185.138     3555.691   -38740.829    72.234943    1.0204496 
    5750    290.80129   -1.6932059    122406.35   -35135.527    3618.1209   -38753.647    73.276207    1.0203187 
    5800    288.41828    152.28354    122378.13   -35140.119    3588.4718   -38728.591    74.268887     1.020554 
    5850    282.07486    55.932184    122456.37    -35225.04    3509.5475   -38734.587    75.144888    1.0199019 
    5900    286.61906    -356.3348    122071.84   -35240.189    3566.0861   -38806.275    75.832323    1.0231147 
    5950    280.19922     113.1015     122060.2   -35263.257     3486.211   -38749.468    76.817938    1.0232123 
    6000    285.57475   -25.156593    122254.47   -35174.489    3553.0928   -38727.581    77.777219    1.0215863 
    6050    286.00199    219.48214    122183.94   -35197.329    3558.4085   -38755.738    78.672144     1.022176 
    6100    284.96719    165.51103    122265.01   -35228.044    3545.5336   -38773.577    79.768035    1.0214982 
    6150    283.66221    113.70883    122561.99   -35225.863    3529.2972   -38755.161    80.760857     1.019023 
    6200    284.16839    137.84412    122480.44   -35252.941     3535.595   -38788.536    81.163743    1.0197016 
    6250    287.01532   -17.330381     122617.6   -35209.452    3571.0162   -38780.468    82.220499    1.0185609 
    6300    289.18202    24.985584    122687.05   -35165.919    3597.9742   -38763.893    83.261188    1.0179843 
    6350    286.92514    4.7320822    122725.56    -35149.26    3569.8942   -38719.154    83.961791    1.0176649 
    6400    287.35174    94.577821    122630.82   -35083.746    3575.2019   -38658.948     84.69906    1.0184511 
    6450    293.26789    713.88859    122656.85   -35066.823    3648.8101   -38715.633    85.340267    1.0182349 
    6500    289.89806   -83.721374    122964.83   -35083.954     3606.883   -38690.837    86.391964    1.0156847 
    6550    290.79513   -80.520997    122984.98   -35100.566    3618.0443   -38718.611    87.078993    1.0155182 
    6600    281.16441    354.20697    123065.19   -35213.214    3498.2198   -38711.433    87.769558    1.0148564 
    6650    285.82023   -213.35849    122797.59    -35170.66    3556.1471   -38726.807    88.620398    1.0170679 
    6700    285.78185    303.71424     122816.5   -35186.643    3555.6696   -38742.312    89.216646    1.0169113 
    6750    290.57787     168.3295    122957.74   -35126.897    3615.3411   -38742.238     89.99291    1.0157432 
    6800    283.96349    14.532746    123359.79   -35150.999    3533.0457   -38684.045    90.742038    1.0124327 
    6850    289.82005   -322.05962    123488.72   -35085.258    3605.9125   -38691.171    91.575158    1.0113757 
    6900    286.40965    272.52699    123679.41   -35027.745    3563.4806   -38591.226    92.323911    1.0098163 
    6950    291.95052   -505.33985    123343.36   -35047.009    3632.4196   -38679.429    92.682982    1.0125676 
    7000    292.19879   -4.3675001    123420.98   -35009.754    3635.5085   -38645.262    93.201464    1.0119308 
    7050    285.17024    16.759206    123666.88   -35061.908    3548.0599   -38609.968    94.136847    1.0099186 
    7100    294.56515   -380.00771       123291   -35058.041    3664.9505   -38722.991    94.646151    1.0129977 
    7150    280.33562  -0.37281443    123394.61   -35054.693    3487.9081   -38542.601     95.32664     1.012147 
    7200    285.54422   -98.469743    123066.42   -35140.507    3552.7129    -38693.22    95.889173    1.0148462 
    7250    283.56084   -70.096321    122908.61   -35166.311    3528.0359   -38694.346    96.316427    1.0161493 
    7300     283.8876   -288.96967    122683.95   -35213.174    3532.1014   -38745.276    97.029163      1.01801 
    7350    284.97538    6.6639797    122593.09   -35199.457    3545.6355   -38745.093    97.585776    1.0187645 
    7400    286.53407   -67.994574    122563.69    -35146.72    3565.0286   -38711.748    97.991735    1.0190089 
    7450    282.78079   -74.145388    122559.41   -35167.763    3518.3307   -38686.094    98.683384    1.0190445 
    7500     288.1656    190.10324     122526.6   -35216.469     3585.328   -38801.797    99.221793    1.0193174 
    7550    287.84159    237.86642    122607.52   -35268.827    3581.2966   -38850.124     99.94322    1.0186446 
    7600    280.48819    460.16177    122601.17   -35255.213    3489.8064   -38745.019    100.47547    1.0186974 
    7650    286.73281    457.33014    122637.79   -35184.114    3567.5013   -38751.615     101.3433    1.0183932 
    7700    292.54829   -307.62255    122908.68   -35100.352     3639.857   -38740.209    102.21698    1.0161486 
    7750    284.26785    308.72748    123009.09   -35122.879    3536.8325   -38659.712    103.11935    1.0153192 
    7800    290.50494   -157.99742    123133.72   -35102.657    3614.4337   -38717.091    103.84559    1.0142915 
    7850    290.68858   -3.4953387    123014.58    -35187.93    3616.7185   -38804.648    104.49781    1.0152739 
    7900    281.70177    191.61201    123104.58   -35217.551    3504.9056   -38722.457    105.10798    1.0145316 
    7950    282.73845   -621.66009    123116.42   -35197.783    3517.8039   -38715.587    105.93689     1.014434 
    8000    285.26196    409.56109    123024.06   -35210.031    3549.2011   -38759.232    106.87905    1.0151956 
    8050    281.16566   -217.91834    123316.98   -35257.829    3498.2353   -38756.065    107.77358    1.0127842 
    8100    285.79157    77.853624    123311.73   -35248.189    3555.7905   -38803.979    108.82816    1.0128274 
    8150    280.48238    121.35932    123268.09   -35254.542     3489.734   -38744.276    109.74558    1.0131859 
    8200    285.75214    187.85022    123292.27   -35264.385    3555.2998   -38819.685    110.67544    1.0129872 
    8250     278.9118    55.467742    123355.26   -35250.494    3470.1931   -38720.687    111.45305      1.01247 
    8300     284.8758   -126.45703    123136.72   -35160.794    3544.3965    -38705.19    112.09255    1.0142668 
    8350    287.51317    15.969812    123097.77   -35176.335    3577.2104   -38753.546    112.63872    1.0145877 
    8400    282.81233    89.615699    123191.11   -35094.851    3518.7231   -38613.574    113.22409     1.013819 
    8450    296.77561   -89.218897    123137.76   -35108.003    3692.4528   -38800.456    114.11429    1.0142583 
    8500    292.08054   -246.73845    123098.32   -35082.717    3634.0371   -38716.754    114.81221    1.0145832 
    8550    285.44361   -44.960949    122756.36   -35121.391    3551.4612   -38672.852    115.09065    1.0174095 
    8600    294.83153   -153.87883    123022.14   -35083.326    3668.2647    -38751.59    116.20461    1.0152115 
    8650    284.41418   -63.274762    122928.45   -35096.807    3538.6531    -38635.46    117.00161    1.0159852 
    8700    285.92319    59.243788    123003.43   -35126.237    3557.4281   -38683.666    117.98637    1.0153659 
    8750    286.80564    292.40742    123232.76   -35111.562    3568.4075    -38679.97    118.64353    1.0134764 
    8800    283.35015    56.947179    123031.33   -35187.271    3525.4145   -38712.685    119.32855    1.0151357 
    8850    288.78628   -107.03494    123151.19   -35181.012    3593.0504   -38774.062    120.22839    1.0141477 
    8900    288.59432    141.28248    123080.52   -35187.046     3590.662   -38777.708    120.69386      1.01473 
    8950    286.50939    293.67038    122992.57   -35193.743    3564.7216   -38758.465    121.45821    1.0154555 
    9000    286.38073    129.52306    123062.67   -35170.739    3563.1208   -38733.859    122.20589    1.0148772 
    9050    284.28496   -303.14182    122880.18   -35247.477    3537.0454   -38784.522    122.53737    1.0163843 
    9100    285.36777   -283.82548    122627.28   -35232.482    3550.5176   -38782.999    123.07797    1.0184805 
    9150    286.77429    434.56142    122888.14   -35150.854    3568.0173   -38718.871    124.18121    1.0163185 
    9200     291.2087    406.62684    122916.74   -35121.552    3623.1898   -38744.742    125.26636     1.016082 
    9250    286.94314    72.734556    123247.77    -35150.95    3570.1182   -38721.068    126.22341     1.013353 
    9300    283.26226   -466.31368    123247.88   -35198.583     3524.321   -38722.904    127.36679    1.0133521 
    9350    286.80882   -321.91994    122999.34   -35138.972    3568.4469   -38707.419    128.09349    1.0153997 
    9400    286.25319    9.3071566     122868.1   -35097.241    3561.5339   -38658.775    128.77751    1.0164842 
    9450    289.38656   -73.855163    122888.18   -35092.347    3600.5189   -38692.866    129.66848    1.0163182 
    9500    287.53972    -141.4816    122786.27   -35121.171    3577.5408   -38698.711    130.61112    1.0171617 
    9550    287.21325    233.00228    122878.68   -35114.327    3573.4789   -38687.806    131.60562    1.0163968 
    9600    289.15798   -4.1530429    122959.86   -35046.175     3597.675    -38643.85    132.74914    1.0157257 
    9650    296.74214   -444.18333    122507.72   -35052.945    3692.0364   -38744.981    133.64333    1.0194744 
    9700    291.75763    -174.9524    122401.96   -35058.969    3630.0195   -38688.988    134.64419    1.0203553 
    9750    285.06204    394.71459    122674.83   -35097.753    3546.7137   -38644.466    135.32474    1.0180857 
    9800    288.83381    230.36522     122712.8   -35124.684    3593.6418   -38718.325    136.02484    1.0177707 
    9850    280.08204    308.78155    122906.56   -35147.514     3484.753   -38632.267    136.72534    1.0161662 
    9900    283.63068    -153.2032     123178.7   -35172.003    3528.9049   -38700.908    137.41655    1.0139212 
    9950    283.40805    -202.8253    122949.33    -35203.06    3526.1349   -38729.195    138.13662    1.0158127 
   10000    280.32096   -238.87266    122789.63   -35228.434    3487.7257   -38716.159    138.71366    1.0171339 
   10050    290.31918   -111.54826    122912.29   -35175.059    3612.1226   -38787.182    139.47204    1.0161188 
   10100     288.0975    185.26159    122741.58   -35152.227    3584.4807   -38736.708    140.48193     1.017532 
   10150    283.39212    -52.23649    122894.64   -35214.676    3525.9368   -38740.613    141.53514    1.0162648 
   10200    287.53373    -150.0051    122576.86   -35255.021    3577.4663   -38832.487    142.01984    1.0188994 
   10250     287.2085   -296.62166    122585.33   -35307.257    3573.4197   -38880.676    142.95882     1.018829 
   10300    287.53118   -96.510233    122634.91   -35204.493    3577.4346   -38781.927    143.86228    1.0184171 
   10350     287.4177    146.33541    122561.99   -35218.874    3576.0226   -38794.896    144.52688    1.0190231 
   10400    285.70845   -113.74338    122904.27   -35185.085    3554.7563   -38739.841    145.68066    1.0161851 
   10450    288.64758   -7.7304479     122776.4   -35149.955    3591.3246   -38741.279    146.42163    1.0172434 
   10500    289.99014     15.24108    122890.52   -35142.874    3608.0286   -38750.903    147.55977    1.0162988 
   10550    288.26684   -217.48457    122674.26   -35070.455    3586.5875   -38657.042    148.15802    1.0180904 
   10600    292.33502   -145.07043    122613.52    -35003.29    3637.2035   -38640.493    148.96034    1.0185948 
   10650    291.64486   -318.62984    122496.38    -35036.41    3628.6166   -38665.027    150.06536    1.0195688 
   10700    291.79569    222.67784    122560.27   -35050.706    3630.4932   -38681.199    151.20822    1.0190373 
   10750    289.30916   -226.01786    122795.78   -35068.189    3599.5559   -38667.745    152.41074    1.0170829 
   10800    290.88308   -106.37673     122813.1   -35061.207    3619.1385   -38680.345     153.5697    1.0169395 
   10850    288.42771    192.86203    122788.96   -35055.526    3588.5891   -38644.115    154.57033    1.0171394 
   10900    290.14867    184.56386    123184.96   -35008.059    3610.0011    -38618.06    155.48322    1.0138696 
   10950    282.98119    100.30147    123009.33   -35072.195     3520.824   -38593.019    156.56385    1.0153172 
   11000    294.00977   -278.29461    123061.86   -35022.741    3658.0405   -38680.782    157.44379    1.0148838 
   11050    290.02275     356.8625    122678.64   -35050.985    3608.4344   -38659.419    158.05388    1.0180541 
   11100     291.4735   -239.64368    122533.46   -35099.001    3626.4845   -38725.485    158.42541    1.0192603 
   11150    284.15619    249.30482    122750.46   -35101.456    3535.4432     -38636.9    159.34149    1.0174584 
   11200    288.83774    118.48628    122730.71   -35009.449    3593.6907    -38603.14    160.27378    1.0176221 
   11250    292.08971   -186.37077    122604.34   -35068.339    3634.1513   -38702.491    161.35816    1.0186711 
   11300    290.27087   -284.32627    122671.38   -35084.518    3611.5215    -38696.04    162.19008    1.0181143 
   11350    287.26588   -73.518766    122576.55   -35100.605    3574.1337   -38674.738    162.67756     1.018902 
   11400    292.09183   -111.04237    122457.09   -35093.236    3634.1777   -38727.413    163.19165     1.019896 
   11450    287.02819   -194.03238    122464.69   -35146.769    3571.1764   -38717.945    164.00897    1.0198327 
   11500    292.53573   -335.21037    122208.58   -35159.847    3639.7006   -38799.548    164.84208    1.0219699 
   11550    290.20294    158.17028     122232.3   -35147.614    3610.6763    -38758.29    165.82014    1.0217716 
   11600     289.1487    322.06433    122563.42   -35120.118    3597.5595   -38717.677    166.81204    1.0190111 
   11650    290.31806   -324.01635    122567.37   -35090.819    3612.1086   -38702.927    167.51349    1.0189783 
   11700    288.42032   -11.369858    122630.19   -35018.934    3588.4971   -38607.431    168.39253    1.0184563 
   11750    287.38095   -92.870628    122931.68   -35084.336    3575.5654   -38659.901    169.66355    1.0159585 
   11800    287.16307   -52.504486     122852.6   -35115.597    3572.8546   -38688.451    170.34044    1.0166125 
   11850    289.65449   -74.951429    122704.33   -35085.631    3603.8525   -38689.484    171.32475    1.0178409 
   11900    286.74383   -5.1360562     122608.1   -35180.428    3567.6384   -38748.066    172.10516    1.0186398 
   11950    290.34886    -288.8555     122341.3   -35139.653    3612.4918   -38752.145    172.50794    1.0208612 
   12000    285.59628    297.75382    122471.64    -35133.94    3553.3607   -38687.301    173.49024    1.0197748 
   12050    294.68402    -227.6889    122591.05   -35057.663    3666.4295   -38724.092    174.07201    1.0187815 
   12100    292.88822    65.623204    122849.87   -34989.069    3644.0863   -38633.156    175.04592    1.0166351 
   12150    294.46413    67.917903    122912.61   -35017.469    3663.6936   -38681.162    175.88019    1.0161162 
   12200    292.02586   -241.67742    122904.04   -35054.129    3633.3569   -38687.486    176.60352    1.0161871 
   12250    285.10124    288.17263    122917.19    -35056.04    3547.2014   -38603.241    177.59553    1.0160783 
   12300    292.75638   -145.34448    122912.78    -35042.83     3642.446   -38685.276    177.97613    1.0161148 
   12350    291.62114    122.41902     122880.5   -35082.008    3628.3213   -38710.329    178.35614    1.0163817 
   12400    290.49092    327.91379    122923.83   -35065.668    3614.2593   -38679.928     178.6838    1.0160234 
   12450    285.66802    151.01564    123180.41   -35164.949    3554.2533   -38719.202     179.8743    1.0139071 
   12500    289.59956   -327.99413    123123.47   -35134.312    3603.1691   -38737.481    180.57925     1.014376 
   12550    289.13764   -145.97194     123404.7   -35066.865     3597.422   -38664.287    181.63594    1.0120643 
   12600    291.71523    434.88549    123602.01   -34989.239    3629.4921   -38618.731     182.8237    1.0104487 
   12650    289.58613   -194.75679    123308.86   -35032.766     3603.002   -38635.768    183.93662    1.0128509 
   12700    293.86138   -185.13354    123031.66   -34968.881    3656.1943   -38625.075    184.82637     1.015133 
   12750    286.81399   -20.506765     122975.8   -35006.188    3568.5113   -38574.699    185.78231    1.0155941 
   12800    291.64661   -162.92716    122935.42   -35037.575    3628.6382   -38666.213    186.40928    1.0159276 
   12850    289.90617     249.0948    122902.23   -35069.946    3606.9839    -38676.93    187.18404     1.016202 
   12900    285.71462   -56.158785    123096.96   -35121.195     3554.833   -38676.028    188.19736    1.0145945 
   12950    290.89462   -359.34311    123129.44   -35040.732    3619.2821   -38660.014    188.71187    1.0143268 
   13000    293.06808   -397.36462    122909.77   -34990.826     3646.324    -38637.15    189.23382    1.0161397 
   13050    292.53795    187.27673    123015.11   -34999.882    3639.7283   -38639.611    190.12622    1.0152695 
   13100    296.77445    70.859175    123067.79   -34956.984    3692.4383   -38649.422    191.01162    1.0148349 
   13150     292.3284   -385.22363    122902.89   -34932.214     3637.121   -38569.335    191.41377    1.0161965 
   13200    292.86518    17.574929    123004.22   -34930.552    3643.7996   -38574.351    192.43853    1.0153594 
   13250    297.36216    234.69699    123046.54   -34930.767    3699.7506   -38630.517    193.11753    1.0150102 
   13300    293.90946    74.686385    122873.41   -34989.499    3656.7924   -38646.291     193.2475    1.0164404 
   13350    288.97223   -314.58952    122722.95   -35111.145    3595.3639   -38706.509    193.70411    1.0176865 
   13400    287.58023    200.40408    122779.69   -35109.897    3578.0448   -38687.941    194.31431    1.0172162 
   13450    287.55534   -454.18807    122585.97   -35171.448    3577.7351   -38749.183    195.02131    1.0188237 
   13500    283.80213    148.46501    122487.52   -35157.077     3531.038   -38688.115     195.8104    1.0196425 
   13550    287.57857    50.298563    122660.65    -35200.83    3578.0241   -38778.854    196.88555    1.0182034 
   13600    286.37286   0.47397379    122726.03   -35205.542    3563.0228   -38768.565    198.13836     1.017661 
   13650    286.82398    91.622606    122653.33    -35140.38    3568.6356   -38709.016    199.14127    1.0182642 
   13700    290.71503    160.54192    122821.69   -35139.515    3617.0477   -38756.563     200.2732    1.0168684 
   13750    289.36429    357.20728    123070.32   -35112.955    3600.2419   -38713.197    201.33592    1.0148141 
   13800    288.91824   -169.28091    122981.37   -35088.335    3594.6922   -38683.027    202.20394    1.0155481 
   13850    286.82382    48.872535    123213.85   -35092.318    3568.6336   -38660.952    203.28004    1.0136319 
   13900    286.30189   -61.668956    123260.37   -35057.745    3562.1398   -38619.885    203.93774    1.0132494 
   13950    291.78674   -27.978353    123076.19   -35064.083    3630.3818   -38694.465    204.57129    1.0147657 
   14000    292.52667   -139.97526    123251.06   -35017.874    3639.5879   -38657.462    205.53854    1.0133259 
   14050    289.79615   -211.44713    123279.45   -35035.198    3605.6151   -38640.813    206.41099    1.0130925 
   14100    286.35211    1.2926419    123441.04    -35081.69    3562.7646   -38644.455    207.59513    1.0117663 
   14150    286.10543   -443.22563    123182.18   -35087.729    3559.6954   -38647.425    208.33741    1.0138926 
   14200    292.14801   -213.43631    122786.39   -35077.604    3634.8767   -38712.481    208.68386    1.0171607 
   14250    282.82059    4.4639628     122734.9   -35155.155    3518.8258   -38673.981    209.15728    1.0175874 
   14300     281.8369    96.790846    122447.67   -35227.743    3506.5869   -38734.329    209.57185    1.0199744 
   14350     284.6176    109.39636    122552.03   -35149.861    3541.1841   -38691.045    210.20225    1.0191058 
   14400    286.65267    85.549755    122544.53   -35192.347    3566.5041   -38758.851     210.7991    1.0191682 
   14450    289.24448    90.688227     122731.9   -35113.659    3598.7512    -38712.41    211.88224    1.0176123 
   14500    282.40206   -111.72571    122785.98   -35164.525    3513.6185   -38678.144    212.54466    1.0171641 
   14550     285.1124    366.41816    122788.31   -35102.128    3547.3403   -38649.468    213.12067    1.0171448 
   14600    292.59722   -142.59385    122620.81   -35099.001    3640.4657   -38739.467    213.44827    1.0185342 
   14650     287.7133    60.824563    122699.41   -35157.536    3579.7004   -38737.236    214.22103    1.0178818 
   14700    290.70971   -136.33996       122626   -35197.681    3616.9815   -38814.662    214.77016    1.0184911 
   14750    285.78724   -359.12138     122648.7   -35196.721    3555.7366   -38752.458    215.81166    1.0183026 
   14800    282.34359     216.9782    122456.81   -35252.999    3512.8911   -38765.891    216.49425    1.0198983 
   14850    283.03899    71.555487    122363.51   -35270.297    3521.5431    -38791.84    217.45654    1.0206759 
   14900     282.3682    99.408637    122533.69   -35216.544    3513.1973   -38729.741    218.54954    1.0192584 
   14950    283.79082   -195.84857    122275.97   -35247.848    3530.8974   -38778.745     219.1442    1.0214066 
   15000    281.08625   -302.27669    122175.22   -35287.233    3497.2473   -38784.481     219.7015     1.022249 
   15050    282.31376    212.69301    122174.13   -35283.956    3512.5199   -38796.476    220.43708    1.0222581 
   15100    281.69918    82.261146    122427.67   -35264.739    3504.8733   -38769.612    221.61752    1.0201411 
   15150     283.8894    97.425836    122349.05   -35233.034    3532.1238   -38765.158    222.31995    1.0207966 
   15200    287.66835   -115.93197    122236.38   -35222.007    3579.1412   -38801.148    222.78443    1.0217375 
   15250    288.02797   -16.675366     122161.3   -35233.129    3583.6156   -38816.745    223.56871    1.0223654 
   15300    286.74681    185.37755    122106.14   -35243.136    3567.6755   -38810.811    225.18236    1.0228273 
   15350     286.2494    310.16383    121878.48   -35251.151    3561.4867   -38812.638    225.77112    1.0247378 
   15400    287.76679   -20.262859    121960.04   -35208.971    3580.3659   -38789.337    226.68176    1.0240525 
   15450    284.64539    153.01413    122064.01   -35215.873    3541.5298   -38757.403    227.33783    1.0231803 
   15500    290.25799   -3.0611711    122069.88   -35202.136    3611.3612   -38813.497    228.02378    1.0231311 
   15550    291.55642    119.47466    122088.29   -35156.444    3627.5161    -38783.96    229.18992    1.0229768 
   15600    288.14456     183.8767    122433.94   -35146.404    3585.0661    -38731.47    230.14835    1.0200888 
   15650    287.84555   -166.40362    122641.58   -35186.968    3581.3459   -38768.314    230.98776    1.0183617 
   15700    283.11798    329.86338    122539.81   -35198.784     3522.526    -38721.31    231.94411    1.0192075 
   15750    283.39056    80.795004     122559.9   -35210.172    3525.9174    -38736.09    232.67646    1.0190404 
   15800    281.17539    188.92578    122675.53   -35261.068    3498.3564   -38759.425     233.7579    1.0180799 
   15850    285.61111    207.74851    122805.27    -35237.89    3553.5452   -38791.435     234.5494    1.0170044 
   15900    277.34945   -95.213506    123081.89   -35290.332    3450.7545   -38741.086    235.69051    1.0147187 
   15950    289.85954    492.44138    123201.44   -35212.277    3606.4037    -38818.68    236.84064     1.013734 
   16000    286.35892   -86.923433    123410.09   -35157.367    3562.8493   -38720.217    237.33863    1.0120201 
   16050     289.2879    134.51136    123237.64   -35080.814    3599.2915   -38680.106    237.97781    1.0134362 
   16100    285.59799   -40.460729    123119.07   -35131.153    3553.3819   -38684.535    238.96136    1.0144122 
   16150    287.03391   -338.33398    123084.66   -35133.583    3571.2475   -38704.831    239.42794    1.0146959 
   16200    285.51336    137.37615    122966.13   -35179.585     3552.329   -38731.914    240.06177    1.0156739 
   16250    287.52306    191.39406    122938.15    -35134.06    3577.3334   -38711.394    240.73698    1.0159051 
   16300    286.65129    116.93935    122883.65   -35165.725    3566.4871   -38732.212    241.50989    1.0163556 
   16350    292.81252     44.26025    123265.06   -35058.867    3643.1445   -38702.012     242.8036    1.0132108 
   16400    285.98883    -80.83098    123342.24   -35007.119    3558.2447   -38565.364    243.64966    1.0125768 
   16450    284.63123    218.88292    123454.44   -34987.268    3541.3536   -38528.622        244.1    1.0116566 
   16500    292.94971   -158.98801    123187.89   -35011.235    3644.8514   -38656.086    244.16345    1.0138455 
   16550    294.37355     169.3877    122938.11   -34991.872    3662.5666   -38654.438    244.16014    1.0159054 
   16600    286.21886   -139.50679    122786.11   -35045.482    3561.1068   -38606.589    244.72419     1.017163 
   16650    290.09498    -14.24929    122914.09   -35010.378    3609.3331   -38619.711    245.56864    1.0161039 
   16700    290.70328    24.063035    123125.38   -35015.017    3616.9014   -38631.918    246.82327    1.0143602 
   16750    293.41621    317.29811     123336.5    -35038.64    3650.6555   -38689.295    247.69228     1.012624 
   16800    290.72051    252.39007    123724.53   -34992.654    3617.1158   -38609.769    248.42262    1.0094481 
   16850     299.3657   -23.703161    123694.97   -34926.919    3724.6784   -38651.597    249.01293    1.0096893 
   16900     289.5064   -183.59507    123821.55   -35005.732      3602.01   -38607.742    249.71306    1.0086572 
   16950    292.10197    248.16753    123763.31   -34996.265    3634.3039   -38630.568    250.12386    1.0091318 
   17000    291.41921    283.24318    124010.78   -34964.572     3625.809   -38590.381    251.02389     1.007118 
   17050    294.17974     103.8119    124195.59    -34875.54    3660.1552   -38535.695     252.2001    1.0056194 
   17100    295.70476    142.65636    124205.14    -34859.43    3679.1294   -38538.559    252.79769     1.005542 
   17150    288.63677    166.89311    124082.23   -34883.195    3591.1902   -38474.385    253.70216    1.0065381 
   17200    291.62477    54.695359    123962.65   -34933.658    3628.3665   -38562.024     254.2115    1.0075091 
   17250    288.75913   -97.014716    124062.79   -34988.789    3592.7125   -38581.501    255.38982    1.0066958 
   17300    294.61292   -130.16662    123842.81   -34988.084    3665.5448   -38653.629    256.08664     1.008484 
   17350    287.08314   -117.38622    123776.32   -34990.479      3571.86   -38562.339    257.17488    1.0090257 
   17400    292.24646    150.53369    123878.04   -34978.942    3636.1016   -38615.044    258.72357    1.0081972 
   17450    291.55483   -135.16974    123659.21   -35016.144    3627.4963    -38643.64    259.63402    1.0099813 
   17500    286.78114   -211.02223    123442.72   -35084.328    3568.1026   -38652.431     260.1236    1.0117526 
   17550    286.66672    220.49167    123281.43   -35041.346    3566.6789   -38608.025    260.91621    1.0130763 
   17600    290.81138    18.084844    123380.53   -35000.926    3618.2464   -38619.172    261.85611    1.0122626 
   17650    294.25137    -143.1346    123278.46   -35020.826    3661.0465   -38681.872    262.90967    1.0131007 
   17700    282.82676    139.95746       123142    -35087.06    3518.9027   -38605.963    263.62921    1.0142233 
   17750    296.25221   -125.33849    123115.39   -34989.215    3685.9408   -38675.155    264.74001    1.0144426 
   17800     288.5969    11.263044    123100.89   -35023.314     3590.694   -38614.008    265.74151    1.0145621 
   17850    289.40086   -72.716165    122870.37   -35071.787    3600.6968   -38672.484    266.16705    1.0164655 
   17900    289.37134    354.12577    122901.52     -35022.6    3600.3296   -38622.929    267.19697    1.0162078 
   17950    288.38961   -56.034514    123166.97   -34971.121     3588.115   -38559.236    268.85868    1.0140177 
   18000    289.37333   -107.58409    123107.83    -34970.56    3600.3544   -38570.914    269.48551    1.0145048 
   18050    287.56135     125.8167    123140.62   -35053.788    3577.8099   -38631.598    270.72496    1.0142347 
   18100    289.90117   -159.45892    123151.87    -35069.25    3606.9217   -38676.171    271.74955     1.014142 
   18150    286.81124    113.20687    123014.86   -35069.663    3568.4771    -38638.14    272.55822    1.0152716 
   18200     291.9319    83.463741    122827.77   -35016.411    3632.1878   -38648.599    272.99566    1.0168181 
   18250    286.81878    71.805098    122940.91   -35024.007    3568.5709   -38592.578    273.60766    1.0158823 
   18300    294.38202   -253.44994    122862.02   -34984.574     3662.672   -38647.246    274.72548    1.0165346 
   18350    287.08647    232.89047    123031.68   -35039.754    3571.9015   -38611.655    275.80741    1.0151328 
   18400     295.4757   -583.27835    122954.28   -34968.822    3676.2795   -38645.101    276.72709    1.0157718 
   18450    289.14122    87.706183    122910.73   -35037.292    3597.4665   -38634.759    277.33631    1.0161317 
   18500    288.47653    315.05175    122959.67   -35054.727    3589.1964   -38643.923    278.27103    1.0157273 
   18550    287.20516    16.904404    123106.88   -35033.679    3573.3782   -38607.057    279.28933    1.0145127 
   18600    293.22737   -120.12894    123288.12   -35043.167     3648.306   -38691.473    280.00674    1.0130213 
   18650    294.77743   -679.86265    123242.61   -35029.343    3667.5917   -38696.935    281.04556    1.0133954 
   18700     290.5667   -50.214232    123188.39   -35059.607    3615.2021   -38674.809    281.63567    1.0138414 
   18750      293.024    -209.3398    123051.34   -35013.722    3645.7757   -38659.497    282.13572    1.0149706 
   18800    290.03566   -40.413241    123166.04    -35083.84     3608.595   -38692.435    283.07481    1.0140254 
   18850     287.7901   -430.31646    122922.12   -35020.673     3580.656   -38601.329    282.94776    1.0160375 
   18900     288.5726    189.80099    122874.67   -35106.328    3590.3917    -38696.72    282.89081    1.0164299 
   18950    289.68684    88.414546    123128.07   -35048.771    3604.2551   -38653.026    284.03125    1.0143381 
   19000    285.57195   -239.33591    123045.15   -35108.496     3553.058   -38661.554    284.51695    1.0150216 
   19050    286.33869   -5.2759844    122971.71   -35072.566    3562.5977   -38635.164    285.13433    1.0156279 
   19100    290.12732   -248.75765    122736.53   -35106.977    3609.7354   -38716.712    285.65595     1.017574 
   19150    294.57813    6.8494909    122410.22   -35115.815     3665.112   -38780.927    285.84069    1.0202865 
   19200    291.97268    5.7582891    122413.73   -35073.992    3632.6952   -38706.687    286.74988    1.0202572 
   19250     292.2657    2.6942237    122355.38   -35050.706    3636.3409   -38687.047    287.20344    1.0207438 
   19300    291.51388   -52.440746    122676.23   -35060.599    3626.9868   -38687.586    288.72583    1.0180741 
   19350    291.68182     220.5374    122508.13   -35063.862    3629.0764   -38692.938    289.54349     1.019471 
   19400    293.55999   -329.65856    122812.68   -35044.926    3652.4444    -38697.37     290.6259    1.0169429 
   19450     289.3996    63.367467     122864.4   -35004.037    3600.6813   -38604.718    291.70627    1.0165149 
   19500    287.29569    372.94631    122817.75   -35051.107    3574.5046   -38625.612      292.067     1.016901 
   19550    291.15824   -202.57252    122542.91   -35037.599     3622.562   -38660.161      292.433    1.0191817 
   19600     288.0554    127.74242    122532.23   -35076.612    3583.9569   -38660.568    293.02047    1.0192705 
   19650    289.45411   -189.94897    122249.05   -35107.732    3601.3594   -38709.092    293.48932    1.0216316 
   19700    291.53972    283.22395    122325.09   -35086.966    3627.3083   -38714.275    294.67479    1.0209965 
   19750     290.6339   -104.40878    122375.83   -35103.246    3616.0383   -38719.285    295.37981    1.0205732 
   19800    294.66874   -177.08812    122308.55   -35114.725    3666.2393   -38780.965    296.26436    1.0211346 
   19850    287.84904   -117.20392    122209.07   -35153.301    3581.3894    -38734.69    297.41214    1.0219658 
   19900    288.01683    117.43003    122376.87   -35147.815    3583.4769   -38731.292    298.91906    1.0205645 
   19950    287.71503   -89.657693    122631.23   -35167.346     3579.722   -38747.068    300.42803    1.0184477 
   20000    290.34196    51.178829    122589.47     -35124.5     3612.406   -38736.906    301.49532    1.0187946 
   20050    288.42238    55.363237    122659.17   -35106.359    3588.5227   -38694.882    302.76107    1.0182157 
   20100    290.42861    237.32431    122477.65   -35157.006    3613.4841    -38770.49    303.16528    1.0197248 
   20150    284.69407   -283.02633    122366.63   -35193.061    3542.1355   -38735.197    303.31024    1.0206499 
   20200    290.37755    295.06085    122169.62   -35165.511    3612.8487    -38778.36    303.84952    1.0222958 
   20250    285.31958    -39.15534    121943.83    -35223.03     3549.918   -38772.948    304.88486    1.0241887 
   20300    285.02261   -283.13817    121818.21   -35234.588    3546.2231   -38780.811    305.55093    1.0252448 
   20350    287.33138    331.42223    121843.71   -35194.083    3574.9487   -38769.032    306.29436    1.0250303 
   20400    287.21054   -199.67676    121840.46   -35222.088    3573.4452   -38795.533    307.10717    1.0250576 
   20450    286.12027   -160.60231    121631.67   -35224.307    3559.8801   -38784.187    307.93912    1.0268172 
   20500    290.60081   -75.862304    121681.67   -35230.488    3615.6265   -38846.115    308.89876    1.0263953 
   20550    285.45445    29.081099    121862.93   -35262.109    3551.5961   -38813.705    309.66184    1.0248686 
   20600     286.5664   -2.6841828    121787.09   -35275.652    3565.4309   -38841.083    310.15475    1.0255068 
   20650    286.04382    420.28588    121880.78   -35242.144     3558.929   -38801.073     311.4692    1.0247185 
   20700    290.54323   -27.244817    121911.44   -35151.803    3614.9102   -38766.713    312.47004    1.0244608 
   20750     292.2005   -265.95781    121936.28   -35153.203    3635.5298   -38788.732    313.37503    1.0242521 
   20800    285.14315   -165.61457     121910.2   -35173.312    3547.7229   -38721.035    314.14033    1.0244712 
   20850      285.043    66.172556    121952.79   -35194.835    3546.4768   -38741.312    314.73083    1.0241134 
   20900    285.64449   -219.53132    121998.88   -35186.254    3553.9605   -38740.214    315.68172    1.0237266 
   20950    284.43333    175.35946    121956.44   -35265.509    3538.8914   -38804.401    316.37476    1.0240828 
   21000    281.09019   -89.778046    121783.81   -35345.526    3497.2963   -38842.822    316.71935    1.0255344 
   21050      287.781   -108.16241    121684.63   -35325.082    3580.5428   -38905.624    316.80535    1.0263703 
   21100    284.27521    321.97664    121728.49   -35336.685     3536.924   -38873.609    317.26649    1.0260005 
   21150    280.50144   -47.473861     121733.3   -35316.714    3489.9712   -38806.685    318.03822    1.0259599 
   21200    287.90049   -106.79245    121838.84   -35272.868    3582.0295   -38854.898    318.58751    1.0250713 
   21250    286.16613   -217.30769     121582.4   -35309.065    3560.4507   -38869.515    318.76502    1.0272333 
   21300    284.81501   -135.16778    121488.01   -35292.726    3543.6402   -38836.366     319.3012    1.0280314 
   21350    286.14345    4.2456014    121579.63   -35286.359    3560.1685   -38846.528     320.2623    1.0272567 
   21400    287.47492    59.573757    121707.69   -35259.083    3576.7345   -38835.817    321.23519    1.0261758 
   21450    280.91675    157.99573     121818.2   -35253.797    3495.1384   -38748.936    321.93055    1.0252449 
   21500    286.39447    14.130115    121992.97   -35215.488    3563.2917    -38778.78    322.94275    1.0237762 
   21550    287.09182   -133.36016    122147.46   -35199.922    3571.9681    -38771.89    324.07339    1.0224813 
   21600    290.59601   -263.36592    122277.31   -35132.262    3615.5669   -38747.829    325.13973    1.0213955 
   21650    288.42273    121.12938    122234.62     -35114.3    3588.5271   -38702.827    326.23365    1.0217522 
   21700     290.8733   -206.38152    122108.29   -35102.464    3619.0169   -38721.481    326.70364    1.0228093 
   21750    292.46332     541.8478    122120.49    -35104.61    3638.7997   -38743.409    328.02505    1.0227071 
   21800    288.26948   -42.460263    122148.13   -35099.203    3586.6203   -38685.824    328.98845    1.0224757 
   21850    291.68557    45.620829    122151.01   -35126.319    3629.1231   -38755.443    329.75484    1.0224516 
   21900    290.34841   -218.87185    122205.98   -35130.896    3612.4862   -38743.382    330.71849    1.0219917 
   21950    281.43056    176.55783     122457.9   -35168.278    3501.5312   -38669.809    332.24715    1.0198892 
   22000    288.96943   -23.841143     122693.4   -35163.986     3595.329   -38759.315    333.60151    1.0179316 
   22050    285.46481    140.43132    122656.08    -35099.73     3551.725   -38651.455    334.47746    1.0182413 
   22100    289.86005    -73.46811    122598.43   -35134.513    3606.4101   -38740.923    334.99406    1.0187201 
   22150     282.2625    176.01369    122475.13    -35146.38    3511.8822   -38658.262    335.29196    1.0197457 
   22200    290.64087    129.73649     122641.5   -35102.062     3616.125   -38718.187    336.51216    1.0183624 
   22250    286.59982   -271.60682    122357.11   -35125.942    3565.8466   -38691.789    336.49264    1.0207293 
   22300    287.90211    169.89794    122320.66   -35090.776    3582.0495   -38672.825    337.46631    1.0210335 
   22350    294.48727    50.532441    122183.33   -35056.625    3663.9815   -38720.607    338.44619    1.0221811 
   22400    291.89209    246.28061    122534.29   -35071.887    3631.6925   -38703.579     339.9918    1.0192534 
   22450    287.44107    64.372617     122740.1   -35065.407    3576.3134   -38641.721    341.00206    1.0175444 
   22500    294.03768    117.71946    122815.41   -34975.271    3658.3878   -38633.658    341.54218    1.0169204 
   22550    295.57986   -199.95157    122973.17   -34968.681    3677.5755   -38646.257    342.78737    1.0156158 
   22600    289.56474   -330.50464    122731.17    -35064.73    3602.7359   -38667.466    343.05511    1.0176183 
   22650     297.3842   -226.93635    122543.98   -35009.654    3700.0248   -38709.678    343.84771    1.0191728 
   22700     294.3407    286.16425    122675.65   -35042.923    3662.1579   -38705.081    345.44271    1.0180789 
   22750    289.92138   -317.33771    122669.13   -35052.126    3607.1732   -38659.299    345.94449     1.018133 
   22800    296.37631   -70.078729    122435.49   -35077.502    3687.4847   -38764.987    346.84217    1.0200759 
   22850    291.06338    265.85653    122598.97   -35054.101    3621.3818   -38675.483    347.71995    1.0187156 
   22900    290.44909    45.480694     122361.6   -35072.388    3613.7388   -38686.127    348.38093    1.0206919 
   22950    290.80925    387.39949    122540.65   -35011.746    3618.2199   -38629.966    349.62063    1.0192005 
   23000    287.37533   -132.45374    122673.16   -35083.269    3575.4955   -38658.764    350.81396    1.0180996 
   23050    291.75179   -91.074819    122341.11    -35138.73    3629.9469   -38768.677    351.12496    1.0208628 
   23100    285.49156    261.63496    122327.01   -35123.012    3552.0578    -38675.07    351.81697    1.0209805 
   23150    289.49055   -65.506921    122409.62   -35109.709    3601.8128   -38711.522    352.98961    1.0202915 
   23200     286.9065   -10.276769    122343.91   -35160.479    3569.6623   -38730.141    353.53235    1.0208394 
   23250    286.92908    210.14306    122396.22   -35145.122    3569.9432   -38715.065    354.59087    1.0204032 
   23300    292.77218   -52.714753    122240.16   -35130.285    3642.6426   -38772.927    354.92706    1.0217059 
   23350    289.59226   -157.63226    122291.64   -35113.657    3603.0783   -38716.735    355.83342    1.0212758 
   23400     295.7308   -418.10259    122142.88    -35088.82    3679.4534   -38768.273    356.28377    1.0225196 
   23450    292.58398   -231.89663    122176.97   -35117.526     3640.301   -38757.827     357.4453    1.0222343 
   23500    287.52126   -46.325975    122105.97   -35179.864    3577.3112   -38757.176    358.52751    1.0228287 
   23550    292.15026    -75.01253    122069.03   -35098.595    3634.9047     -38733.5    359.46297    1.0231382 
   23600    288.23176   -544.15235    121954.97   -35179.103     3586.151   -38765.254    360.13007    1.0240952 
   23650    281.63204     83.01613     121759.9   -35179.996    3504.0381   -38684.034    360.64132    1.0257358 
   23700    289.26436    69.145235     121689.9     -35231.1    3598.9986   -38830.099    361.58319    1.0263259 
   23750    286.10883   -251.63231     121896.3   -35240.886    3559.7378   -38800.623    363.06856     1.024588 
   23800    287.78064   -137.05988    121733.89   -35214.203    3580.5383   -38794.741    364.05253     1.025955 
   23850    284.52121    153.18376       121822   -35221.671    3539.9847   -38761.655    365.09054     1.025213 
   23900    289.25708   -44.196324    121831.99   -35235.437     3598.908   -38834.345      365.755    1.0251289 
   23950    290.55217   -51.945365    121714.66    -35170.42    3615.0213   -38785.441    365.96075    1.0261171 
   24000    284.23494     225.4639    121801.23    -35153.21     3536.423   -38689.633    366.85822    1.0253877 
   24050    293.87373   -188.18029    121759.04   -35155.734    3656.3479   -38812.082    367.84386    1.0257431 
   24100    284.87494   -305.28108    121898.89   -35192.427    3544.3858   -38736.813     368.8524    1.0245662 
   24150    286.38766   -206.17831    121844.89    -35230.92     3563.207   -38794.127    369.78835    1.0250204 
   24200    286.32983    175.73225    121941.02   -35278.313    3562.4874     -38840.8    371.18578    1.0242123 
   24250    283.11889    217.81993    122009.37   -35248.019    3522.5372   -38770.557    372.35496    1.0236385 
   24300     287.3882   -33.144427    122029.42   -35221.797    3575.6555   -38797.453     373.6304    1.0234704 
   24350    286.13308     83.78013    122132.71    -35248.29    3560.0395   -38808.329    374.20823    1.0226048 
   24400    284.30127   -13.915985    122107.14   -35309.196    3537.2483   -38846.444    375.06394    1.0228189 
   24450    286.39757    -103.6023    122226.19   -35281.104    3563.3303   -38844.435    376.38189    1.0218226 
   24500    286.40091   -465.66333     122096.2   -35242.469    3563.3719   -38805.841    376.92989    1.0229105 
   24550    285.69428   -325.79486     122207.2   -35222.951      3554.58   -38777.531    377.78716    1.0219814 
   24600    289.75629    188.91866    122261.44   -35186.921    3605.1192    -38792.04    378.71543    1.0215281 
   24650    284.17148    -203.2622    122314.04   -35182.558    3535.6334   -38718.191    379.24888    1.0210887 
   24700    287.46674   -49.500391    122264.86   -35182.152    3576.6328   -38758.785    379.68288    1.0214994 
   24750    288.50249   -173.76152    122050.38   -35161.224    3589.5194   -38750.743    379.44298    1.0232946 
   24800    286.53242    174.84458    122077.67   -35175.077    3565.0081   -38740.085    380.19963    1.0230658 
   24850    291.05941   -96.141669    122262.73   -35113.074    3621.3324   -38734.406    380.86491    1.0215173 
   24900    291.43179     228.1865    122413.39   -35068.134    3625.9655   -38694.099     381.9652    1.0202601 
   24950    292.48353   -39.955336    122393.71   -35118.744    3639.0512   -38757.795    382.26228    1.0204241 
   25000    281.25806   -76.510511    122570.54    -35087.81     3499.385   -38587.195    383.73001    1.0189519 
   25050    293.59298    209.34261    122510.38   -35122.529    3652.8548   -38775.383    384.02978    1.0194524 
   25100     286.9426   -18.672855    122529.24   -35101.814    3570.1115   -38671.925    385.24006    1.0192954 
   25150    286.56004   -211.07965    122522.54   -35116.802    3565.3517   -38682.154    385.45778    1.0193511 
   25200    288.99408    194.07765    122738.98   -35114.915    3595.6358   -38710.551    386.83632    1.0175536 
   25250    289.34735    -167.4108    122769.46   -35092.479    3600.0311    -38692.51    387.46466    1.0173009 
   25300    285.79158    28.011391     122672.4   -35123.254    3555.7905   -38679.045    387.88594    1.0181059 
   25350    287.95866    143.70276    122503.81   -35087.364    3582.7531   -38670.117    388.54102     1.019507 
   25400    291.43178   -58.152142    122231.21   -35114.584    3625.9654   -38740.549    389.25944    1.0217807 
   25450    290.42636    224.80818    122420.96   -35084.543    3613.4561   -38697.999    390.38013     1.020197 
   25500    291.39159    312.22124    122466.82   -35090.064    3625.4654   -38715.529    391.01991    1.0198149 
   25550    285.86719    80.305452    122678.17   -35100.154    3556.7313   -38656.885    391.93201     1.018058 
   25600    291.64574   -306.78688       122841   -35041.731    3628.6274   -38670.358      392.695    1.0167085 
   25650    284.67735   -143.27148    122606.01   -35129.742    3541.9275    -38671.67    392.83987    1.0186572 
   25700    288.07277    192.89329    122510.53   -35156.494    3584.1729   -38740.667      393.029     1.019451 
   25750     286.8037   -245.70036    122373.76    -35139.71    3568.3833   -38708.093    393.54601    1.0205904 
   25800    289.72237    258.19916    122380.73    -35158.64    3604.6971   -38763.337    394.80362    1.0205323 
   25850     291.4936   -231.64848    122363.09   -35112.146    3626.7346    -38738.88    395.53476    1.0206794 
   25900    293.31278    216.43023    122147.68   -35088.904    3649.3686   -38738.273    395.81235    1.0224795 
   25950    289.98568    5.1519392    122199.96   -35056.582    3607.9732   -38664.555     396.8652     1.022042 
   26000    289.10081   -105.68386    122099.84   -35087.294    3596.9637   -38684.258    397.24016      1.02288 
   26050    287.74257    164.96587    122203.26   -35121.597    3580.0646   -38701.661    398.59539    1.0220144 
   26100    290.14441   -16.349526    122240.07   -35155.894    3609.9481   -38765.843    400.27532    1.0217066 
   26150    287.51564    -203.3398    121952.61   -35141.353    3577.2411   -38718.594    400.33244     1.024115 
   26200    286.02802     92.95872    122020.32   -35133.632    3558.7324   -38692.364    401.56323    1.0235467 
   26250    290.53787    22.237595    122044.37   -35081.864    3614.8435   -38696.708    402.31946     1.023345 
   26300    291.72662    -111.3248    122152.78    -35102.44    3629.6338   -38732.074    403.68407    1.0224368 
   26350    291.76415   -9.1724788    122092.77   -35063.167    3630.1007   -38693.268    404.29546    1.0229393 
   26400    288.99702   -442.27576     122195.8   -35126.842    3595.6724   -38722.515    405.44995    1.0220768 
   26450     289.2389    42.907092    122005.49    -35170.19    3598.6818   -38768.872    405.74479    1.0236711 
   26500    289.62675   -109.07011    122164.69   -35146.737    3603.5073   -38750.245    407.22464    1.0223371 
   26550    284.86753    91.751805    122157.06   -35212.547    3544.2937   -38756.841     407.6228    1.0224009 
   26600    288.54535   -249.70395    121962.65   -35213.141    3590.0527   -38803.194    407.96193    1.0240307 
   26650    287.11758    180.55995    122072.68   -35240.255    3572.2886   -38812.544    408.80455    1.0231076 
   26700    287.38846    222.78786    122252.55   -35174.226    3575.6588   -38749.885    410.23725    1.0216023 
   26750    288.53815   -2.7576831    122434.46   -35160.177    3589.9631    -38750.14    411.64247    1.0200845 
   26800      289.823    530.66047    122577.39   -35124.701    3605.9492    -38730.65    413.15156     1.018895 
   26850    286.58438   -401.45723    122708.47   -35113.523    3565.6545   -38679.178    413.86751    1.0178066 
   26900    282.36991    246.46661     122495.9   -35185.382    3513.2185   -38698.601     414.1824    1.0195728 
   26950     288.5348     472.4616    122642.52   -35162.916    3589.9215   -38752.837    414.76705    1.0183539 
   27000     284.8334    -116.2226     122761.3   -35177.745    3543.8689   -38721.614    415.50234    1.0173686 
   27050    282.76176    35.661408    122814.25   -35151.231    3518.0939   -38669.325    415.74038      1.01693 
   27100    286.70361     197.9814    122573.81     -35164.5     3567.138   -38731.638    415.85607    1.0189247 
   27150    290.85353   -100.45001    122600.28   -35165.547    3618.7708   -38784.318    415.88105    1.0187047 
   27200    284.96622    10.965853    122545.13   -35163.311    3545.5215   -38708.833    416.55004    1.0191632 
   27250    284.30932    41.915593    122561.81   -35172.532    3537.3484    -38709.88    417.19276    1.0190246 
   27300    288.92295     230.5635     122579.1   -35188.291    3594.7508   -38783.042    418.21756    1.0188808 
   27350    289.84778    89.336007    122558.41    -35135.06    3606.2575   -38741.318    419.01533    1.0190528 
   27400    294.16753    -242.9678    122505.52   -35088.324    3660.0033   -38748.327    419.55779    1.0194928 
   27450    290.42442   -186.14291    122685.11   -35057.807    3613.4319   -38671.238    420.61644    1.0180004 
   27500    291.20077   -131.00452    122457.45    -35067.03    3623.0912   -38690.121    421.40471     1.019893 
   27550    283.18077    -138.9358    122737.54   -35118.983    3523.3072    -38642.29    422.96905    1.0175656 
   27600    289.45481    149.60146    122661.07    -35103.78    3601.3682   -38705.148    423.60371    1.0181999 
   27650    286.57575    340.43231    122587.38   -35111.486    3565.5471   -38677.033    424.45967     1.018812 
   27700    293.45876    14.089147    122518.25   -35040.491    3651.1848   -38691.676    424.54996    1.0193868 
   27750    288.60912     240.0412    122659.04   -35032.252    3590.8462   -38623.098    425.61747    1.0182168 
   27800    294.53639   -74.166043    122573.64    -34952.39    3664.5926   -38616.982    426.08343    1.0189262 
   27850    287.92671   -228.55638    122424.18   -35039.429    3582.3556   -38621.784    426.05639    1.0201701 
   27900    285.94703   -61.218103    122562.07    -35098.49    3557.7247   -38656.214    426.59529    1.0190224 
   27950    286.10205   -117.39777    122501.63    -35128.85    3559.6534   -38688.504    426.97686    1.0195252 
   28000    289.21428    33.993904    122686.28   -35100.757    3598.3754   -38699.132    428.02614    1.0179907 
   28050    295.19944   -103.89471    122711.31   -35035.161    3672.8422   -38708.003    428.64656     1.017783 
   28100    295.91827   -220.83027    122876.52     -35048.1    3681.7859   -38729.886    430.16226    1.0164146 
   28150    287.90703    -90.02026    122593.27   -35128.031    3582.1107   -38710.142    430.65122     1.018763 
   28200    290.82082   -71.052869    122448.78    -35155.96    3618.3639   -38774.324    430.79813    1.0199652 
   28250    290.49636   -266.75528     122504.2   -35124.776    3614.3271   -38739.103    431.40353    1.0195038 
   28300    290.82958   -114.59511    122313.65   -35148.554    3618.4729   -38767.027    431.41567     1.021092 
   28350    285.55119    44.648928     122393.1   -35153.045    3552.7996   -38705.845    432.12446    1.0204292 
   28400    286.81081   -199.92082    122216.43   -35263.234    3568.4717   -38831.706    433.02619    1.0219043 
   28450    288.25475   -399.84191    122161.09   -35245.498    3586.4371   -38831.935    433.60626    1.0223672 
   28500    283.31838    53.110744    122093.71   -35313.379    3525.0193   -38838.398    434.55289    1.0229314 
   28550    285.73524    666.56279     122429.5   -35213.588    3555.0896   -38768.677    436.23208    1.0201258 
   28600    281.65197   -109.33354     122701.3   -35159.823     3504.286   -38664.108    437.64867    1.0178661 
   28650     284.5947    172.04956    122828.85   -35184.656    3540.8991   -38725.555    438.98296    1.0168091 
   28700    283.60265   -200.81145    122712.88   -35121.849    3528.5561   -38650.405    439.94411      1.01777 
   28750    289.33894    330.06627    122570.79   -35126.051    3599.9264   -38725.978    440.79879    1.0189499 
   28800    289.96538   -158.83741       122425   -35121.621    3607.7206   -38729.342    441.85305    1.0201633 
   28850    292.46418   -291.88169    122231.11   -35099.151    3638.8104   -38737.961    442.17968    1.0217815 
   28900    293.63277   -87.514048    122159.22   -35081.199    3653.3499   -38734.549    442.75074    1.0223828 
   28950    286.37278    7.7922382    122034.66   -35175.003    3563.0218   -38738.025    442.74302    1.0234264 
   29000    294.69882    -98.08954    122258.07   -35083.937    3666.6136   -38750.551    443.96806    1.0215562 
   29050    284.89872    133.98503     122370.4   -35128.007    3544.6817   -38672.688    444.87137    1.0206185 
   29100    295.09842    24.730247    122802.48   -35033.394    3671.5853   -38704.979    446.21095    1.0170274 
   29150     296.8067   -294.05987    122764.87    -35024.23    3692.8397    -38717.07    446.93576     1.017339 
   29200    291.66798   -216.06612    122713.66    -35073.19    3628.9042   -38702.094    447.29827    1.0177636 
   29250    286.43076    -55.81547    122831.23    -35115.07    3563.7432   -38678.814    448.58959    1.0167894 
   29300    287.76749    35.650574    122733.34   -35144.454    3580.3747   -38724.829    448.94012    1.0176004 
   29350    285.49858   -342.33887    122916.12   -35165.275    3552.1451    -38717.42    450.87247    1.0160872 
   29400    284.45261   -219.64485     122807.3     -35225.6    3539.1313   -38764.731    451.43827    1.0169875 
   29450    280.54992    -390.3912    122713.61   -35254.506    3490.5743    -38745.08    451.72146     1.017764 
   29500     286.8425   -62.271805     122490.6   -35209.094    3568.8661    -38777.96    451.69701    1.0196169 
   29550    285.92079   -416.05013    122410.24   -35192.184    3557.3982   -38749.583    452.69543    1.0202863 
   29600    290.02722    68.739443    122505.55   -35146.554      3608.49   -38755.044    453.85378    1.0194925 
   29650    290.65773   -201.55632    122601.55   -35154.143    3616.3347   -38770.478    455.08188    1.0186942 
   29700    288.01473     102.4123    122835.68   -35203.238    3583.4508   -38786.688    456.96023    1.0167525 
   29750    291.25283    -89.61723     122605.5    -35163.32    3623.7389   -38787.059    457.32438    1.0186614 
   29800    285.62279   -5.0952232    122665.33   -35186.054    3553.6905   -38739.745    458.47404    1.0181646 
   29850    285.56922    363.81245    122740.49   -35166.744     3553.024   -38719.768    459.78805    1.0175411 
   29900    288.00197   -337.53748    122939.46   -35134.186     3583.292   -38717.478    461.67873    1.0158943 
   29950    288.21801   -45.456167    122813.85   -35154.087      3585.98   -38740.067    461.83247    1.0169333 
   30000     284.2851   -137.03427    122918.81   -35179.798    3537.0472   -38716.845    462.82485    1.0160649 
   30050    284.99304    -137.7681    122736.73    -35161.11    3545.8552   -38706.965    463.60341    1.0175722 
   30100    290.28135     200.8353    122757.89   -35120.531    3611.6519   -38732.182    464.79874    1.0173969 
   30150     288.7099   -231.25919    123066.18   -35148.976    3592.1001   -38741.076    466.27188    1.0148482 
   30200    290.80851    52.123798    123263.04   -35131.464    3618.2108   -38749.675     467.4013    1.0132274 
   30250    291.06311   -58.528047       123155   -35136.941    3621.3784   -38758.319    468.05438    1.0141163 
   30300     289.7345    210.62997    123204.19   -35040.693     3604.848   -38645.541    469.36516    1.0137114 
   30350    291.43857   -51.372498    123123.62   -35035.978    3626.0498   -38662.028    469.81502    1.0143748 
   30400    285.90979    372.21655    123257.79   -35065.645    3557.2614   -38622.906    471.35689    1.0132706 
   30450    287.44044   -160.13192    123263.52   -35085.643    3576.3056   -38661.949     472.5879    1.0132235 
   30500    287.86081    80.599786    123243.23   -35073.885    3581.5357   -38655.421    473.35314    1.0133903 
   30550    290.69115   -204.53715    123375.56   -35047.776    3616.7505   -38664.526    474.65865    1.0123033 
   30600    284.71306    56.859767    123279.52   -35087.409    3542.3717   -38629.781    474.30089     1.013092 
   30650    286.86372    342.19593    123058.07   -35051.741    3569.1301   -38620.871    474.50755    1.0149151 
   30700     288.9497   -71.010657    122920.45   -35037.481    3595.0836   -38632.565    475.41317    1.0160513 
   30750    286.99745   -179.22741    122940.82   -35019.537    3570.7939   -38590.331    476.44472     1.015883 
   30800    296.29276    151.60143    122932.34   -34982.637    3686.4453   -38669.082    477.45005    1.0159531 
   30850    291.53525   -437.67266    122683.45   -35129.797    3627.2527    -38757.05    477.34911    1.0180142 
   30900    285.79158   -207.62849    122557.54   -35135.585    3555.7906   -38691.376    477.55368    1.0190601 
   30950    291.51506   -84.080451    122483.97   -35159.944    3627.0016   -38786.946    478.27354    1.0196722 
   31000    283.64038   -321.04341    122265.75   -35199.725    3529.0255   -38728.751    478.51416     1.021492 
   31050    284.49351    141.64165     122267.6   -35220.014    3539.6401   -38759.654    478.96443    1.0214766 
   31100     286.0563    35.538506    122325.82   -35216.723    3559.0842   -38775.807    479.81607    1.0209905 
   31150    287.40882   -266.29372    122208.92   -35220.746    3575.9121   -38796.658    479.40889    1.0219671 
   31200    285.04612   -315.99133    122040.16   -35237.366    3546.5156   -38783.882    479.58008    1.0233802 
   31250    289.84668    227.59795    122021.44   -35234.032    3606.2438   -38840.276    480.12888    1.0235373 
   31300     297.0717   -124.21791    122014.86   -35141.558    3696.1367   -38837.695    481.17185    1.0235925 
   31350    290.80773    8.2232603    122069.57   -35116.197     3618.201   -38734.398    482.33706    1.0231337 
   31400    285.40224    160.90464    122116.32   -35201.502    3550.9464   -38752.449    483.75594    1.0227421 
   31450    292.48597    81.101157    121962.39   -35199.428    3639.0815   -38838.509    484.01334    1.0240328 
   31500    287.77011    355.96647    121938.05   -35123.335    3580.4072   -38703.742    484.64913    1.0242373 
   31550    290.23177    228.28027     122034.8   -35161.509     3611.035   -38772.544     485.6111    1.0234252 
   31600     285.0257    -126.6741    122165.71   -35156.549    3546.2615    -38702.81    487.04501    1.0223285 
   31650    291.50133    -265.8115    122135.41   -35155.973    3626.8308   -38782.804    487.82722    1.0225821 
   31700    291.09291    145.17698    122141.87   -35178.568    3621.7492   -38800.318    488.30892     1.022528 
   31750    289.63749   -280.85712    122495.35   -35141.356     3603.641   -38744.997    489.78071    1.0195774 
   31800    294.31971    209.53483    122741.15   -35099.585    3661.8967   -38761.482    491.24703    1.0175356 
   31850    292.79982    284.27316    122703.62   -35078.211    3642.9864   -38721.197    491.80581    1.0178468 
   31900    294.69707   -226.15452    122873.67   -35102.144    3666.5919   -38768.736    493.41563    1.0164382 
   31950    292.56757   -141.72566    122740.39    -35069.05    3640.0968   -38709.147    493.83162    1.0175419 
   32000    290.01731   -170.42285    122502.69   -35061.156    3608.3667   -38669.523    494.28472    1.0195164 
   32050    292.35105    -237.0313    122451.06   -35094.632    3637.4029   -38732.035    495.55083    1.0199462 
   32100    292.59607    99.397576    122281.84   -35080.412    3640.4514   -38720.863    496.27501    1.0213577 
   32150      290.132    90.388685    122386.93   -35098.985    3609.7937   -38708.779    497.49523    1.0204806 
   32200       290.79    122.82047    122482.99   -35036.206    3617.9805   -38654.186    498.55129    1.0196803 
   32250    288.34293  -0.98610932    122624.67   -35037.586    3587.5343    -38625.12    500.15378    1.0185022 
   32300    289.98455     147.8597    122908.94   -35039.844    3607.9591   -38647.803    501.27814    1.0161465 
   32350    289.00736    237.54501     123066.5   -35048.264     3595.801   -38644.065    502.82316    1.0148455 
   32400     291.5448    393.22311    123067.58   -35082.114    3627.3715   -38709.486    504.16681    1.0148367 
   32450    284.96268    81.360376    123092.14   -35154.816    3545.4775   -38700.294    505.20776    1.0146342 
   32500    289.84815    22.811501    122859.42   -35090.369     3606.262   -38696.631    505.80028     1.016556 
   32550    290.28585    346.16656    123047.21   -35039.817    3611.7079   -38651.525    507.23699    1.0150046 
   32600     292.1884   -122.64281    123042.69   -35083.369    3635.3792   -38718.749    508.03598    1.0150419 
   32650    290.31587    11.204028    122931.99   -35082.413    3612.0814   -38694.494    507.90977     1.015956 
   32700    281.30066    222.82443    123002.44   -35151.752     3499.915   -38651.667    508.59086    1.0153741 
   32750    288.72122     288.8274    123031.52   -35116.574    3592.2408   -38708.814    509.53655    1.0151341 
   32800    285.05715   -358.70973    122935.89   -35193.876    3546.6529   -38740.529    509.78606    1.0159238 
   32850    284.72809    217.01935    122865.99   -35176.906    3542.5588   -38719.465    510.44594    1.0165017 
   32900    283.21471    155.68661    123016.48   -35187.633    3523.7295   -38711.362    511.70542    1.0152582 
   32950    283.78888    -105.2268     122896.3   -35259.391    3530.8732   -38790.264    512.26936     1.016251 
   33000    283.12374    336.34631    122894.47   -35209.674    3522.5976   -38732.271    513.47503    1.0162662 
   33050     287.0614    13.377782    122777.83   -35153.998    3571.5896   -38725.588    514.82992    1.0172316 
   33100    287.82954   -55.763826    122846.18   -35101.129    3581.1467   -38682.276    515.54263    1.0166656 
   33150    290.52411   -20.550419    122500.73   -35181.237    3614.6723    -38795.91    514.91114    1.0195326 
   33200    288.61689   -377.34022    122414.86   -35158.492    3590.9428   -38749.435    515.19582    1.0202478 
   33250    288.39564   -75.328033    122463.41   -35151.048      3588.19   -38739.238     515.5769    1.0198433 
   33300    286.63806    37.817002    122467.24   -35150.905    3566.3225   -38717.228    516.73429    1.0198115 
   33350    287.98749     202.1862    122300.14   -35241.416    3583.1119   -38824.528    516.69972    1.0212048 
   33400    289.01143    117.27997    122293.29   -35170.248    3595.8516     -38766.1    517.26545     1.021262 
   33450     289.4792   -322.55016     122362.9   -35228.249    3601.6716    -38829.92    517.54618     1.020681 
   33500    295.73255    179.49509    122399.93   -35177.333    3679.4751   -38856.808    518.51575    1.0203722 
   33550    287.90879      232.617    122798.11   -35169.076    3582.1327   -38751.209    521.15238    1.0170636 
   33600    288.60177   -47.820684    122930.86   -35117.158    3590.7547   -38707.913    522.26369    1.0159653 
   33650    288.94816    165.72288    122908.65   -35121.076    3595.0645    -38716.14    522.78068    1.0161489 
   33700    285.64283   -237.77575     123093.1   -35158.696    3553.9398   -38712.636    523.78039    1.0146263 
   33750    287.41342     90.51822    123188.14   -35127.645    3575.9694   -38703.615    524.68059    1.0138435 
[...]
  192550    291.02582     1.385671    122505.06   -35122.216    3620.9145    -38743.13    3074.6539    1.0194966 
  192600    292.39723   -64.122793    122636.59   -35097.055    3637.9775   -38735.032    3077.1558    1.0184032 
  192650    287.91203    141.28178    122739.51   -35074.923     3582.173   -38657.096    3078.8781    1.0175492 
  192700     292.9642    76.951438    122765.95    -35054.67    3645.0316   -38699.701    3079.1086    1.0173301 
  192750     284.3532   -15.210271    122570.84   -35177.579    3537.8944   -38715.474    3076.9309    1.0189495 
  192800    287.16348   -62.159353    122536.89   -35171.284    3572.8596   -38744.143    3077.5384    1.0192317 
  192850    287.18066   -127.65782    122519.84   -35155.241    3573.0733   -38728.314    3077.2559    1.0193736 
  192900    291.54671   -30.530228    122687.74   -35144.649    3627.3953   -38772.044    3079.8136    1.0179786 
  192950    284.49705   -98.488128     122775.2   -35155.102    3539.6842   -38694.786    3082.2387    1.0172534 
  193000    286.08318   -36.170937    122656.71   -35132.053    3559.4187   -38691.472    3081.2897    1.0182361 
  193050    288.57028    12.805925    122500.42    -35109.74    3590.3628   -38700.102    3078.2606    1.0195352 
  193100    284.58635    266.77079    122563.21    -35195.53    3540.7952   -38736.325    3079.9549    1.0190129 
  193150    286.43358    265.93652    122496.19   -35211.105    3563.7783   -38774.883    3078.6338    1.0195704 
  193200    289.99445    24.062332    122541.32   -35184.737    3608.0823   -38792.819    3079.1395    1.0191949 
  193250     288.4082    46.625387    122341.14   -35178.969    3588.3463   -38767.315    3075.9849    1.0208626 
  193300    288.68893    239.09563    122375.97   -35168.502    3591.8391   -38760.341    3076.6248     1.020572 
  193350    287.94991    272.24653    122534.68   -35139.595    3582.6444    -38722.24    3080.2194    1.0192502 
  193400    283.89423     197.5164    122924.07   -35153.463    3532.1839   -38685.647      3087.37    1.0160214 
  193450    289.33175    270.24944    122881.83   -35143.782     3599.837   -38743.619    3088.6109    1.0163707 
  193500    285.23447   -277.97405    122925.16   -35186.558     3548.859   -38735.417    3089.5331    1.0160124 
  193550    288.90621   -63.218384    122719.18   -35187.767    3594.5425    -38782.31    3087.5927    1.0177178 
  193600    293.63098    360.62555    122792.88    -35181.36    3653.3277   -38834.688    3088.9165     1.017107 
  193650    287.32371   -172.97895     122772.3   -35167.619    3574.8532   -38742.472     3090.127    1.0172774 
  193700    291.56963    416.43367    122673.47   -35160.874    3627.6806   -38788.555    3088.6373     1.018097 
  193750    288.02149    139.28508    122802.18   -35182.745    3583.5349    -38766.28    3091.7261    1.0170299 
  193800    290.95017   -52.912341    122767.61   -35150.888    3619.9732   -38770.861    3090.0671    1.0173163 
  193850    286.05483   -9.7814791    122926.95   -35152.419    3559.0659   -38711.485    3092.9649    1.0159977 
  193900    289.22474   -118.94319    123009.35   -35054.317    3598.5056   -38652.823    3095.8687    1.0153171 
  193950    291.10446   -182.83316     122921.4   -35030.457    3621.8929    -38652.35    3094.5543    1.0160436 
  194000    289.37424   -60.935997     122703.5       -35098    3600.3657   -38698.365    3092.9864    1.0178479 
  194050    289.14234     307.3514    122547.41   -35106.769    3597.4804    -38704.25    3091.1593    1.0191443 
  194100    287.55472    -404.5901    122475.28   -35080.827    3577.7273   -38658.554    3090.3108    1.0197445 
  194150    295.70146   -37.234594    122339.13   -35085.108    3679.0884   -38764.196    3086.9207    1.0208794 
  194200    286.54268    157.46171    122553.18   -35166.361    3565.1357   -38731.497    3090.0529    1.0190963 
  194250    290.72679   -337.83932    122402.62   -35155.421     3617.194   -38772.615    3087.6693    1.0203498 
  194300    285.16067   -346.84472    122273.94   -35206.599    3547.9409    -38754.54    3087.1432    1.0214237 
  194350    290.11739    48.319419    122201.88   -35154.775    3609.6119   -38764.387    3086.8899    1.0220259 
  194400    287.93653    187.03488    121983.52   -35164.955    3582.4779   -38747.433    3085.1633    1.0238555 
  194450    286.79361   -131.29127    122191.68    -35147.03    3568.2578   -38715.288    3090.0482    1.0221112 
  194500    287.85277    192.17028    122128.67   -35196.241    3581.4357   -38777.677    3089.3197    1.0226386 
  194550    282.56084   -164.33517    122065.02    -35244.68     3515.594   -38760.274    3088.1391    1.0231719 
  194600    288.11778   -222.46968    122169.14   -35162.681     3584.733   -38747.414    3090.9312    1.0222999 
  194650    286.47088   -66.771442    122220.08   -35140.567    3564.2423   -38704.809    3091.9397    1.0218737 
  194700    288.49475   -169.60477    121957.64    -35161.01    3589.4231   -38750.433    3087.4577    1.0240727 
  194750    286.04568   -312.86706    121969.69   -35197.796    3558.9521   -38756.748    3088.1795    1.0239715 
  194800    293.01155   -5.4424952    121934.92   -35124.853    3645.6207   -38770.474    3087.1657    1.0242635 
  194850    284.92506    226.96953    122031.48   -35145.106    3545.0094   -38690.115    3088.3404     1.023453 
  194900    291.57616    61.039613    122285.01   -35046.978    3627.7618    -38674.74    3094.5756    1.0213311 
  194950     293.3246    285.25443    122428.71    -35075.91    3649.5157   -38725.426    3098.3534    1.0201323 
  195000    290.08709    243.55772    122667.19   -35127.048    3609.2349   -38736.283    3102.6742    1.0181491 
  195050    286.97558    395.53053     122911.3   -35195.107    3570.5218   -38765.629      3107.83     1.016127 
  195100    286.29286    35.863374     123206.4   -35127.662    3562.0274   -38689.689    3113.9959    1.0136932 
  195150    288.06107    146.18663    123243.32   -35149.868    3584.0273   -38733.896    3114.7003    1.0133895 
  195200    285.79073    -31.38034    123356.23   -35150.384      3555.78   -38706.164    3117.2498     1.012462 
  195250     287.6414    212.37549    123262.27   -35170.133    3578.8058   -38748.939    3116.5667    1.0132337 
  195300    290.28452     -207.765    123180.25   -35144.393    3611.6913   -38756.084     3115.701    1.0139084 
  195350     289.6679   -222.98148    123091.98   -35149.041    3604.0193    -38753.06    3113.8019    1.0146355 
  195400    289.90543     -106.014    123087.59   -35114.491    3606.9747   -38721.466    3113.6195    1.0146716 
  195450    283.21439   -230.19923    122981.95   -35196.674    3523.7255   -38720.399    3112.8226    1.0155433 
  195500    285.44575    22.783174    122754.46   -35163.477    3551.4878   -38714.965    3110.1243    1.0174253 
  195550    291.25682    183.60313    122579.97   -35076.626    3623.7886   -38700.414    3109.1902    1.0188735 
  195600    288.64121    287.31968    122896.29   -35073.643    3591.2454   -38664.888     3116.064    1.0162511 
  195650    290.87519    104.46949    122978.76   -35001.708    3619.0404   -38620.748    3118.2208    1.0155696 
  195700     297.4831   -281.62075     122940.4     -34988.2    3701.2554   -38689.455    3118.4423    1.0158865 
  195750    290.40574    89.533411    123229.73    -34981.64    3613.1996    -38594.84    3123.4613    1.0135013 
  195800    285.18861    59.073993    123463.65   -35017.955    3548.2885   -38566.243    3128.3385    1.0115811 
  195850    285.56131   -73.163084     123436.7   -35042.747    3552.9256   -38595.673     3130.307    1.0118019 
  195900    290.64362   -85.271007    123320.07   -35039.299    3616.1591   -38655.458    3129.0186    1.0127588 
  195950    289.96074   -34.602967    123153.49   -35090.028    3607.6629    -38697.69     3126.568    1.0141287 
  196000     288.8858   -10.886023     123212.6   -35094.392    3594.2886    -38688.68    3130.2224    1.0136422 
  196050    283.01283   -39.508535    123173.84    -35057.79    3521.2176   -38579.008     3130.522    1.0139612 
  196100    292.55238   -115.36817    122972.45   -35060.837    3639.9078   -38700.745    3128.1257    1.0156217 
  196150    297.39737   -64.824744    122886.26   -35039.957    3700.1887   -38740.146    3128.4512    1.0163341 
  196200    290.77127   -260.78265    122745.79   -35130.197    3617.7474   -38747.944    3127.6937    1.0174971 
  196250    285.62275    347.55776    122832.99   -35134.568      3553.69   -38688.258    3129.8786    1.0167748 
  196300    292.99585   -4.7156159    122870.53   -35112.785    3645.4253   -38758.211    3133.0821    1.0164641 
  196350    292.46518   -188.63459    122731.18   -35079.698    3638.8229   -38718.521    3130.6231    1.0176183 
  196400    291.72623    134.49169     122535.1    -35058.57    3629.6289   -38688.199    3128.6904    1.0192467 
  196450    295.28935   -139.53993    122483.41   -35084.629    3673.9609    -38758.59    3128.1583    1.0196768 
  196500    285.89468     -4.32468    122439.41   -35190.419    3557.0733   -38747.492    3130.1012    1.0200432 
  196550     289.9136    -40.01665     122354.2    -35157.14    3607.0764   -38764.216    3129.3407    1.0207536 
  196600    283.25205    81.033242     122393.7    -35177.56     3524.194   -38701.754    3131.5252    1.0204242 
  196650    286.82825   -54.417131    122333.92    -35168.25    3568.6887   -38736.939     3130.607    1.0209228 
  196700    287.05097    77.694954    122155.32   -35192.345    3571.4598   -38763.804    3127.5043    1.0224155 
  196750    293.44561    537.40837    122069.79   -35177.902    3651.0213   -38828.923    3127.4205    1.0231319 
  196800    286.79287     24.44703    122096.35   -35193.435    3568.2486   -38761.684    3129.1447    1.0229093 
  196850    285.05545   -94.665491    122209.06   -35191.363    3546.6318   -38737.995    3133.4863    1.0219659 
  196900    284.77865    151.53676    122217.31   -35204.582    3543.1878    -38747.77    3135.1399    1.0218969 
  196950    285.66949   -93.789943    122308.77   -35211.511    3554.2715   -38765.782    3136.7232    1.0211328 
  197000    284.54326    528.26535    122488.37   -35202.235    3540.2591   -38742.494    3141.1934    1.0196355 
  197050    286.78477    400.10764    122701.94   -35122.408    3568.1478   -38690.556    3145.1951    1.0178607 
  197100    288.07972   -306.66786    122677.93   -35140.326    3584.2594   -38724.586    3144.9225      1.01806 
  197150    284.15804   -126.52461    122625.06    -35171.11    3535.4663   -38706.576    3144.7215    1.0184989 
  197200    289.15539    188.61969    122674.85   -35108.163    3597.6428   -38705.806    3146.3512    1.0180855 
  197250    287.48779   -257.04124    122514.04   -35110.991    3576.8947   -38687.885    3145.8316    1.0194218 
  197300    282.47305   -108.56302    122570.71   -35141.472    3514.5018   -38655.973    3149.0346    1.0189505 
  197350    288.69374   0.46191547    122608.26   -35167.009     3591.899   -38758.909    3150.8307    1.0186385 
  197400    288.71517   -235.95241    122628.39   -35126.105    3592.1656   -38718.271    3151.6993    1.0184712 
  197450    287.73752   -381.91428    122518.87   -35124.088    3580.0018    -38704.09    3151.2808    1.0193817 
  197500     286.1136   -221.84701    122418.89   -35206.594    3559.7971   -38766.391    3150.7557    1.0202142 
  197550    283.16775    422.15259    122339.91   -35133.696    3523.1452   -38656.841    3149.9296    1.0208728 
  197600    286.46525   -237.19341    122374.42   -35056.934    3564.1724   -38621.107    3152.4482    1.0205849 
  197650     293.1038    203.48603    122315.16   -35081.186    3646.7685   -38727.954    3152.1871    1.0210794 
  197700    291.84108   -22.929604    122316.57   -35151.502    3631.0579    -38782.56    3154.0573    1.0210676 
  197750    287.18081    180.29762    122493.25    -35127.06    3573.0752   -38700.136    3158.2191    1.0195949 
  197800    285.50146    129.06745    122795.95   -35054.289    3552.1809    -38606.47    3164.0251    1.0170815 
  197850     294.7822    281.22682    123039.65   -35052.727    3667.6509   -38720.378    3169.5586     1.015067 
  197900    288.85134   -83.276186    123000.87   -35107.483    3593.8598   -38701.343    3170.0355     1.015387 
  197950    294.55164    286.94731    122898.57   -35106.821    3664.7824   -38771.603    3167.9557    1.0162323 
  198000     287.4545   -86.374113    123213.74   -35200.534    3576.4805   -38777.014    3174.6023    1.0136328 
  198050    287.27947    172.38182    123222.37   -35206.605    3574.3028   -38780.908    3175.1376    1.0135618 
  198100    280.39556     85.90369    123281.94    -35228.66    3488.6538   -38717.314    3176.8449    1.0130721 
  198150    280.06428     155.2934    123242.51   -35243.118    3484.5321    -38727.65    3176.8992    1.0133962 
  198200    291.65181    87.554192    123109.96   -35122.568     3628.703   -38751.271    3174.8301    1.0144873 
  198250    289.77567   -18.244656    123259.85   -35094.968    3605.3602   -38700.328    3177.8112    1.0132536 
  198300    289.83291   -159.30727    123136.33    -35122.67    3606.0724   -38728.742    3175.4369      1.01427 
  198350     289.2427   -435.78883     122752.6   -35162.939    3598.7291   -38761.668    3170.3267    1.0174407 
  198400    291.07635    19.367433    122839.11    -35115.29    3621.5432   -38736.833    3171.9283    1.0167242 
  198450    287.18749    92.253848    122835.02   -35137.853    3573.1583   -38711.011    3172.6513     1.016758 
  198500     291.9894   -71.653956    123024.37   -35037.661    3632.9033   -38670.565    3176.0346    1.0151931 
  198550     288.9668    220.16202    123018.19   -35027.589    3595.2963   -38622.885    3176.4044    1.0152441 
  198600    289.12008    228.35791    123369.05   -35010.642    3597.2034   -38607.845     3183.537    1.0123567 
  198650    290.48396    375.87762    123447.77   -35035.534    3614.1728   -38649.706    3184.0932    1.0117112 
  198700    295.38467    18.664245    123314.05   -34948.039    3675.1469   -38623.186    3182.7509    1.0128083 
  198750    295.98164    121.42583    123164.41   -34929.391    3682.5743   -38611.966    3181.5247    1.0140388 
  198800    292.75554    275.03958    123248.12   -34967.189    3642.4355   -38609.624    3183.1562    1.0133501 
  198850    289.69258    210.40604    123649.98   -34997.439    3604.3264   -38601.765    3190.9789    1.0100567 
  198900    289.97157     17.70179     123614.6    -35015.85    3607.7977   -38623.648    3191.2923    1.0103458 
  198950     288.2863   -99.253437    123606.29   -35072.747    3586.8296   -38659.577    3190.3523    1.0104137 
  199000    288.17245    5.9129697    123686.05   -35092.761    3585.4132   -38678.174    3192.4843    1.0097621 
  199050    284.50737    353.26737    123923.33   -35078.217    3539.8126   -38618.029    3196.7517    1.0078287 
  199100    287.63002    -249.4211    123720.06    -35056.44    3578.6643   -38635.104    3192.3605    1.0094846 
  199150    290.37909   -327.14022    123769.75   -35045.443    3612.8679   -38658.311    3195.2453    1.0090793 
  199200    291.42489   -141.13297    123641.44    -35119.69    3625.8796    -38745.57    3194.9918    1.0101265 
  199250    294.71617   -388.59704    123456.23   -35057.652    3666.8294   -38724.482    3191.2691    1.0116419 
  199300    287.09953     185.8357    123697.28   -35089.791     3572.064   -38661.855     3196.998    1.0096704 
  199350    289.65586    121.35967    123635.12   -35100.631    3603.8696   -38704.501    3197.1192    1.0101781 
  199400    288.27688    307.80054    123571.28   -35122.356    3586.7125   -38709.068     3196.457       1.0107 
  199450    285.67176    168.52338     123577.8   -35108.901    3554.2998     -38663.2    3197.5093    1.0106467 
  199500    286.39459    193.67981    123663.53   -35105.614    3563.2931   -38668.907    3200.4465     1.009946 
  199550    288.77599   -108.39513    123650.38   -35043.213    3592.9223   -38636.135    3202.3422    1.0100534 
  199600    287.56571   -92.712738    123362.23   -35011.704    3577.8642   -38589.568    3198.1375    1.0124127 
  199650    296.03156    140.57702     123576.4   -34980.294    3683.1954    -38663.49    3202.1616    1.0106581 
  199700    294.09703    259.88451    123628.06   -34939.887    3659.1262   -38599.013    3203.2779    1.0102358 
  199750    294.25128    30.206111    123772.93   -34914.947    3661.0453   -38575.992    3206.5229    1.0090534 
  199800    295.28883    465.30338    123749.39   -34876.414    3673.9544   -38550.368    3208.5363    1.0092453 
  199850    288.17974   -42.552903     123783.4   -34970.734    3585.5039   -38556.238    3210.4293     1.008968 
  199900    287.79399   -112.21016    123507.99   -35008.691    3580.7044   -38589.396    3205.9872    1.0112179 
  199950    284.89673    12.025034    123262.72   -35070.367    3544.6569   -38615.024    3203.2535      1.01323 
  200000    289.91312   -58.865392     122810.3   -35090.139    3607.0703   -38697.209    3196.9593    1.0169627 
  200050    290.32424    77.812004    122649.25   -35080.304    3612.1854    -38692.49    3194.8569     1.018298 
  200100    289.38764    56.673293    122337.83    -35115.74    3600.5324   -38716.272    3191.0959    1.0208902 
  200150    290.24596   -72.555788    122348.76    -35151.58    3611.2115   -38762.791    3193.4782     1.020799 
  200200    286.81872    187.59308     122608.8   -35144.948    3568.5701   -38713.518     3199.277     1.018634 
  200250    289.61491    106.44982     122488.1    -35123.52    3603.3601    -38726.88    3197.1637    1.0196378 
  200300    287.12994   -79.332315    122659.98   -35122.253    3572.4424   -38694.695    3201.1621     1.018209 
  200350    296.76462    -18.41602    122512.26   -35079.862    3692.3161   -38772.179    3199.6581    1.0194367 
  200400    287.23693    127.36521    122669.14   -35086.744    3573.7735   -38660.518    3202.1334     1.018133 
  200450    290.62761    57.172408    122376.17   -35125.047      3615.96   -38741.007    3198.5848    1.0205704 
  200500    286.14126    263.00406    122400.33   -35122.359    3560.1413   -38682.501    3199.5449    1.0203689 
  200550    287.40459    175.16402    122614.23   -35139.253    3575.8595   -38715.113    3204.4824    1.0185889 
  200599     293.8241   -321.83803    122519.11   -35097.721    3655.7304   -38753.452    3203.0534    1.0193797 
Loop time of 298.269 on 12 procs for 200000 steps with 4175 atoms

Performance: 289.672 ns/day, 0.083 hours/ns, 670.537 timesteps/s
99.7% CPU use with 12 MPI tasks x no OpenMP threads

MPI task timing breakdown:
Section |  min time  |  avg time  |  max time  |%varavg| %total
---------------------------------------------------------------
Pair    | 257.26     | 260.48     | 264.88     |  12.5 | 87.33
Neigh   | 8.133      | 8.2411     | 8.5188     |   3.9 |  2.76
Comm    | 19.006     | 23.452     | 26.721     |  43.0 |  7.86
Output  | 0.36422    | 0.38662    | 0.63031    |  11.8 |  0.13
Modify  | 4.0073     | 4.4172     | 4.618      |   9.4 |  1.48
Other   |            | 1.288      |            |       |  0.43

Nlocal:    347.917 ave 359 max 340 min
Histogram: 2 2 2 0 0 2 1 2 0 1
Nghost:    975.167 ave 993 max 962 min
Histogram: 2 1 3 0 1 2 1 0 0 2
Neighs:    0 ave 0 max 0 min
Histogram: 12 0 0 0 0 0 0 0 0 0
FullNghs:  10356.2 ave 10878 max 9994 min
Histogram: 1 3 2 0 1 2 1 0 1 1

Total # of neighbors = 124274
Ave neighs/atom = 29.7662
Neighbor list builds = 14379
Dangerous builds = 0

undump              1
unfix               2
unfix               3
unfix               4


################################################
#######         Run Simulation         #########
################################################

reset_timestep      0
log                 log.run_${NAME}
log                 log.run_liquid_289K_1atm_ML
