
# Create simulation box of size 50 x 50 x 50 Angstrom
#
lattice	            sc 1
Lattice spacing in x,y,z = 1 1 1
region 	            all block 0 50 0 50 0 50 units box
create_box          1 all
Created orthogonal box = (0 0 0) to (50 50 50)
  11 by 1 by 1 MPI processor grid

# fill box with 4175 randomly distributed atoms
#
create_atoms        1 random 4175 63782 all
Created 4175 atoms
  create_atoms CPU = 0.000408649 secs
mass                1 18.015

# Define potential
#
pair_style          sw
pair_coeff          * * ML_mW.sw mW
Reading potential file ML_mW.sw with DATE: 2019-02-27

# Run minimization
#
minimize            1.0e-8 1.0e-8 10000 1000
WARNING: Using 'neigh_modify every 1 delay 0 check yes' setting during minimization (../min.cpp:168)
Neighbor list info ...
  update every 1 steps, delay 0 steps, check yes
  max neighbors/atom: 2000, page size: 100000
  master list distance cutoff = 6.00329
  ghost atom cutoff = 6.00329
  binsize = 3.00165, bins = 17 17 17
  1 neighbor lists, perpetual/occasional/extra = 1 0 0
  (1) pair sw, perpetual
      attributes: full, newton on
      pair build: full/bin/atomonly
      stencil: full/bin/3d
      bin: standard
Per MPI rank memory allocation (min/avg/max) = 4.255 | 4.257 | 4.262 Mbytes
Step Temp E_pair E_mol TotEng Press 
       0            0      7789167            0      7789167      5896198 
     641            0    -45216.36            0    -45216.36   -171.80495 
Loop time of 1.24957 on 11 procs for 641 steps with 4175 atoms

99.5% CPU use with 11 MPI tasks x no OpenMP threads

Minimization stats:
  Stopping criterion = max force evaluations
  Energy initial, next-to-last, final = 
         7789166.98089      -45216.033327     -45216.3604649
  Force two-norm initial, final = 2.01919e+08 4.45948
  Force max component initial, final = 1.09487e+08 1.20936
  Final line search alpha, max atom move = 0.0524375 0.0634159
  Iterations, force evaluations = 641 1001

MPI task timing breakdown:
Section |  min time  |  avg time  |  max time  |%varavg| %total
---------------------------------------------------------------
Pair    | 0.79787    | 1.0021     | 1.1813     |   9.9 | 80.19
Neigh   | 0.013049   | 0.01697    | 0.018369   |   1.0 |  1.36
Comm    | 0.026849   | 0.13847    | 0.23457    |  17.9 | 11.08
Output  | 0          | 0          | 0          |   0.0 |  0.00
Modify  | 0          | 0          | 0          |   0.0 |  0.00
Other   |            | 0.09206    |            |       |  7.37

Nlocal:    379.545 ave 401 max 364 min
Histogram: 1 0 4 1 2 1 1 0 0 1
Nghost:    1750.82 ave 1781 max 1717 min
Histogram: 2 0 0 1 0 3 2 1 0 2
Neighs:    0 ave 0 max 0 min
Histogram: 11 0 0 0 0 0 0 0 0 0
FullNghs:  10891.5 ave 11755 max 10293 min
Histogram: 1 0 1 6 0 1 1 0 0 1

Total # of neighbors = 119806
Ave neighs/atom = 28.696
Neighbor list builds = 27
Dangerous builds = 0

# Add velocity/set timestep
#
velocity            all create ${TEMP} 120598 rot yes dist gaussian
velocity            all create 289 120598 rot yes dist gaussian
timestep            5.0

# Define output
#
compute	            1 all msd
thermo	            100
thermo_style        custom step temp press vol etotal ke pe c_1[4] density

# Neighbor lists
#
neigh_modify        delay 0 every 1 check yes

# Set fixes
#
fix                 1 all momentum 10 linear 1 1 1 rescale
fix                 2 all nve
fix                 3 all temp/csvr ${TEMP} ${TEMP} 500.0 928347
fix                 3 all temp/csvr 289 ${TEMP} 500.0 928347
fix                 3 all temp/csvr 289 289 500.0 928347
fix                 4 all press/berendsen iso ${PRES} ${PRES} 1000.0 modulus 20000
fix                 4 all press/berendsen iso 1 ${PRES} 1000.0 modulus 20000
fix                 4 all press/berendsen iso 1 1 1000.0 modulus 20000

# Run 0.5 ns equilibration
#
dump                1 all custom 1000 eq.${NAME}.dump id type x y z vx vy vz
dump                1 all custom 1000 eq.liquid_289K_1atm_ML.dump id type x y z vx vy vz
run                 100000
Per MPI rank memory allocation (min/avg/max) = 3.505 | 3.507 | 3.512 Mbytes
Step Temp Press Volume TotEng KinEng PotEng c_1[4] Density 
     641          289    1143.1396       125000   -41620.651    3595.7094    -45216.36 1.5881145e-33   0.99914793 
     700    174.73991    4.7779194    125681.71   -40637.693    2174.0967    -42811.79   0.30908496   0.99372843 
     800    220.48564   -106.07042    125929.78   -39530.959    2743.2606    -42274.22   0.85474005   0.99177091 
     900    243.73395   -178.48519    126039.16   -38839.714    3032.5137   -41872.228     1.515531   0.99091025 
    1000    263.32174   -121.83603    126002.81   -38343.028     3276.223   -41619.251    2.2419886    0.9911961 
    1100    269.89315   -132.58867     125736.1    -38039.73    3357.9839   -41397.714    3.1567285    0.9932986 
    1200    271.27244    176.99742    125712.33   -37990.393    3375.1449   -41365.538     4.019176   0.99348641 
    1300    271.77745   -87.888188    125744.22   -37878.663    3381.4281   -41260.091    5.0874376   0.99323446 
    1400    273.28347   -61.355087    125418.58   -37780.785    3400.1659   -41180.951     6.061529   0.99581328 
    1500    283.06167   -144.63238    125568.04   -37649.959    3521.8253   -41171.784    7.0869239   0.99462803 
    1600    285.83078    110.03162    125611.24    -37477.94    3556.2784   -41034.218    8.1342911   0.99428592 
    1700    285.54129    76.296662    125768.22   -37442.635    3552.6764   -40995.311    9.2146394   0.99304495 
    1800    283.84569   -64.219681    125357.49   -37530.859      3531.58   -41062.439    10.292116   0.99629863 
    1900    275.70684    156.11286    125370.48   -37504.992    3430.3172   -40935.309    11.481158   0.99619536 
    2000     286.0327   -227.88727    125483.04   -37409.489    3558.7906   -40968.279    12.541693   0.99530175 
    2100    286.44406    96.198292    125694.49    -37267.49    3563.9086   -40831.398    13.799997   0.99362739 
    2200     288.1163   -29.700477    125656.75   -37306.238    3584.7145   -40890.952    15.039215    0.9939258 
    2300    287.95498    15.245699    125488.19   -37257.051    3582.7074   -40839.758    16.064076    0.9952609 
    2400    292.32758    157.36233    125251.02    -37244.08    3637.1108   -40881.191    17.269509   0.99714548 
    2500    289.53803   -339.68417    125324.12   -37189.121    3602.4036   -40791.524    18.515291   0.99656384 
    2600    292.35554    -43.02057    125106.16   -37139.664    3637.4587   -40777.122    19.881849   0.99830008 
    2700    294.21068    200.43734    125141.48   -37142.953    3660.5402   -40803.494    21.311596   0.99801834 
    2800    292.72798    54.826075    125124.84   -37132.927    3642.0925    -40775.02    22.943723   0.99815107 
    2900    285.89379     346.4869    125306.21   -37175.984    3557.0623   -40733.047    24.516817   0.99670635 
    3000    287.69347   -318.05691    125062.35   -37208.901    3579.4537   -40788.354    25.929752   0.99864984 
    3100    294.65742    325.12232    124777.13   -37141.673    3666.0985   -40807.772    27.069116    1.0009326 
    3200    291.85022    214.37329    124805.47     -37244.6    3631.1716   -40875.771    28.094845    1.0007053 
    3300    288.59987    41.160134    124773.95   -37236.178    3590.7311   -40826.909    29.153557    1.0009581 
    3400    285.27269    42.874677    124744.99   -37275.848    3549.3347   -40825.182    30.003933    1.0011905 
    3500     289.7995    136.57659    124579.95   -37298.407    3605.6567   -40904.064    30.997153    1.0025168 
    3600    285.03415    89.721953    124949.96   -37360.343    3546.3667    -40906.71    32.172614   0.99954808 
    3700    284.09342   -32.851408    125062.67   -37403.059    3534.6622   -40937.721    33.255807   0.99864728 
    3800    286.52617   -205.27626    125057.79   -37363.319    3564.9303    -40928.25    34.357401   0.99868625 
    3900    285.91462   -214.12066    124666.73   -37371.771    3557.3215   -40929.092    35.240582    1.0018189 
    4000     286.0304    13.630791     124669.2   -37368.285    3558.7619   -40927.047    36.389363    1.0017991 
    4100    288.03361    173.94444    124601.49   -37354.386    3583.6857   -40938.071    37.386005    1.0023434 
    4200    285.86321    240.90612    125317.67   -37347.218    3556.6818     -40903.9    38.764324   0.99661516 
    4300    287.76462   -69.972829    125457.64   -37342.544     3580.339   -40922.882    40.180103   0.99550331 
    4400    288.41308   -270.86918    125078.18   -37364.976     3588.407   -40953.383    41.257519    0.9985234 
    4500    283.78535   -38.166184    124998.89   -37334.129    3530.8293   -40864.958    42.378487   0.99915684 
    4600    281.72474   -253.11154    124977.55   -37390.582    3505.1914   -40895.773    43.360378   0.99932739 
    4700    284.16026   -212.77975    124826.11   -37285.398    3535.4938   -40820.892    44.325345    1.0005398 
    4800    281.23127    103.75763    124640.66   -37287.993    3499.0516   -40787.044    45.596014    1.0020285 
    4900      294.612   -6.3202469    124618.86   -37125.665    3665.5334   -40791.198    46.455258    1.0022038 
    5000    297.48957   -181.37011     125024.8   -37079.188    3701.3358   -40780.523    47.657445    0.9989497 
    5100    289.86576   -61.441874    125096.03   -37169.936    3606.4811   -40776.417     48.99105   0.99838092 
    5200    284.26102   -236.07253    124770.48   -37271.764    3536.7475   -40808.511    50.226129    1.0009859 
    5300    288.86264   -116.59066    124734.65   -37190.077    3594.0004   -40784.078    51.289471    1.0012735 
    5400    293.95201    242.54006    124798.78   -37232.046    3657.3218   -40889.368    52.594512    1.0007589 
    5500    284.89365   -7.8872896    124958.25   -37255.731    3544.6186   -40800.349    53.739129   0.99948177 
    5600     289.5052   -99.394401    124885.49   -37297.908     3601.995   -40899.903    54.745084    1.0000641 
    5700    288.78388    183.49808    124871.45   -37277.425    3593.0205   -40870.445     56.21221    1.0001765 
    5800      286.865    197.76379     125005.4   -37307.421     3569.146   -40876.567    57.830591   0.99910477 
    5900    288.01472   -285.19447    124950.93   -37359.245    3583.4507   -40942.696    59.373105   0.99954031 
    6000    286.00847    205.19962    124988.94   -37350.141    3558.4891   -40908.631    60.263805   0.99923637 
    6100    286.18764   -29.690521    125100.36   -37294.586    3560.7183   -40855.305    61.804276   0.99834634 
    6200    284.64696    57.196451    125086.42   -37356.783    3541.5493   -40898.332    62.780553   0.99845761 
    6300    290.46844   -113.82766     125273.4   -37329.004    3613.9797   -40942.984    64.155956   0.99696735 
    6400    289.35758    69.793812    125358.38   -37299.166    3600.1584   -40899.325    65.388937   0.99629152 
    6500    292.60796   -327.80082    125301.49   -37207.477    3640.5994   -40848.076    66.325754   0.99674385 
    6600     287.2481   -210.87262    125276.93   -37282.298    3573.9125   -40856.211    67.320305   0.99693926 
    6700    289.21336   -143.66664    124841.18   -37363.895     3598.364   -40962.259    67.854798     1.000419 
    6800    291.93387   -40.130223    124877.65    -37283.64    3632.2124   -40915.853    69.030537    1.0001268 
    6900    295.09229   -39.403368    125218.43    -37240.86    3671.5091   -40912.369    70.137448   0.99740501 
    7000    292.38824    109.89028    125058.18   -37239.987    3637.8656   -40877.852    71.356667   0.99868307 
    7100     292.1419   -161.79996    125152.04   -37317.597    3634.8007   -40952.397    72.854172   0.99793408 
    7200    294.67222    85.815762    125319.31    -37312.75    3666.2826   -40979.032    74.828016   0.99660214 
    7300    286.31706    25.580864     125337.4   -37438.418    3562.3285   -41000.746    76.028356   0.99645831 
    7400    287.62924   -2.5851385     125599.6   -37468.609    3578.6546   -41047.264    77.470836   0.99437812 
    7500    285.44941    210.11936    125743.54   -37416.918    3551.5334   -40968.451    78.730449   0.99323983 
    7600     284.1828   -123.64688    125653.79   -37490.789    3535.7743   -41026.564    79.804952   0.99394924 
    7700    286.03068   -50.381738    125618.24   -37421.003    3558.7655   -40979.768    80.532536   0.99423052 
    7800    285.99946   -139.80714    125339.06   -37409.766     3558.377   -40968.143    81.481385   0.99644509 
    7900     287.4283   -82.101062    124975.73   -37417.913    3576.1545   -40994.068    82.645842   0.99934195 
    8000    287.21027    231.41879    125322.03   -37406.204    3573.4418   -40979.646    84.249601   0.99658053 
    8100     286.5223    305.82093    125427.54   -37489.189    3564.8821   -41054.071    85.537425   0.99574217 
    8200    284.72356   -90.125561    125641.16    -37518.13    3542.5024   -41060.632    86.670717   0.99404921 
    8300    284.38859   -187.34398    125654.22   -37499.868    3538.3347   -41038.203    87.545821   0.99394587 
    8400    292.74854    17.836483    125308.38   -37425.833    3642.3484   -41068.182    88.857327   0.99668902 
    8500    290.64267   -198.94158    125323.11   -37336.715    3616.1474   -40952.863    90.079616   0.99657192 
    8600    288.27569   -60.011566    125477.28   -37332.262    3586.6977    -40918.96    91.516745   0.99534742 
    8700    287.79933    35.953478    125157.67   -37319.548    3580.7708   -40900.319    92.478346   0.99788927 
    8800    285.95775   -108.80117    125435.18   -37353.165    3557.8581   -40911.023    93.457916   0.99568149 
    8900    278.67227    38.714516    125712.77   -37442.223    3467.2129   -40909.435    94.393434   0.99348297 
    9000    284.32971    110.48543    125269.74   -37411.768    3537.6022    -40949.37    95.331522   0.99699651 
    9100     283.9017    102.29578    125117.02   -37481.104    3532.2769   -41013.381    96.303912   0.99821348 
    9200    284.65264    91.109712    125326.06   -37316.627      3541.62   -40858.247     97.83883   0.99654848 
    9300    283.87593    199.28876    125564.97   -37364.674    3531.9562    -40896.63    98.496795   0.99465237 
    9400    286.11975    176.94294    125483.58   -37333.276    3559.8737   -40893.149    99.852242   0.99529749 
    9500    284.23585    139.90875    125557.36   -37331.419    3536.4343   -40867.853     100.9976   0.99471261 
    9600    284.32176    123.28487    125665.32   -37299.488    3537.5032   -40836.991      102.089   0.99385808 
    9700    291.31115    63.152189    125629.26   -37215.622    3624.4645   -40840.086    103.48153   0.99414331 
    9800    293.63253     26.10004    125559.47   -37274.439    3653.3469   -40927.786    104.70718    0.9946959 
    9900    286.93789    -389.8166    125476.96   -37385.634    3570.0528   -40955.687    105.89461   0.99535003 
   10000    280.43546   -59.265566    125100.52   -37440.798    3489.1503   -40929.948    107.10526   0.99834509 
   10100    284.93886    183.72747    125082.91   -37432.116    3545.1812   -40977.298     108.6175   0.99848569 
   10200     280.9856   -87.911252    125134.47   -37465.991     3495.995   -40961.986    109.83799   0.99807422 
   10300    286.84178    5.3143646    124933.63   -37467.273    3568.8571    -41036.13    110.76931   0.99967869 
   10400    283.50327   -168.17349    124967.96   -37386.315    3527.3197   -40913.634    111.63569   0.99940411 
   10500     281.9241    -79.49097    125078.47   -37303.335    3507.6718   -40811.007    113.23182   0.99852113 
   10600    287.40267    4.0335426    124938.65   -37233.898    3575.8356   -40809.734    114.37823   0.99963859 
   10700    291.95936   -238.67042     124770.1   -37200.825    3632.5294   -40833.355    116.35766    1.0009889 
   10800    289.40274    51.849041    124560.72    -37217.92    3600.7203    -40818.64     118.3108    1.0026716 
   10900    289.13331   -52.747843     124482.2   -37188.933     3597.368   -40786.301    119.94633     1.003304 
   11000    296.71919    82.162652    124399.78   -37180.001    3691.7508   -40871.752    121.43804    1.0039688 
   11100    288.91826    233.47779    124578.92   -37228.099    3594.6924   -40822.791    123.19134     1.002525 
   11200     291.6733    307.57447    124815.64   -37254.944    3628.9703   -40883.914    124.72059    1.0006237 
   11300    283.92536    344.84829    124962.17   -37282.355    3532.5713   -40814.926    126.48411   0.99945039 
   11400    288.54484   -91.853486    125162.78   -37309.764    3590.0464    -40899.81    128.19272   0.99784847 
   11500    290.58052   -145.23275    125335.36   -37307.272    3615.3742   -40922.646    129.14352    0.9964745 
   11600    286.60914    120.52841     125198.7   -37298.673    3565.9626   -40864.636    130.51674   0.99756221 
   11700    291.48557    149.14421    125187.95   -37240.783    3626.6346   -40867.417    131.28709   0.99764786 
   11800    290.56188   -36.687565    125137.09   -37250.645    3615.1422   -40865.788    132.80409   0.99805333 
   11900    288.17912   -79.932078    125140.77   -37317.771    3585.4961   -40903.267    134.16799   0.99802403 
   12000    289.28569    143.52553    124821.62   -37331.656    3599.2639    -40930.92    135.14764    1.0005758 
   12100      291.421    106.36311    124916.16   -37281.875    3625.8312   -40907.706    136.29805   0.99981853 
   12200    286.95242    227.76146    125107.99   -37263.007    3570.2336    -40833.24    137.98507   0.99828552 
   12300    289.77911    102.32706    125002.66   -37288.795     3605.403   -40894.198    139.32985   0.99912667 
   12400    286.67588    151.68151    125235.39   -37327.228     3566.793   -40894.021    140.76588   0.99726997 
   12500    290.30751   -7.8527749    125157.25   -37409.344    3611.9773   -41021.321    141.95363   0.99789255 
   12600    289.64149   -22.277991    125259.99   -37338.861    3603.6908   -40942.552    143.30235   0.99707409 
   12700    293.01236    83.901815    125448.86   -37311.096    3645.6309   -40956.727    144.99202   0.99557296 
   12800    294.91611   -258.78722    125332.98   -37226.347    3669.3171   -40895.664    145.52478   0.99649346 
   12900    289.73592   -40.443515    124974.76   -37343.487    3604.8657   -40948.353    145.87755   0.99934968 
   13000    290.63002    330.34389    125123.06   -37267.678      3615.99   -40883.668    146.51416   0.99816527 
   13100    286.47169    98.644971    125293.26   -37242.028    3564.2525   -40806.281    147.98764   0.99680934 
   13200    299.21978    201.38121    125005.24   -37179.587     3722.863    -40902.45     148.7277   0.99910602 
   13300    293.37239   -51.791122    125153.27   -37219.461    3650.1103   -40869.571    150.26869   0.99792433 
   13400    291.14942    -181.2788    125139.52    -37326.56    3622.4523   -40949.012    151.70261   0.99803392 
   13500    286.20021    13.926352    125122.52   -37372.479    3560.8748   -40933.354    152.80572   0.99816956 
   13600    285.94735    56.157831    125159.93    -37423.02    3557.7286   -40980.748    154.57633   0.99787118 
   13700    287.70945    124.75811    125215.42   -37362.173    3579.6525   -40941.826    156.16207   0.99742897 
   13800    289.53091   -39.312148    125323.27   -37294.569    3602.3149   -40896.884    157.75466   0.99657065 
   13900    291.82501    116.29448    125789.39   -37321.641     3630.858   -40952.499    159.58863   0.99287781 
   14000    287.31208    129.32057    125722.94   -37266.825    3574.7085   -40841.534    160.73954   0.99340255 
   14100    288.83212   -159.23099    125609.25   -37216.854    3593.6207   -40810.475    161.86877   0.99430169 
   14200    286.55693    177.74291    125348.01   -37305.747     3565.313    -40871.06    162.68847   0.99637392 
   14300    280.10538    -33.55686    125510.45   -37427.312    3485.0434   -40912.355    163.59644   0.99508437 
   14400    292.10836   -178.63611    125347.39   -37311.865    3634.3834   -40946.248    164.71766    0.9963789 
   14500    285.42526   -157.88339    125567.77   -37283.732    3551.2329   -40834.965    166.00674   0.99463013 
   14600    291.95869   -62.031014    125388.73   -37287.526    3632.5212   -40920.047    167.35665   0.99605037 
   14700    284.22568   -21.181885    125394.61    -37350.84    3536.3078   -40887.148    168.74374   0.99600363 
   14800     288.8579   -112.23228    125386.43   -37440.134    3593.9414   -41034.075    170.03992   0.99606861 
   14900    284.30877   -105.49524    125520.25   -37495.003    3537.3417   -41032.345    171.72582   0.99500673 
   15000    285.36092    11.884351    125535.58   -37493.977    3550.4323   -41044.409    172.74802   0.99488518 
   15100    285.06502    37.241368    125674.02   -37507.276    3546.7509   -41054.027    173.50765   0.99378929 
   15200    284.62254    104.27616    125646.96     -37447.5    3541.2455   -40988.746    174.67494   0.99400331 
   15300    280.18136    7.4563303    125528.86   -37470.394    3485.9887   -40956.383    175.56079   0.99493849 
   15400     284.5611   -222.53204    125596.25   -37432.278    3540.4811   -40972.759    176.54557   0.99440466 
   15500    288.08268    86.382917    125650.94   -37387.161    3584.2962   -40971.457    177.67412    0.9939718 
   15600    290.18416    38.573975    125725.18   -37320.907    3610.4426    -40931.35    178.61725   0.99338489 
   15700    295.32561    126.17222    125529.52   -37398.279    3674.4121   -41072.691    180.08243   0.99493321 
   15800    287.90165   -47.429905    125820.81   -37417.417    3582.0439   -40999.461    181.21915   0.99262986 
   15900    288.48784   -143.34003    125311.22   -37529.594    3589.3372   -41118.931    181.87105   0.99666647 
   16000    284.59893    134.21726    125202.97   -37478.493    3540.9518   -41019.445    182.70474   0.99752817 
   16100    290.97379    98.815871    125262.18   -37401.239    3620.2671   -41021.506    184.24139   0.99705664 
   16200    283.30829   -216.26525    125182.26   -37424.423    3524.8938   -40949.317    185.71018   0.99769323 
   16300    285.99351   -84.116424    124960.17   -37446.214     3558.303   -41004.517    186.47468    0.9994664 
   16400     290.3175    272.59453    125088.14   -37374.765    3612.1016   -40986.867    188.25431   0.99844393 
   16500    288.60214   -7.2295629    125134.54   -37341.433    3590.7593   -40932.192    189.02921   0.99807372 
   16600    286.76027    61.506053    125405.17   -37313.589     3567.843   -40881.432    190.12414   0.99591981 
   16700    288.57359   -129.96078    125279.12   -37318.921    3590.4041   -40909.325    190.88142   0.99692181 
   16800    285.60083    97.385672    125630.34   -37310.897    3553.4173   -40864.314    193.06312   0.99413482 
   16900    297.07057   -341.58172    125501.39   -37222.843    3696.1227   -40918.965    194.32354   0.99515623 
   17000    287.02525   -89.957919    125410.39   -37286.612    3571.1398   -40857.752    195.33103   0.99587837 
   17100    289.16724   -96.595508    125618.12   -37167.735    3597.7902   -40765.525    196.98903   0.99423153 
   17200     300.4342    36.675351    125585.34   -37187.723    3737.9727   -40925.696    198.28167   0.99449104 
   17300    288.53999    45.917134    125261.99   -37333.909    3589.9861   -40923.895    199.22117   0.99705814 
   17400    288.03276   -27.305284    125399.55   -37290.102    3583.6752   -40873.777    200.62291    0.9959644 
   17500    295.26304   -202.42078    125151.48   -37305.122    3673.6336   -40978.756    201.86355   0.99793858 
   17600    293.05431    174.66408    125219.78    -37293.02    3646.1528   -40939.173    203.61183   0.99739431 
   17700    288.60815    105.78219     125544.3   -37316.695     3590.834   -40907.529    205.18469   0.99481609 
   17800    291.35302    120.23282    125529.52   -37298.772    3624.9854   -40923.757    206.06094   0.99493326 
   17900    289.13881   -81.410232    125248.88   -37290.838    3597.4365   -40888.274    207.31081   0.99716252 
   18000    290.31787     10.34349    125150.37   -37197.912    3612.1062   -40810.018     208.3298   0.99794746 
   18100    285.47945   -54.156331    125142.34    -37311.64    3551.9071   -40863.547    210.28998   0.99801144 
   18200    289.72958    228.86383       125543    -37320.04    3604.7868   -40924.827    212.32521   0.99482644 
   18300    291.69514    240.78617    125551.72   -37262.388    3629.2421    -40891.63    213.42384   0.99475728 
   18400    289.50526     64.72929    125777.14   -37264.448    3601.9958   -40866.444    215.11528   0.99297451 
   18500    295.65794   -115.53276    125634.96   -37256.044    3678.5469   -40934.591    216.30022   0.99409824 
   18600    293.66668     -224.922    125381.79   -37305.395    3653.7719   -40959.167    216.93421    0.9961055 
   18700    292.43695    -130.8615    125431.64   -37274.822    3638.4716   -40913.294    218.84048   0.99570962 
   18800     295.3453    135.84041    125339.97   -37269.328     3674.657   -40943.985    219.28086   0.99643788 
   18900    293.63662     119.0578    125246.77   -37264.308    3653.3978   -40917.706    220.16405   0.99717936 
   19000    286.77951    327.42198    125030.59   -37277.311    3568.0823   -40845.394    221.38546   0.99890346 
   19100    291.99059    189.28707    125095.87   -37315.304     3632.918   -40948.222    222.90856   0.99838224 
   19200    290.95932    147.97914    125439.68   -37293.854    3620.0871   -40913.941    224.98675   0.99564584 
   19300     295.6462   -2.1486906    125520.71   -37220.176    3678.4008   -40898.577     226.4124   0.99500304 
   19400     293.8544    224.99251    125444.79    -37206.36    3656.1074   -40862.468     227.6779   0.99560528 
   19500    286.67976    63.097356     125463.9   -37170.985    3566.8412   -40737.826    229.59102    0.9954536 
   19600    296.81004   -187.23333    125085.15   -37221.957    3692.8812   -40914.838    230.22424   0.99846781 
   19700    291.81881   -137.02035    125095.23   -37249.006    3630.7808   -40879.787    231.55319   0.99838732 
   19800    290.28498    62.328706    125204.18   -37233.651     3611.697   -40845.348    233.09005   0.99751853 
   19900    289.67439    29.265583    125205.85   -37249.749    3604.1001    -40853.85    235.01803   0.99750521 
   20000    288.74926   -141.50421    124925.93   -37303.479    3592.5898   -40896.069    236.49809   0.99974031 
   20100    289.68501    263.97147    125048.33   -37267.591    3604.2322   -40871.823    237.84063   0.99876175 
   20200    285.61772   -321.04777    125005.41   -37370.123    3553.6274   -40923.751    239.39777   0.99910471 
   20300    289.61423   -26.086807    124819.99   -37407.725    3603.3516   -41011.077    240.23306    1.0005888 
   20400    291.21209   -283.07298    124764.79   -37370.369    3623.2321   -40993.601    241.52977    1.0010315 
   20500     294.5089     57.32164    125217.44   -37377.363    3664.2506   -41041.613     242.9891   0.99741292 
   20600    285.32075   -6.4649095    125251.25   -37404.756    3549.9325   -40954.689      243.923   0.99714371 
   20700    287.41961   -26.630435    125246.81    -37323.13    3576.0464   -40899.176    244.88063   0.99717901 
   20800    289.73801    57.300485    125665.58   -37302.309    3604.8917     -40907.2    246.71259   0.99385597 
   20900    286.42693   -74.964786    125614.96   -37387.674    3563.6955    -40951.37    247.72305   0.99425652 
   21000    281.35304    147.09312    125365.26   -37468.062    3500.5668   -40968.629    248.08752   0.99623687 
   21100    283.15407   -177.42216    125192.15   -37476.012    3522.9749   -40998.987    248.85581   0.99761438 
   21200    285.54915    47.636199    124867.49   -37466.588    3552.7743   -41019.362     249.8304    1.0002082 
   21300    283.00378    40.897959    125068.47   -37466.232    3521.1051   -40987.337    251.52607   0.99860095 
   21400    293.18723   -196.80863    125081.25   -37393.062    3647.8065   -41040.868    253.14084   0.99849894 
   21500    290.71518   -204.57558    124939.03   -37444.521    3617.0496    -41061.57    253.77492   0.99963553 
   21600    291.53236    97.531799     125044.3    -37384.54    3627.2168   -41011.756    254.96934   0.99879396 
   21700    286.73056    194.19486    125078.79     -37325.1    3567.4733   -40892.573     256.3219   0.99851856 
   21800    288.14078    13.865018    125268.24   -37321.161    3585.0191   -40906.181    258.00457   0.99700842 
   21900    289.74298    162.99477    125403.54   -37328.849    3604.9536   -40933.802    259.39615   0.99593273 
   22000    288.14621    127.11748    125538.89   -37348.122    3585.0866   -40933.209    260.79724   0.99485895 
   22100    291.42848    187.38073    125442.29   -37294.266    3625.9243    -40920.19    262.57098   0.99562512 
   22200    286.32124   -231.09058    125256.19   -37360.106    3562.3805   -40922.487    263.71733   0.99710435 
   22300    281.70871     204.2668    125286.25   -37317.932    3504.9919   -40822.924      264.844   0.99686511 
   22400    292.31601    81.440271    125273.29    -37260.07    3636.9669   -40897.037    266.22686   0.99696821 
   22500    289.52443    20.125089     125420.2   -37302.561    3602.2344   -40904.795    268.09333   0.99580045 
   22600    290.36765    183.89332    125326.36   -37204.249    3612.7255   -40816.975    269.47103   0.99654607 
   22700    290.48305   -42.702429    125244.43    -37208.86    3614.1614   -40823.021    270.68918   0.99719798 
   22800    297.55112     4.428484    125422.39   -37217.496    3702.1017   -40919.598    271.72804   0.99578304 
   22900    288.88472   -297.14561    125371.22    -37242.49    3594.2752   -40836.765    272.76436   0.99618945 
   23000    293.48528   -69.004807    125368.92   -37211.908    3651.5148   -40863.423    274.56693   0.99620777 
   23100    284.36317    115.20606    125343.81   -37364.948    3538.0184   -40902.967    275.68319   0.99640736 
   23200    287.40529    61.335389    125351.58   -37315.903    3575.8682   -40891.771    276.45122   0.99634553 
   23300    285.11006   -125.36914    125226.74   -37385.338    3547.3111   -40932.649     277.7679   0.99733887 
   23400    289.08831    197.80292    125272.86   -37287.313    3596.8082   -40884.121     279.6092   0.99697169 
   23500     287.7732    141.78176    125511.74   -37266.445    3580.4457   -40846.891    281.56804    0.9950742 
   23600     294.3927    25.592107    125581.55    -37281.74    3662.8049   -40944.545    282.99307   0.99452102 
   23700    290.28432   -174.99292    125452.34    -37345.95    3611.6888   -40957.639    283.74559    0.9955453 
   23800    286.84969   -32.209261    125234.97   -37440.658    3568.9554   -41009.613    285.20725   0.99727329 
   23900     283.9327   -18.782082    125327.89   -37403.378    3532.6625   -40936.041    287.06311   0.99653388 
   24000    288.51408    34.922636     125079.1   -37356.458    3589.6636   -40946.122    287.83107   0.99851606 
   24100    292.21431    203.65538    125348.83   -37353.382    3635.7016   -40989.083    289.28485   0.99636741 
   24200    284.09196   -95.251553    125284.81   -37407.722     3534.644   -40942.366    289.93761   0.99687655 
   24300    289.28237   -83.259068    125042.34   -37390.497    3599.2227    -40989.72    291.44556   0.99880958 
   24400     284.2093    4.5614886    125125.63   -37384.822     3536.104   -40920.926     292.3413   0.99814473 
   24500    287.22397     15.35191     125051.8   -37411.882    3573.6122   -40985.494    294.23572   0.99873407 
   24600    289.67492    146.97128    125289.73   -37368.826    3604.1067   -40972.933    295.52395   0.99683741 
   24700    287.73911    -130.2866    124898.91   -37333.037    3580.0216   -40913.059    296.12049    0.9999566 
   24800    291.34021   -79.438814    124566.48   -37336.635    3624.8262   -40961.462    296.14128    1.0026252 
   24900    291.76247   -137.21179    124500.84   -37306.942    3630.0798   -40937.021    297.14924    1.0031538 
   25000    285.26545    307.19436    124777.36   -37293.878    3549.2445   -40843.122    298.81488    1.0009307 
   25100    287.32868    185.90322    124980.69   -37257.978     3574.915   -40832.893    300.90342   0.99930234 
   25200    290.05651    93.140162    125013.35   -37269.667    3608.8544   -40878.521    301.68685   0.99904122 
   25300    289.98199    182.93913    124917.12   -37283.829    3607.9273   -40891.757    302.67201   0.99981085 
   25400    285.02027   -254.80549    124864.06   -37286.138     3546.194   -40832.332    304.81771    1.0002357 
   25500    290.15701    106.23434    125101.08   -37235.697    3610.1048   -40845.801    307.20941   0.99834065 
   25600    290.17798    32.039619    125325.23   -37309.891    3610.3658   -40920.257    309.30241   0.99655507 
   25700    287.71819   -11.876934    125355.81   -37346.727    3579.7612   -40926.488    311.08911   0.99631191 
   25800    294.41771   -71.472448    125169.28   -37329.484    3663.1161     -40992.6    311.88349   0.99779667 
   25900    286.06253    70.324003    125526.07   -37269.855    3559.1618   -40829.017    314.04238   0.99496057 
   26000    292.14617    9.4309414    125057.83   -37183.188    3634.8538   -40818.042    314.33451   0.99868591 
   26100    287.15564    -420.4918    124689.07   -37264.251    3572.7621   -40837.013    314.62164    1.0016395 
   26200    284.16738   -156.49209    124910.99   -37258.683    3535.5825   -40794.266    315.82662   0.99985994 
   26300    291.00704   -219.57758    124617.26   -37218.605    3620.6808   -40839.285    316.63709    1.0022166 
   26400    293.52648    65.104608    124710.32   -37202.765    3652.0274   -40854.793    318.35723    1.0014688 
   26500    289.53889    230.90827    124803.83   -37350.654    3602.4143   -40953.068    320.35308    1.0007184 
   26600    287.08088   -14.552222    124914.92   -37418.997     3571.832   -40990.829    321.77585   0.99982845 
   26700    278.21118     185.7628    125028.25   -37438.066     3461.476   -40899.542    323.49798   0.99892214 
   26800     293.6831   -100.90887    124928.78   -37291.876    3653.9762   -40945.852    324.38648   0.99971753 
   26900    284.50397    -75.17732    125102.38   -37292.572    3539.7703   -40832.342    325.80745   0.99833026 
   27000    288.00111     189.1278    125270.38    -37334.38    3583.2813   -40917.662    326.87487   0.99699142 
   27100    285.97929    67.895426    125342.07   -37349.234    3558.1261    -40907.36    328.30132   0.99642114 
   27200    285.80728   -5.8976606    125021.76   -37361.635    3555.9859   -40917.621    328.93273   0.99897399 
   27300    288.26781   -68.227213    124933.35   -37387.147    3586.5995   -40973.747    329.90283   0.99968096 
   27400    286.38973    92.977471    125301.73    -37368.51    3563.2327   -40931.743     331.7222   0.99674196 
   27500    283.05607     123.0512    125216.09   -37253.174    3521.7557    -40774.93    332.32516   0.99742363 
   27600    289.56252    -96.76292    125347.96   -37300.073    3602.7083   -40902.781    333.09286   0.99637432 
   27700    287.43321    27.073986    125323.37   -37310.903    3576.2156   -40887.118    334.04778   0.99656982 
   27800    292.19755   -301.87221    124867.33   -37211.706    3635.4931   -40847.199    334.94843    1.0002095 
   27900     294.3187   -81.988554    125082.22   -37250.951    3661.8842   -40912.835    336.81619    0.9984912 
   28000    287.56599    67.606746    125029.94   -37338.181    3577.8676   -40916.048    337.33771   0.99890864 
   28100     286.0117    42.492928    125409.72   -37206.966    3558.5293   -40765.496    338.85614   0.99588366 
   28200    282.88499    230.83929    125345.23   -37260.476    3519.6271   -40780.103    338.72733   0.99639603 
   28300    289.90606    51.222423    125214.97   -37262.904    3606.9826   -40869.887    339.35062   0.99743256 
   28400    286.20601    52.333122     125227.4    -37294.62    3560.9469   -40855.567    339.88563   0.99733355 
   28500    282.87275     46.60329    125218.35   -37355.551    3519.4747   -40875.026     340.4575   0.99740563 
   28600    292.99511    73.203141    125200.77   -37326.943    3645.4162   -40972.359    340.50692   0.99754571 
   28700    291.49952   -7.4347052    125629.56   -37301.995    3626.8082   -40928.803    342.46946   0.99414093 
   28800    293.83338    25.464109    125634.85   -37296.881    3655.8458   -40952.726    342.53722   0.99409909 
   28900     292.3696   -379.32284    125423.23   -37272.005    3637.6337   -40909.639    342.54314   0.99577636 
   29000    284.90056   -56.387433    125197.07   -37359.559    3544.7047   -40904.264    343.63872   0.99757518 
   29100    286.73239   -21.908852    125079.21    -37300.27     3567.496   -40867.766    343.95228   0.99851515 
   29200    289.07481   -46.346679    125188.73   -37238.495    3596.6402   -40835.135    345.18598   0.99764168 
   29300    290.12041    21.168707    125451.72   -37310.864    3609.6495   -40920.514    347.22133   0.99555026 
   29400    287.12358    184.34796    125281.71    -37378.21    3572.3632   -40950.573    349.29953   0.99690124 
   29500    280.26367   -207.29337    125175.08   -37429.923    3487.0129   -40916.936    350.57152   0.99775041 
   29600    289.02457    133.72228       125440   -37292.377    3596.0152   -40888.392    352.40469   0.99564324 
   29700    286.51381    180.79368    125626.24   -37336.071    3564.7765   -40900.847    354.38075   0.99416721 
   29800    287.53977    97.774502    125655.13   -37314.486    3577.5415   -40892.027    355.74777   0.99393864 
   29900    289.50458    345.15842    125652.84   -37353.212    3601.9874     -40955.2    356.40738   0.99395675 
   30000    283.22285   -53.286821    125581.77   -37351.962    3523.8307   -40875.792    357.49106   0.99451928 
   30100    285.68371    111.81847    125822.83   -37316.033    3554.4485   -40870.482     359.3179   0.99261392 
   30200    291.43077   -126.41166    125664.31   -37314.343    3625.9528   -40940.296    360.25248   0.99386602 
   30300    293.43915    124.09968    125584.65   -37291.047    3650.9409   -40941.988    361.09482   0.99449646 
   30400    291.28092   -14.659842    125330.04   -37252.714    3624.0884   -40876.803    361.87897    0.9965168 
   30500    293.06076    168.19744    125118.22   -37261.233     3646.233   -40907.466    362.66338    0.9982039 
   30600    288.99075    169.72465    125586.12   -37270.492    3595.5944   -40866.086    364.68107   0.99448484 
   30700     290.4489    31.321459    125387.62   -37297.916    3613.7366   -40911.652    365.54329   0.99605916 
   30800    286.84756   -9.4991926    125119.04   -37235.341     3568.929    -40804.27    364.87651   0.99819731 
   30900    285.26644    80.995543       124784   -37334.129    3549.2569   -40883.386    364.58095    1.0008774 
   31000    285.34856    132.26123    124491.09   -37389.836    3550.2786   -40940.115    365.25853    1.0032324 
   31100    283.14668   -26.676842    124714.25   -37432.768     3522.883   -40955.651    366.77047    1.0014372 
   31200    286.29269   -35.038994    124689.83   -37442.699    3562.0253   -41004.724     368.4035    1.0016334 
   31300    289.42972   -216.97404    124757.68   -37396.852     3601.056   -40997.908    368.89144    1.0010886 
   31400    289.15396    119.02528    124810.63   -37309.429    3597.6249   -40907.054    369.58997    1.0006639 
   31500    285.16785   -183.62039    124940.04   -37399.551    3548.0301   -40947.581    371.53843   0.99962743 
   31600    289.00678    134.38039    125161.93   -37299.575    3595.7938   -40895.369    373.16113   0.99785527 
   31700    288.91332    48.266454    125129.93   -37337.333     3594.631   -40931.964    374.43046   0.99811042 
   31800    287.08856    149.20792    124955.65   -37289.988    3571.9274   -40861.915    375.28585   0.99950255 
   31900     293.5197  -0.67058666    125252.35   -37214.262    3651.9431   -40866.205    377.27513   0.99713493 
   32000    296.81951   -143.97688    125100.93   -37218.848     3692.999   -40911.847     378.2147    0.9983418 
   32100    289.50105   -225.80884    124865.49   -37268.257    3601.9435     -40870.2    379.13751    1.0002243 
   32200    295.11033    73.526023    125046.85   -37259.643    3671.7336   -40931.376    381.74075   0.99877355 
   32300    290.13073    176.62652    125090.77     -37202.3    3609.7778   -40812.078    383.05949   0.99842295 
   32400    291.13294    59.523295    125061.62   -37281.586    3622.2473   -40903.833    383.56275    0.9986556 
   32500    292.53132    338.99955    124906.59   -37297.292    3639.6458   -40936.938    384.21644   0.99989512 
   32600    292.02898    45.356593    124877.55   -37192.596    3633.3957   -40825.992    385.05271    1.0001277 
   32700    285.46123    73.207883    124861.48   -37254.024    3551.6804   -40805.704    386.06526    1.0002564 
   32800    288.64728   -28.731371    125030.59   -37309.708    3591.3209   -40901.029    386.89586   0.99890346 
   32900    283.88641   -269.52862    124720.89   -37367.297    3532.0866   -40899.384    386.67442    1.0013839 
   33000    286.03697    131.39404    124978.12   -37440.207    3558.8437    -40999.05    388.46096   0.99932283 
   33100    287.85335    168.13953    125116.19   -37325.828    3581.4429   -40907.271    389.30018   0.99822006 
   33200    288.05954    108.46265    125154.87   -37375.615    3584.0083   -40959.623    390.91615   0.99791152 
   33300    288.11165    31.481503    125609.52   -37341.222    3584.6566   -40925.879    393.00724   0.99429957 
   33400    285.55602    141.19743    125700.88    -37421.06    3552.8598    -40973.92    393.93004   0.99357691 
   33500    287.70999    234.76397    125539.37   -37377.061    3579.6593    -40956.72    394.65277   0.99485519 
   33600    288.45423    15.153953    125574.21   -37302.582     3588.919   -40891.501    396.28195   0.99457919 
   33700    290.32889   -115.90553    125738.02   -37277.498    3612.2433   -40889.742    398.89156   0.99328341 
   33800    290.96961    50.277669    125667.07   -37317.319    3620.2151   -40937.534    399.89229   0.99384423 
   33900    287.51984   -60.473304    125794.35   -37331.421    3577.2934   -40908.714     401.1813   0.99283865 
   34000    288.15418   -42.591383    125422.73   -37326.499    3585.1859   -40911.685      401.767   0.99578039 
   34100    286.64681    -164.1383    125474.08   -37343.694    3566.4312   -40910.125     403.4801   0.99537284 
   34200    292.66885   -453.18655    125158.73   -37302.599    3641.3569   -40943.956    403.77225   0.99788079 
   34300     286.1805   -32.228194    124534.69   -37381.675    3560.6295   -40942.305    403.07034    1.0028811 
   34400    298.25249    122.10188       124972   -37274.435     3710.828   -40985.263    404.90708   0.99937178 
   34500    288.40965   -147.34455    125137.86   -37322.316    3588.3644   -40910.681    406.27845   0.99804723 
   34600    285.48253   -31.383715    125236.44   -37330.435    3551.9454    -40882.38    407.46005    0.9972616 
   34700    285.16363    22.909088    125194.05    -37410.42    3547.9777   -40958.398    408.15638   0.99759927 
   34800    287.13418    184.64565    125203.89   -37441.475    3572.4951    -41013.97    409.23549   0.99752081 
   34900    282.91855    210.09071    125249.75   -37439.919    3520.0447   -40959.964    410.65201    0.9971556 
   35000    279.81258    140.69923    125274.52     -37539.2    3481.4005     -41020.6    411.81842   0.99695846 
   35100    286.31766    129.71912    125190.72   -37458.386     3562.336   -41020.722    411.98791   0.99762583 
   35200    289.73711   -150.91517    125245.35   -37443.198    3604.8805   -41048.079    412.95296   0.99719064 
   35300    289.42878   -12.495216    125176.85   -37416.884    3601.0442   -41017.929    413.80826    0.9977363 
   35400    281.30034   -9.9813516    125068.43   -37375.082     3499.911   -40874.993     415.0761   0.99860122 
   35500    296.00906    176.30762    125169.36   -37307.405    3682.9154   -40990.321    416.37606   0.99779604 
   35600    287.34411   -117.24617     125315.6   -37338.671     3575.107   -40913.778    418.36173   0.99663167 
   35700    292.15931    246.31123     125146.8   -37297.103    3635.0173    -40932.12    419.61593   0.99797588 
   35800    287.78488   -67.501487     125530.3   -37322.526     3580.591   -40903.117    422.06502   0.99492708 
   35900    288.98482    66.202856    125308.13   -37254.984    3595.5206   -40850.504    423.31974   0.99669103 
   36000    292.25993   -112.66673     125322.7   -37205.973    3636.2692   -40842.242     425.3361   0.99657514 
   36100     291.2576    70.879812    124870.94   -37240.881    3623.7983   -40864.679     425.3965    1.0001806 
   36200    289.84637    47.740428    124671.29   -37272.272    3606.2399   -40878.512    426.09977    1.0017823 
   36300    289.77251   -51.860169    124661.42   -37323.934    3605.3209   -40929.255    427.46692    1.0018616 
   36400    288.56491    17.117528    124813.93    -37265.72    3590.2961   -40856.016    429.14637    1.0006374 
   36500    291.26548    83.134378    124638.47   -37222.944    3623.8963    -40846.84    430.86697    1.0020461 
   36600     284.4275    398.47333    125093.88   -37362.422    3538.8188   -40901.241    433.99491   0.99839812 
   36700    288.94494   -316.89523    125187.45   -37373.268    3595.0244   -40968.292    435.24986   0.99765185 
   36800    292.21238   -273.16037    125051.92     -37324.7    3635.6776   -40960.378    437.22608   0.99873306 
   36900    281.25315    81.832376    125033.75   -37389.794    3499.3238   -40889.118    439.33846   0.99887823 
   37000    288.53426   -6.9743786    125025.53   -37290.087    3589.9148   -40880.002    441.11977   0.99894387 
   37100    291.97505   -11.229359    124757.81   -37242.007    3632.7247   -40874.732    441.80426    1.0010875 
   37200    286.74759    102.24027     124697.3   -37291.715    3567.6852     -40859.4    443.31998    1.0015734 
   37300    288.63965    262.41305    124692.99   -37282.595     3591.226   -40873.821    445.17078    1.0016079 
   37400    286.44343   -18.007893    124723.76   -37351.429    3563.9009    -40915.33     446.9081    1.0013608 
   37500      289.078    -75.52125    124593.25    -37386.79    3596.6799    -40983.47    446.82416    1.0024097 
   37600     288.8379   -24.037299    124771.48   -37341.905    3593.6926   -40935.598    447.27831    1.0009779 
   37700    285.58017   -18.370789    124899.85   -37360.731    3553.1602   -40913.891    448.72473   0.99994912 
   37800    283.88801   -10.619537    125014.77   -37470.518    3532.1066   -41002.625    450.41075    0.9990299 
   37900     282.5423     207.5907    124944.21   -37438.898    3515.3634   -40954.261    451.40878   0.99959407 
   38000     288.8813    138.26342    125325.44    -37402.51    3594.2326   -40996.743    453.51267   0.99655339 
   38100     290.9122   -49.803369    125209.74   -37347.445    3619.5008   -40966.946    454.53622   0.99747424 
   38200    292.35032    41.633411     124892.8   -37336.866    3637.3938    -40974.26    455.40449    1.0000056 
   38300     286.2736    7.3091473    124815.58   -37313.147    3561.7879   -40874.935    457.04427    1.0006242 
   38400      278.783   -12.258261    124902.07   -37361.051    3468.5905   -40829.641    458.81478   0.99993131 
   38500    288.52026   -137.87911    125044.87   -37346.484    3589.7406   -40936.225    459.96197   0.99878942 
   38600    286.61499   -233.47417    124851.75   -37293.442    3566.0354   -40859.477    460.97405    1.0003343 
   38700    291.24137   -114.19622    124925.29   -37297.395    3623.5963   -40920.991    462.41537   0.99974542 
   38800    286.44096   -225.37589    124813.12   -37328.598    3563.8701   -40892.468    464.12092     1.000644 
   38900    287.57114     59.59956    124987.66   -37262.281    3577.9316   -40840.212    465.72123   0.99924657 
   39000    283.83784   -83.995125    124977.53   -37326.326    3531.4823   -40857.809     467.2905    0.9993276 
   39100     292.3885   -74.940843     124771.1    -37288.34    3637.8688   -40926.209    467.65136     1.000981 
   39200    285.48318    33.931283    124720.73   -37333.609    3551.9534   -40885.562    469.16506    1.0013852 
   39300    285.21913    39.479018    124991.77   -37338.138    3548.6682   -40886.806    470.73484   0.99921376 
   39400    290.32999   -253.74784    125035.02   -37278.234     3612.257   -40890.491    472.52734   0.99886806 
   39500    288.93478   -124.01508    125157.36   -37322.615     3594.898   -40917.512    473.00219   0.99789172 
   39600    291.54719    94.463962    125137.84   -37255.638    3627.4013    -40883.04    473.55014   0.99804732 
   39700    294.55429    175.70408    125031.72   -37201.886    3664.8154   -40866.701    474.66396   0.99889449 
   39800    291.58986   -290.66946    125063.25   -37345.568    3627.9322     -40973.5    476.20914   0.99864259 
   39900    286.87487   -89.764203    124991.59   -37430.198    3569.2688   -40999.467    476.87756   0.99921515 
   40000    285.45757   -52.303519    124695.61   -37385.133    3551.6348   -40936.768    476.59824    1.0015869 
   40100     288.3263     161.7632     124772.9   -37301.347    3587.3273   -40888.674    478.00321    1.0009665 
   40200    289.49191   -108.00432    125063.56   -37303.076    3601.8298   -40904.906    480.65644   0.99864016 
   40300    290.21084    11.428367    125040.44   -37349.121    3610.7746   -40959.896    481.79569   0.99882477 
   40400    297.58696   -62.123174    125234.36   -37194.989    3702.5475   -40897.537    484.34635   0.99727818 
   40500    288.59164   -4.0669928    125295.15   -37184.231    3590.6287    -40774.86    485.33788   0.99679431 
   40600    287.42881    54.129018    125154.95   -37242.417    3576.1609   -40818.578    486.04504   0.99791092 
   40700    291.98555   -199.04554    125242.75   -37325.392    3632.8554   -40958.248    488.11291   0.99721135 
   40800     288.2653    260.25547    125220.95   -37366.159    3586.5684   -40952.728     490.1352   0.99738494 
   40900    290.41946    94.284247    125079.43   -37457.568    3613.3703   -41070.938     491.7915   0.99851341 
   41000    286.78687    164.75759    125160.15   -37316.811    3568.1739   -40884.985    493.20284   0.99786949 
   41100    289.11058    96.679346     125010.1   -37327.648    3597.0852   -40924.733    494.52128    0.9990672 
   41200    295.48313    281.44033     124802.1   -37311.469    3676.3718   -40987.841    494.64647    1.0007323 
   41300    280.03562    16.252656    124744.16   -37537.022    3484.1755   -41021.197    496.28457    1.0011971 
   41400    284.30886    138.11843    124550.07   -37446.302    3537.3428   -40983.644    496.96881    1.0027573 
   41500    282.04116    68.623276    125031.87   -37398.881    3509.1282   -40908.009    499.75794   0.99889322 
   41600    283.29193    -133.1261    125149.97   -37336.627    3524.6902   -40861.317    500.77886    0.9979506 
   41700    289.25684    37.382659    124843.85   -37295.344     3598.905   -40894.249    502.28797    1.0003976 
   41800    286.99973   -42.260381    124996.01   -37327.393    3570.8222   -40898.216    503.95251   0.99917982 
   41900    289.57494    18.547032    125282.78   -37319.032    3602.8627   -40921.895    506.07297   0.99689272 
   42000    287.71398    209.27419    125661.64   -37325.367     3579.709   -40905.076    508.12556   0.99388713 
   42100     288.6456   -124.48944    125594.36   -37317.261    3591.3001   -40908.561    509.14173    0.9944196 
   42200    289.94727    238.24649    125597.45   -37297.629    3607.4953   -40905.124     509.9479   0.99439512 
   42300    288.64278    -59.02689    125764.42   -37254.109    3591.2649   -40845.374    511.69312   0.99307489 
   42400    290.90274    32.706213    125471.36   -37265.506    3619.3832    -40884.89    511.07207    0.9953944 
   42500    293.03701    116.52868     125587.4   -37303.741    3645.9375   -40949.678    512.23745   0.99447469 
   42600    291.11518   -165.32573    125541.55   -37255.264    3622.0263   -40877.291    513.60224   0.99483791 
   42700    291.20704   -115.46587    125374.01   -37311.455    3623.1692   -40934.625    514.03926   0.99616731 
   42800     293.7391    178.52289    125376.67    -37248.86    3654.6729   -40903.533    515.14934   0.99614621 
   42900    290.87364   -155.16407     125409.6   -37322.368    3619.0211    -40941.39     517.3992   0.99588465 
   43000    283.86257   -45.724229    125417.78   -37385.831      3531.79   -40917.621    518.58649   0.99581968 
   43100     286.8016   -311.28435    125154.18    -37404.74    3568.3571   -40973.097    519.47176   0.99791706 
   43200    286.81482    262.83835    125181.68   -37342.111    3568.5216   -40910.633    519.83949   0.99769784 
   43300    287.31537   -86.861152    124771.55   -37362.976    3574.7494   -40937.725    519.38812    1.0009773 
   43400    286.28499    70.304597    124836.76   -37309.507    3561.9295   -40871.436    519.83865    1.0004544 
   43500    290.62142    62.774652    125040.98    -37308.94     3615.883   -40924.823    521.66717   0.99882045 
   43600    296.29018    113.77225    125150.23   -37187.519    3686.4131   -40873.932    523.20988   0.99794858 
   43700    282.31512    281.94836    125078.53   -37209.021    3512.5368   -40721.557    525.35821   0.99852063 
   43800    288.55685   -241.67731    124953.63   -37145.036    3590.1958   -40735.232    526.34106   0.99951867 
   43900    297.97417   -23.058735    125138.51   -37219.126    3707.3652   -40926.491     528.3582   0.99804201 
   44000     288.2638   -93.955091    125599.84   -37203.737    3586.5497   -40790.287    532.05702   0.99437618 
   44100    288.65063   -338.93161     125498.2   -37273.156    3591.3626   -40864.519    532.99256   0.99518155 
   44200    289.86618    152.26282    125367.84    -37269.81    3606.4864   -40876.296    533.19852   0.99621637 
   44300    290.16172   -210.74703    125059.77   -37321.773    3610.1634   -40931.936    533.15863    0.9986704 
   44400    285.57145   -87.637341     125246.4   -37295.409    3553.0518    -40848.46    535.07592   0.99718229 
   44500    287.10022   -278.71025    125177.44   -37320.812    3572.0726   -40892.885    536.18498   0.99773165 
   44600    286.19566   -133.35519    124991.55   -37426.692    3560.8181    -40987.51    536.86493   0.99921546 
   44700    286.35917   -206.50022    124850.79   -37440.532    3562.8525   -41003.385    537.59885     1.000342 
   44800    287.08188   -28.558593    124729.47   -37408.855    3571.8444     -40980.7    538.19791     1.001315 
   44900    288.25714   -117.61136    124876.57   -37350.584    3586.4668   -40937.051    539.93578    1.0001355 
   45000    288.31404   -20.701445    124650.02   -37291.796    3587.1748   -40878.971    540.29603    1.0019532 
   45100    290.66176   -120.59414    124851.88   -37265.023    3616.3849   -40881.408    542.00678    1.0003333 
   45200    290.20813   -402.80141    125001.77   -37319.482    3610.7408   -40930.222    543.09761   0.99913381 
   45300    291.30631    144.50284    124774.54   -37345.964    3624.4043   -40970.368    543.50239    1.0009533 
   45400     290.7814   -93.085196    125051.38   -37360.193    3617.8734   -40978.067    545.56485   0.99873739 
   45500    289.05587   -57.859171    125398.61   -37358.869    3596.4045   -40955.273    546.62366   0.99597192 
   45600     287.2474    110.59063    125401.57   -37400.864    3573.9038   -40974.768    547.57286   0.99594835 
   45700    293.61221    139.76045    125516.27   -37338.254    3653.0941   -40991.348    548.92324    0.9950383 
   45800    287.16542   -117.38758    125506.26   -37300.036    3572.8837   -40872.919    549.55597   0.99511764 
   45900    291.86555    37.002214    125411.67    -37209.25    3631.3623   -40840.612    550.13475    0.9958682 
   46000    292.15677   -227.59559    125217.82   -37162.708    3634.9857   -40797.694    550.48921    0.9974099 
   46100    295.02575    36.626743    125173.06   -37132.603    3670.6812   -40803.284    551.76392   0.99776657 
   46200    293.56539    152.93847    125385.86    -37089.78    3652.5116   -40742.292    553.92625   0.99607316 
   46300    290.79485    60.313053    125556.59   -37126.257    3618.0407   -40744.298    556.08099   0.99471874 
   46400     286.5187   -221.06893    125668.56   -37148.931    3564.8373   -40713.769    557.78325   0.99383245 
   46500    289.85311   -130.41362    125402.19   -37159.688    3606.3238   -40766.012    557.69035   0.99594346 
   46600    293.56414   -34.465722    125412.13   -37139.454     3652.496    -40791.95    559.65519   0.99586453 
   46700    289.11578     102.8001    124683.75   -37228.703    3597.1499   -40825.853    559.63943    1.0016822 
   46800    291.67777   -67.513166    124658.43   -37294.354     3629.026    -40923.38    561.67552    1.0018856 
   46900    287.02961    218.63606    124617.33   -37239.522    3571.1941   -40810.716    563.44767    1.0022161 
   47000      292.102   -28.227192    124733.19   -37200.806    3634.3042    -40835.11    564.83443    1.0012852 
   47100    296.10826    260.42816    124774.48    -37154.97    3684.1498    -40839.12    566.59937    1.0009538 
   47200    290.68694   -20.516795    124796.58   -37263.415    3616.6982   -40880.113    568.46925    1.0007766 
   47300    289.66105    42.180464    124889.88   -37247.952    3603.9341   -40851.886    570.95699    1.0000289 
   47400    289.39752   -172.51536    124876.65   -37221.721    3600.6553   -40822.377    571.35801    1.0001348 
   47500    291.85149   -45.065382    124849.42   -37135.327    3631.1874   -40766.514    572.88395     1.000353 
   47600    294.35599    371.58542    124898.94   -37073.233    3662.3481   -40735.581     573.7631   0.99995635 
   47700    289.41249    44.542829    124810.04   -37087.292    3600.8416   -40688.134    575.71114    1.0006687 
   47800    297.31939    101.34905     124888.9   -37139.035    3699.2185   -40838.253    576.43492    1.0000368 
   47900    287.49537   -61.855368    125020.47    -37231.38     3576.989   -40808.369    577.67284   0.99898431 
   48000    287.15844   -45.624092    124817.22   -37318.506    3572.7969   -40891.303    577.74153    1.0006111 
   48100    285.34214    105.71135     125149.8   -37279.518    3550.1986   -40829.717    580.22177     0.997952 
   48200     288.1577   -106.06678    124982.97   -37330.382    3585.2296   -40915.612    581.15535   0.99928407 
   48300    290.99531   -73.294661    124878.59   -37320.447    3620.5349   -40940.982     581.3827    1.0001193 
   48400    290.63888    27.724305    124761.74   -37264.717    3616.1002   -40880.817     582.4424     1.001056 
   48500    285.49421   -147.64513    124810.09   -37281.837    3552.0907   -40833.928    584.92524    1.0006682 
   48600    294.78744   -18.768597     124649.4   -37246.484    3667.7162     -40914.2    585.89754    1.0019582 
   48700    291.08194    111.32088    125108.69   -37280.383    3621.6127   -40901.996    588.92149   0.99827994 
   48800     291.0995   -322.57575    125188.48   -37293.444    3621.8312   -40915.275    589.91616   0.99764366 
   48900    288.98528    212.40853    125463.32   -37269.067    3595.5263   -40864.593    591.21719    0.9954582 
   49000    287.48229   -104.12426    125835.51   -37365.633    3576.8262   -40942.459    594.40682    0.9925139 
   49100    286.26847    129.01918       125459   -37371.176     3561.724     -40932.9    594.36449   0.99549248 
   49200    291.02036      132.606    125475.12   -37395.538    3620.8465   -41016.385     596.0942   0.99536456 
   49300    287.98426    164.83058    125331.61   -37357.845    3583.0717   -40940.917    596.69384   0.99650431 
   49400    286.97603    -147.9402     125347.9   -37322.734    3570.5274   -40893.261    597.74923    0.9963748 
   49500    291.93383    68.265315    125279.16   -37337.903    3632.2118   -40970.115    597.83203    0.9969215 
   49600    291.68586    203.08047    124974.03    -37247.22    3629.1266   -40876.346    598.92428   0.99935552 
   49700    290.11217    44.763837    124975.23   -37331.987     3609.547   -40941.534    599.11009   0.99934599 
   49800    284.42156   -184.45808    124731.17   -37350.002    3538.7449   -40888.747     598.9659    1.0013013 
   49900    296.37313    166.60682    124698.06    -37249.53    3687.4452   -40936.975    599.79959    1.0015672 
   50000    289.80183   -58.833428    125107.99   -37254.375    3605.6857   -40860.061    601.83009    0.9982855 
   50100    285.61295    93.386438    125211.18     -37302.6     3553.568   -40856.168     603.7675   0.99746274 
   50200    286.13216   -66.987597    124971.04   -37362.294     3560.028   -40922.322    604.21209   0.99937946 
   50300    291.94487    63.697892    124941.69   -37349.032    3632.3492   -40981.381    605.13143   0.99961421 
   50400    287.44689    111.90468    124890.83    -37368.59    3576.3858   -40944.976    606.40806    1.0000213 
   50500    282.99024   -113.09631    125023.73   -37430.297    3520.9366   -40951.234    607.75812   0.99895829 
   50600    286.27955     93.95381    125246.55   -37414.012    3561.8619   -40975.874    609.01852   0.99718111 
   50700    284.05688   -23.205701    125077.74   -37453.898    3534.2076   -40988.106    610.70461   0.99852693 
   50800    282.61264    134.79468    125029.78   -37432.638    3516.2386   -40948.877    611.35908   0.99890999 
   50900    290.94937   -53.582588    125322.32   -37322.088    3619.9634   -40942.051     613.5746   0.99657821 
   51000    285.62079    36.232559    125622.58   -37362.286    3553.6656   -40915.951    615.50427    0.9941962 
   51100    290.18582   -21.595331    125398.12   -37367.432    3610.4633   -40977.896    616.37414   0.99597577 
   51200    289.33557   -25.140535    125544.03   -37341.665    3599.8845    -40941.55    618.05983   0.99481822 
   51300    284.16484   -214.62385    125722.69   -37461.524    3535.5509   -40997.075    621.36971   0.99340455 
   51400    290.46484   -3.3953971    125397.37   -37488.642    3613.9348   -41102.576    621.66252   0.99598171 
   51500     284.0193   -15.999972    125595.24   -37500.124      3533.74   -41033.864    622.90905    0.9944126 
   51600    285.93233   -270.94066    125693.04   -37368.313    3557.5418   -40925.855    624.44488   0.99363891 
   51700    283.00845   -302.13809    125507.45   -37376.452    3521.1631   -40897.615     624.3674    0.9951082 
   51800    286.83628   -345.54824    125431.74   -37412.727    3568.7886   -40981.516    624.63737   0.99570881 
   51900    280.02674   -75.469313    125482.65   -37422.846     3484.065   -40906.911    625.25666   0.99530486 
   52000     284.1628   -403.91881    125389.47   -37447.407    3535.5255   -40982.933    625.20815   0.99604449 
   52100    292.75626   -143.51437    125328.57   -37340.294    3642.4445   -40982.738    625.52918    0.9965285 
   52200    292.64943    -48.10877    125444.19   -37400.628    3641.1153   -41041.743    627.39507   0.99561002 
   52300    285.05045   -24.866332    125688.33    -37377.02    3546.5695    -40923.59    628.84987   0.99367609 
   52400    291.09013    114.25057    125848.33   -37349.887    3621.7146   -40971.602    630.55512   0.99241276 
   52500    287.62304    42.129727     125811.1   -37305.028    3578.5774   -40883.605    631.55747   0.99270644 
   52600    287.78394    25.892127    125634.95   -37327.982    3580.5794   -40908.562    632.11889   0.99409828 
   52700    283.35987     66.77583    125376.43   -37336.057    3525.5354   -40861.592    632.43367   0.99614812 
   52800    287.86664    196.30565    125451.54   -37300.014    3581.6083   -40881.622    634.16889   0.99555168 
   52900    288.94247   -58.779502    125350.79   -37286.004    3594.9937   -40880.998    635.29956   0.99635187 
   53000    287.78076   -248.27581    125314.46   -37273.851    3580.5398    -40854.39    636.26811   0.99664069 
   53100      287.139   -122.66006    125171.82   -37285.947    3572.5551   -40858.502    637.60385   0.99777642 
   53200     286.8265   -18.871664     125026.3    -37292.75    3568.6669   -40861.417    638.09698   0.99893774 
   53300    287.47736     3.483196    125006.77   -37253.021    3576.7648   -40829.786    639.23527   0.99909384 
   53400    287.84565 0.0068395216    124834.26   -37376.139    3581.3472   -40957.486    640.24437    1.0004745 
   53500    279.39029   -46.037779    125199.04   -37440.466    3476.1463   -40916.612    643.38718   0.99755948 
   53600    286.28305    140.61012    125251.13   -37426.895    3561.9054     -40988.8    645.02928    0.9971446 
   53700    285.15629    10.024448    125424.17   -37443.064    3547.8864   -40990.951    647.89773   0.99576889 
   53800    294.87974     208.9664    125406.78   -37319.377    3668.8646   -40988.242     650.0013   0.99590702 
   53900    281.33535     108.1359    125635.49   -37413.771    3500.3467   -40914.118    651.74734   0.99409401 
   54000    285.91053    -249.3129    125865.19    -37378.61    3557.2706    -40935.88    654.63773   0.99227986 
   54100     286.1854   -395.02403    125549.29   -37355.143    3560.6905   -40915.833    653.87311   0.99477656 
   54200    288.23647    145.49573    125591.31   -37363.081    3586.2096   -40949.291    655.86312   0.99444374 
   54300    288.86811    90.682972    125426.64   -37285.707    3594.0685   -40879.775    656.14016   0.99574931 
   54400    287.77105    31.190987    125222.99   -37317.741    3580.4189    -40898.16    656.46588   0.99736868 
   54500    286.72166    55.467808     125244.4   -37291.632    3567.3625   -40858.994    656.48577   0.99719824 
   54600    289.64974    101.21183    125682.74   -37176.554    3603.7934   -40780.348     659.0717   0.99372033 
   54700    288.42242   -53.454605    125392.33   -37160.321    3588.5232   -40748.844    660.03602   0.99602181 
   54800    282.89395   -51.735435    125199.19    -37250.44    3519.7386   -40770.179    660.97027   0.99755828 
   54900    282.76328   -158.48116    124906.93   -37334.998    3518.1128    -40853.11    661.06713   0.99989238 
   55000    287.46928    77.208003    124959.98   -37344.702    3576.6643   -40921.367    663.22291    0.9994679 
   55100    284.07384    124.84695    124812.87   -37322.896    3534.4186   -40857.314    664.22462    1.0006459 
   55200    288.06592     131.3143    124684.19   -37357.025    3584.0877   -40941.113    665.69822    1.0016786 
   55300    289.50629    162.94521    124832.78   -37322.924    3602.0086   -40924.933    667.31468    1.0004863 
   55400    293.37645   -52.292465    125000.73   -37332.918    3650.1608   -40983.079    669.65361   0.99914208 
   55500    294.56485    116.61351    125159.16   -37259.402    3664.9467   -40924.349    672.22674   0.99787736 
   55600    291.22674    123.38599    125074.16   -37292.953    3623.4143   -40916.367    673.23908   0.99855552 
   55700    291.09894    172.84428    125279.29   -37316.855    3621.8242   -40938.679    675.02687   0.99692049 
   55800    284.88775    41.844618    125614.56   -37319.537    3544.5452   -40864.082    676.96991   0.99425967 
   55900    292.18374    54.654213    125642.93   -37297.912    3635.3212   -40933.233    677.80555   0.99403519 
   56000    286.59943   -214.04103    125677.05   -37262.475    3565.8418   -40828.317    678.99056    0.9937653 
   56100    296.29493   -41.265014    125317.44   -37199.504    3686.4722   -40885.976    678.77286   0.99661703 
   56200    292.44297     158.5957    125207.74   -37235.133    3638.5466    -40873.68    680.59857   0.99749016 
   56300    291.64022    116.22114    125574.48   -37245.099    3628.5588   -40873.658    682.77179   0.99457701 
   56400    295.84614    51.695439     125498.9   -37219.375    3680.8885   -40900.264    684.67106   0.99517595 
   56500    287.89049    158.57331    125716.59   -37343.774     3581.905   -40925.679    686.55495   0.99345277 
   56600    288.81589    -109.3622    125148.49   -37421.112    3593.4187    -41014.53    686.70404   0.99796244 
   56700    284.19454    33.931672    125073.32   -37491.089    3535.9203   -41027.009    688.46403   0.99856223 
   56800    290.16152   -59.244638    124986.24   -37429.105     3610.161   -41039.266    689.19526    0.9992579 
   56900    285.64158    51.522435    125003.55   -37384.193    3553.9243   -40938.117    690.27952   0.99911955 
   57000    285.05343   -164.44663    124955.57   -37337.812    3546.6066   -40884.419    691.42655   0.99950319 
   57100    283.79948   -38.769486    125033.85   -37371.262    3531.0051   -40902.267    691.47115   0.99887741 
   57200    284.28979   -251.77788    125126.02   -37406.547    3537.1055   -40943.652    693.39742   0.99814163 
   57300    288.91314    12.971626    124955.14   -37435.755    3594.6287   -41030.384     693.5935   0.99950662 
   57400    287.35384    298.31269    124806.18   -37427.164    3575.2281   -41002.392     693.6276    1.0006996 
   57500    280.46327   -11.823806    124887.22   -37485.398    3489.4963   -40974.894    696.00865    1.0000502 
   57600    282.09621   -71.165735    124725.41   -37439.952    3509.8132   -40949.765    696.95941    1.0013476 
   57700    285.93152   -15.312038    124500.48   -37458.592    3557.5317   -41016.124    697.45599    1.0031567 
   57800    283.34807    -30.02055    124763.99   -37552.848    3525.3887   -41078.237    700.44004     1.001038 
   57900    281.62226    298.56074    125183.87   -37471.801    3503.9163   -40975.717    703.44388   0.99768037 
   58000    282.14811   -49.275652    124972.68   -37476.845    3510.4589   -40987.304    704.87997   0.99936633 
   58100    286.28435    252.17711    125156.07   -37420.155    3561.9215   -40982.077    707.62743   0.99790199 
   58200    289.00596    243.97051     125559.8   -37331.831    3595.7836   -40927.614    710.53723   0.99469328 
   58300     294.3762   -201.08017    125490.09   -37236.596    3662.5996   -40899.196    711.12867   0.99524585 
   58400    289.85799    25.346505    125090.61    -37231.39    3606.3844   -40837.774    711.12864    0.9984242 
   58500    290.23259    117.95945    125114.05   -37257.276    3611.0453   -40868.321    711.92207    0.9982371 
   58600    293.53996    36.170883    125095.59   -37202.938    3652.1952   -40855.133    713.38107   0.99838446 
   58700    295.29461    46.448845    125300.98   -37241.192    3674.0263   -40915.218    715.67954   0.99674792 
   58800    285.42937    110.96242    125305.34   -37270.302     3551.284   -40821.586    717.33784   0.99671322 
   58900    288.75366   -361.21089    125346.95   -37314.023    3592.6445   -40906.668    719.99264   0.99638238 
   59000    288.89874     74.55715    125129.02   -37322.965    3594.4495   -40917.414    720.00256   0.99811774 
   59100    288.20508    253.29585    125033.59   -37343.794    3585.8191   -40929.613    720.50778   0.99887955 
   59200    287.24742   -267.39459    124858.98   -37343.076     3573.904    -40916.98    721.29112    1.0002764 
   59300    291.74411   -157.97398     125017.4   -37311.764    3629.8513   -40941.615    723.33385   0.99900884 
   59400    282.23988   -25.457017    124767.67   -37388.185    3511.6007   -40899.785    722.84135    1.0010085 
   59500    282.49737      130.925    124777.09   -37338.554    3514.8044   -40853.359    723.32206    1.0009329 
   59600    287.55555    100.02645    125110.78   -37298.028    3577.7378   -40875.766    725.42252   0.99826326 
   59700    287.95099   -290.71481    125131.33   -37326.795    3582.6578   -40909.453    726.72179    0.9980993 
   59800    289.03772   -271.40933     125169.9    -37331.54    3596.1787   -40927.719    728.19615   0.99779175 
   59900    292.53522    51.663596    125287.72   -37328.572    3639.6943   -40968.267    730.60193   0.99685344 
   60000    285.41624    238.62204    125245.84   -37397.777    3551.1207   -40948.898     731.5302   0.99718674 
   60100     288.5456    167.49501    125195.51   -37337.659    3590.0559   -40927.715    733.10818   0.99758763 
   60200    286.91409    59.472724    124952.85   -37292.385    3569.7568   -40862.141    732.73977   0.99952493 
   60300    288.71914   -41.686451    125137.14   -37261.226     3592.215   -40853.441    735.34724   0.99805292 
   60400    296.71947   -329.01741     125060.2   -37214.033    3691.7543   -40905.788    736.30696   0.99866697 
   60500    293.67505    -144.4211    124710.21   -37226.877    3653.8759   -40880.753    737.03924    1.0014696 
   60600     290.4824   -370.19558    124744.78    -37293.84    3614.1533   -40907.993     738.8061    1.0011921 
   60700    290.46773   -135.41483    125003.79   -37322.682    3613.9708   -40936.652    741.19697   0.99911763 
   60800    287.84894    104.06727    124784.77   -37298.225     3581.388   -40879.613    741.24719    1.0008712 
   60900    292.02224     32.11929    125037.45   -37219.438    3633.3119    -40852.75    743.61014   0.99884866 
   61000    285.80948    89.943014    124921.06   -37327.939    3556.0133   -40883.952    745.07185   0.99977929 
   61100    287.97207    119.14622    125191.99   -37367.738      3582.92   -40950.658    747.82458   0.99761564 
   61200    290.47139   -78.884605    125255.53   -37399.569    3614.0163   -41013.585    750.39907   0.99710958 
   61300    289.03305   -184.35326    125045.66   -37377.117    3596.1206   -40973.238    751.65041   0.99878308 
   61400    287.11251    83.935324    125128.61   -37400.554    3572.2255    -40972.78    754.18984   0.99812097 
   61500    289.14707   -197.66005    124928.18   -37393.371    3597.5392   -40990.911    754.62957   0.99972231 
   61600    284.42052   0.64650088    125174.03   -37331.906     3538.732   -40870.638    756.59846   0.99775878 
   61700    286.46188   -14.253086    125072.69   -37475.264    3564.1304   -41039.395    757.57707   0.99856723 
   61800    284.49064   -304.62766    124753.43   -37522.446    3539.6044    -41062.05    757.21026    1.0011227 
   61900    287.38437    -201.7864     124869.2   -37478.404     3575.608   -41054.012     759.7728    1.0001945 
   62000    289.38878   -239.56907    124976.43   -37400.847    3600.5466   -41001.394    761.04543   0.99933639 
   62100    290.07284   -63.672792     124910.1    -37408.79    3609.0576   -41017.848     762.2134     0.999867 
   62200    284.08149     301.2383    125002.52   -37386.802    3534.5138   -40921.316    762.35794   0.99912782 
   62300    286.71991    54.668967    125326.73   -37389.438    3567.3408   -40956.779    764.71416    0.9965431 
   62400    296.07666    18.293547    125510.21   -37344.925    3683.7565   -41028.682    766.27771   0.99508627 
   62500    293.68466   -206.57747    125426.46   -37317.418    3653.9955   -40971.413    766.86316   0.99575077 
   62600    284.16095    115.48781    125625.66   -37355.287    3535.5025   -40890.789    768.46926   0.99417185 
   62700    291.61929    62.938382    125399.32   -37375.679    3628.2983   -41003.978    770.14013   0.99596625 
   62800    290.78003    43.599619    125569.07   -37344.823    3617.8564    -40962.68    773.01232   0.99461983 
   62900    285.66137    120.04367    125427.09   -37284.428    3554.1706   -40838.599    772.85885   0.99574571 
   63000     288.6245    64.115136    125236.84   -37239.053    3591.0375    -40830.09    773.48223   0.99725838 
   63100    292.36887   -66.705523    125452.21   -37187.899    3637.6246   -40825.524     775.8372   0.99554639 
   63200    294.55545    199.10981    125477.25   -37262.198    3664.8298   -40927.027    778.06006   0.99534771 
   63300    288.07122   -193.13722    125538.46   -37319.125    3584.1536   -40903.279    779.41482   0.99486239 
   63400    288.59237   -11.650452    125432.08   -37192.175    3590.6377   -40782.812    780.35512   0.99570613 
   63500    286.32228   -144.38582    125092.57   -37293.405    3562.3935   -40855.799    781.29855   0.99840857 
   63600    286.35018    100.79704     124959.6    -37294.55    3562.7407    -40857.29    782.15803   0.99947096 
   63700    293.66608   -127.35648    124960.05   -37263.539    3653.7643   -40917.304     782.6819   0.99946737 
   63800    285.08365    199.15129    124827.03   -37446.431    3546.9825   -40993.414    782.80638    1.0005324 
   63900    285.01411    218.68481    125126.94   -37432.029    3546.1174   -40978.147    785.60775   0.99813431 
   64000    283.10345    80.177377    124761.36   -37433.062    3522.3452   -40955.408    784.84668    1.0010591 
   64100    287.54836    111.24751    124918.81   -37335.885    3577.6483   -40913.533    786.49315   0.99979729 
   64200    291.76006   -265.00167     125066.4   -37300.257    3630.0498   -40930.307    787.89261    0.9986175 
   64300    288.87191     86.98843    124947.62   -37262.593    3594.1157   -40856.709    788.02829   0.99956681 
   64400    289.77229    60.392512    125315.66   -37223.551    3605.3182   -40828.869    790.43107   0.99663113 
   64500    289.58037   -6.2792525    124950.73   -37211.263    3602.9303   -40814.193    790.26701   0.99954195 
   64600    287.35218   -104.82191    124854.72    -37234.89    3575.2075   -40810.097     792.6643    1.0003105 
   64700    293.11636    87.413097    124827.52   -37279.632    3646.9248   -40926.557    793.86801    1.0005285 
   64800    286.84888    68.247765    124903.54    -37358.75    3568.9455   -40927.696    795.87536   0.99991953 
   64900    295.17356    50.512145    124926.87   -37281.357    3672.5203   -40953.877    797.38788   0.99973283 
   65000    287.96416    -64.46029    125074.32   -37256.105    3582.8216   -40838.926    798.63504   0.99855421 
   65100    285.68129    32.139546       125311   -37289.214    3554.4184   -40843.633    801.53436    0.9966682 
   65200    287.01767   -48.860623    125548.29   -37331.989    3571.0455   -40903.034    803.40062   0.99478452 
   65300    284.44875   -238.72971    125709.27   -37306.753    3539.0832   -40845.837    805.55964   0.99351062 
   65400    293.87065    149.67857    125529.87   -37247.091    3656.3095   -40903.401     805.4403   0.99493046 
   65500     286.7837    114.64224    125420.28   -37309.979    3568.1344   -40878.113    806.43499   0.99579981 
   65600    287.72463   -130.90102    125248.87   -37300.021    3579.8414   -40879.863    806.32779   0.99716263 
   65700     283.1112   -110.14166    125011.61   -37421.662    3522.4415   -40944.104    805.68637   0.99905512 
   65800    286.26086    8.1354373    124874.45    -37387.94    3561.6293   -40949.569    805.98181    1.0001525 
   65900    284.33132    230.44655    124883.61    -37392.47    3537.6222   -40930.092    807.45166    1.0000791 
   66000    290.59783    12.258941    125230.93   -37236.806    3615.5895   -40852.395    810.35731   0.99730549 
   66100    292.43175    345.75029    125161.53   -37104.356    3638.4069   -40742.763    811.22363   0.99785848 
   66200    293.41421   -214.99856     125184.2   -37114.827    3650.6306   -40765.458    812.36924   0.99767772 
   66300    290.56631    149.85498    125002.73   -37152.993    3615.1973   -40768.191    812.97156   0.99912607 
   66400    290.57895    112.10926    125101.15    -37220.58    3615.3546   -40835.935    813.30448   0.99834008 
   66500    290.50525    49.043274    124977.67   -37233.196    3614.4376   -40847.633    814.19528   0.99932643 
   66600    293.45269   -198.77498    125104.75    -37294.24    3651.1093   -40945.349    815.16878   0.99831134 
   66700     292.7372    241.99718    125072.82   -37331.051    3642.2073   -40973.258    817.01126   0.99856623 
   66800    288.56933  -0.54884792    125335.03    -37252.63     3590.351   -40842.981    819.60356    0.9964771 
   66900    292.84043   -81.553895     125340.8   -37294.915    3643.4916   -40938.407     820.9656   0.99643125 
   67000    289.87194    40.795545    125492.74   -37362.667     3606.558   -40969.225    822.56846   0.99522479 
[...]
   84600    277.17857    166.23875    125000.35   -37402.535    3448.6283   -40851.163    1026.8582   0.99914517 
   84700    291.03136    49.238077    125182.39   -37422.286    3620.9834   -41043.269    1027.9799    0.9976922 
   84800    282.93552    85.106183    125230.58   -37410.454    3520.2557    -40930.71    1030.2975   0.99730822 
   84900    285.16698   -118.75246    125462.23   -37393.383    3548.0193   -40941.402    1032.8529   0.99546683 
   85000    289.20508   -79.072083    125406.84   -37316.829    3598.2611    -40915.09     1033.486    0.9959065 
   85100    289.32625    76.100817     125421.1   -37306.103    3599.7686   -40905.872    1035.5783   0.99579332 
   85200    287.17716     84.06239     125009.7   -37351.112    3573.0299   -40924.142    1034.2782   0.99907037 
   85300    285.10267    62.361343    125365.02   -37349.034    3547.2192   -40896.253    1037.5191   0.99623872 
   85400    288.69487   -156.21181    124988.77   -37325.284     3591.913   -40917.197    1036.0524   0.99923773 
   85500    292.69979    155.89426    125167.07   -37283.931    3641.7419   -40925.673    1038.1438   0.99781427 
   85600    292.85458   -90.197989     125422.4   -37247.656    3643.6677   -40891.323    1039.3007     0.995783 
   85700    284.05217   -63.919186    125269.63   -37331.374     3534.149   -40865.523     1039.497   0.99699739 
   85800    289.90968    96.892299    125212.19   -37332.738    3607.0276   -40939.766    1041.0088   0.99745473 
   85900    289.84718    333.50232    125361.99   -37219.354      3606.25   -40825.604      1043.21   0.99626287 
   86000    295.78125   -295.09742    125366.59   -37276.593     3680.081   -40956.674    1045.2552   0.99622624 
   86100    292.41704   -133.09084    125409.38   -37282.869    3638.2239   -40921.093    1047.3562   0.99588637 
   86200    295.67698   -41.025691    125172.13   -37223.683    3678.7837   -40902.467    1047.1896   0.99777395 
   86300    288.13246   -41.700514    125307.21   -37293.749    3584.9155   -40878.665    1049.5334   0.99669836 
   86400    289.86764    74.326745    125348.75   -37309.299    3606.5045   -40915.804    1049.9827   0.99636804 
   86500    292.45828    5.6909365    125315.25   -37293.432     3638.737   -40932.169    1050.2874    0.9966344 
   86600    291.52892    132.88805    125156.42   -37246.698     3627.174   -40873.872     1050.311   0.99789922 
   86700    295.19556   -349.06554    125083.74   -37213.989    3672.7939   -40886.783    1052.0421   0.99847901 
   86800    286.98018   -4.0664269    125138.98   -37269.727     3570.579   -40840.306    1054.2503   0.99803826 
   86900    289.04788    210.41275    125354.32   -37274.107    3596.3051   -40870.412    1056.4646   0.99632376 
   87000    294.32968    13.270167     125298.1   -37249.737    3662.0208   -40911.758     1057.458   0.99677085 
   87100    288.13649   -97.269786    125037.33   -37281.084    3584.9658    -40866.05    1057.5354   0.99884963 
   87200     287.5399   -94.239622    125337.24   -37332.348     3577.543   -40909.891    1059.9137   0.99645953 
   87300    287.91946     -73.7471     125090.5   -37327.734    3582.2654   -40909.999    1058.8248    0.9984251 
   87400    292.12639    8.4451318       125044   -37348.822    3634.6076    -40983.43    1060.0391   0.99879634 
   87500    282.62714   -82.370804     125172.1   -37313.533     3516.419   -40829.952    1061.7013   0.99777422 
   87600    289.90316   -148.16117    125284.54   -37339.275    3606.9464   -40946.221    1062.4073   0.99687871 
   87700    287.57673    -133.3491    125075.08   -37367.426    3578.0013   -40945.427    1062.7917   0.99854816 
   87800    288.41214   -70.144407    125056.93   -37312.823    3588.3954   -40901.218    1063.4688   0.99869305 
   87900    286.84061   -2.4727446    124861.53   -37388.201    3568.8425   -40957.043    1063.1864    1.0002559 
   88000     278.8152    123.30601     124943.9   -37416.686    3468.9911   -40885.677    1064.8597   0.99959657 
   88100    285.19618   -211.13402    124777.61   -37338.743    3548.3827   -40887.126    1065.5891    1.0009287 
   88200    293.04883    253.28129    124650.45   -37311.971    3646.0846   -40958.056    1066.0526    1.0019497 
   88300    286.07283    105.38106     125127.4   -37316.415    3559.2898   -40875.705    1071.0473   0.99813066 
   88400    286.66022   -119.94053    125246.22   -37388.502    3566.5981   -40955.101    1071.0334   0.99718371 
   88500    288.98076   -31.377415    125087.07   -37358.997      3595.47   -40954.467    1071.5716   0.99845246 
   88600    293.35376    401.86846    125197.64   -37267.048    3649.8784   -40916.926    1073.4202   0.99757065 
   88700    297.53473    44.981982    125220.36   -37247.977    3701.8977   -40949.875    1073.4117   0.99738964 
   88800    291.04754    39.141147    125215.41   -37187.163    3621.1847   -40808.348    1074.7642   0.99742911 
   88900    293.93752    222.50983     125237.2   -37184.554    3657.1415   -40841.695    1076.8273   0.99725554 
   89000    293.92323    77.110211    125361.43   -37130.473    3656.9637   -40787.436     1078.707   0.99626727 
   89100    290.96549     120.1557    125494.38   -37253.241    3620.1638   -40873.405     1081.061   0.99521185 
   89200    287.04451    -262.1218    125211.06   -37335.159    3571.3794   -40906.538     1080.966   0.99746373 
   89300    282.20809    370.29101    124949.72   -37399.699    3511.2052   -40910.904    1079.7358      0.99955 
   89400    289.10567    59.163102    125193.07   -37391.878    3597.0242   -40988.902    1083.9544   0.99760703 
   89500    281.20456   -224.31663    124976.17   -37431.406    3498.7193   -40930.125    1084.1549   0.99933845 
   89600    284.42878   -55.157027    125018.53   -37548.024    3538.8347   -41086.859    1085.5073   0.99899981 
   89700      282.976    152.09847    125172.57   -37482.452    3520.7594   -41003.212    1087.7979   0.99777047 
   89800      283.921     145.0027    125281.63   -37406.698     3532.517   -40939.215    1089.6962    0.9969019 
   89900    286.39888   -7.6459866    125444.01   -37489.338    3563.3466   -41052.684    1091.5173   0.99561142 
   90000    283.56873   -167.96674    125559.99   -37400.192    3528.1341   -40928.326    1094.5964   0.99469181 
   90100    291.08485    63.791179    125348.85    -37360.52    3621.6489   -40982.169    1095.2979   0.99636724 
   90200     285.8551   -122.86811    125177.96   -37435.268    3556.5809   -40991.849    1095.4656   0.99772748 
   90300    284.93287    23.087511    125154.44   -37495.203    3545.1066    -41040.31    1096.6838     0.997915 
   90400    282.09577   -42.293577    125099.24   -37441.483    3509.8076    -40951.29    1096.5237   0.99835529 
   90500    290.10236    10.424042    124959.55   -37373.576    3609.4248       -40983    1097.3391   0.99947138 
   90600    288.11903     234.6415    125297.04   -37296.546    3584.7484   -40881.295    1101.2636   0.99677927 
   90700    287.89791    240.61128    125432.39   -37254.093    3581.9973    -40836.09    1104.0683    0.9957037 
   90800    285.77778    55.153585    125519.95   -37334.518    3555.6189   -40890.137    1106.3633   0.99500907 
   90900    289.61092    72.725844    125797.45   -37389.586    3603.3104   -40992.896    1110.6024   0.99281417 
   91000    285.99142    255.11942    125886.13    -37435.81     3558.277   -40994.087      1112.53    0.9921148 
   91100    290.30381   -189.02291    125943.37   -37424.669    3611.9313     -41036.6    1113.4051   0.99166388 
   91200    288.62814   -228.44193     125619.1   -37369.539    3591.0828   -40960.622    1111.8475    0.9942237 
   91300    298.28072    -56.18363    125748.21   -37284.945    3711.1792   -40996.125    1114.1053   0.99320293 
   91400    289.77834   -110.47589    125876.64   -37248.089    3605.3935   -40853.483    1116.0935   0.99218956 
   91500    287.40571   -331.30142    125494.45   -37237.253    3575.8734   -40813.127    1114.1046   0.99521125 
   91600    287.73544    39.309289    125374.21   -37281.393    3579.9759   -40861.369    1114.8875   0.99616572 
   91700    282.99146    -294.2868    125226.04   -37370.009    3520.9518   -40890.961    1115.7892   0.99734442 
   91800    293.56494   -139.92534    125240.17   -37364.064    3652.5059    -41016.57    1116.4473   0.99723187 
   91900    293.30409   -260.41321    125435.55   -37316.733    3649.2605   -40965.994    1117.6101   0.99567857 
   92000    286.79338    132.17409    125503.69   -37376.975    3568.2549    -40945.23    1119.5531   0.99513803 
   92100    283.83469   -213.62441    125345.82   -37426.634    3531.4432   -40958.077    1119.6575   0.99639134 
   92200    288.82964     -43.4082    125152.62    -37376.78    3593.5898   -40970.369    1119.3759   0.99792953 
   92300    294.18524    11.909756    125309.26   -37254.896    3660.2237    -40915.12    1122.0234   0.99668204 
   92400    284.86868    174.41243    125267.62   -37222.675    3544.3079   -40766.983    1123.4575   0.99701333 
   92500    289.65234   -72.745466     125117.6   -37294.282    3603.8258   -40898.108    1123.7118   0.99820878 
   92600    293.26333    71.018486    125610.57   -37256.304    3648.7534   -40905.057    1128.3498   0.99429128 
   92700    289.86467    5.3929551    125202.29   -37254.597    3606.4676   -40861.065    1126.8841    0.9975336 
   92800    291.19633   -209.51258    125153.87   -37304.777     3623.036   -40927.813    1127.6444    0.9979195 
   92900    288.32057   -113.05535    125088.97   -37306.554     3587.256    -40893.81    1127.6496   0.99843729 
   93000    290.36145    48.781681    125010.41   -37325.983    3612.6485   -40938.631    1128.2306   0.99906469 
   93100    294.27884    10.114142    124926.51   -37233.367    3661.3882   -40894.755    1129.2605   0.99973569 
   93200    285.99827    182.33953    124998.79   -37269.946    3558.3622   -40828.308    1131.2615    0.9991576 
   93300    286.77726   -223.37951    125119.75   -37276.692    3568.0543   -40844.747    1132.4135   0.99819169 
   93400    285.37917    107.64549    124992.76   -37313.888    3550.6594   -40864.547    1132.2669   0.99920578 
   93500    288.04145    -180.1044    124822.09   -37332.823    3583.7832   -40916.606     1132.222     1.000572 
   93600    285.72491   -121.82914    124728.85   -37442.159    3554.9611    -40997.12    1132.0896      1.00132 
   93700     286.6059    177.05436    124918.14   -37395.645    3565.9223   -40961.568    1135.2214   0.99980265 
   93800    290.18133     20.03918    124941.54   -37343.048    3610.4074   -40953.456    1137.6536   0.99961539 
   93900    290.05859    24.237542     125213.2   -37334.906    3608.8803   -40943.786    1140.1407    0.9974467 
   94000    289.14832   -18.314033    124961.11   -37352.987    3597.5548   -40950.542    1139.5974    0.9994589 
   94100    288.95599    239.53553    125239.37   -37359.851    3595.1619   -40955.013    1144.3336   0.99723828 
   94200    286.95324   -2.0982685    125343.82    -37374.39    3570.2438   -40944.633    1146.1565   0.99640726 
   94300    290.85531    136.13912    125462.81   -37343.894     3618.793   -40962.687    1148.6649   0.99546229 
   94400    291.12204   -127.58893    125571.17   -37281.251    3622.1116   -40903.363    1149.6129    0.9946032 
   94500    291.17164    76.514696    125499.99   -37240.179    3622.7288   -40862.908    1150.7068   0.99516737 
   94600    287.87818    65.538206     125382.3   -37292.213    3581.7519   -40873.964     1151.084   0.99610145 
   94700    289.63215   -214.29297    125428.78   -37302.418    3603.5746   -40905.992    1151.5112   0.99573231 
   94800    290.62711   -141.11079    125176.67   -37313.196    3615.9538    -40929.15    1152.1251   0.99773779 
   94900    293.45766    36.803918     125101.2   -37238.128    3651.1712     -40889.3    1151.3862   0.99833967 
   95000     291.2886    100.59112     125145.5   -37258.877    3624.1839   -40883.061    1151.7005   0.99798626 
   95100    291.36193    264.39131    125156.61   -37228.972    3625.0963   -40854.069    1154.1901   0.99789766 
   95200    289.09499   -86.992119    125344.94   -37229.212    3596.8912   -40826.103    1156.5758   0.99639838 
   95300    291.82167   -130.16937    125130.98   -37099.018    3630.8164   -40729.834    1156.8115   0.99810211 
   95400    292.63572    37.161758    124959.92   -37175.213    3640.9447   -40816.158    1157.0452   0.99946843 
   95500    293.22254    240.61267    125132.62   -37171.062    3648.2459   -40819.308    1161.0543   0.99808901 
   95600    295.34823   -148.34881    125091.22   -37200.825    3674.6935   -40875.518    1162.1185    0.9984193 
   95700    287.88369   -75.526296    124885.83   -37264.117    3581.8204   -40845.937      1162.41    1.0000614 
   95800    289.51861   -92.079931     124876.7   -37326.511     3602.162   -40928.673     1164.444    1.0001345 
   95900    284.68185   -318.13781    124879.87    -37305.25    3541.9834   -40847.234    1165.8303    1.0001091 
   96000     287.7942    50.613761    124839.42   -37398.584     3580.707   -40979.291    1167.4568    1.0004331 
   96100    289.61946   -101.33149    124846.45    -37358.57    3603.4167   -40961.987    1167.8379    1.0003768 
   96200    294.95254   -223.75595    124395.77   -37401.462    3669.7704   -41071.232    1166.5955    1.0040011 
   96300    287.89003    357.77275    124770.96   -37353.978    3581.8994   -40935.878    1169.9062     1.000982 
   96400    288.36264     29.87627    124991.69    -37300.06    3587.7794   -40887.839    1172.8042   0.99921437 
   96500    287.65998    63.572139     124939.3   -37358.047     3579.037   -40937.084    1173.6279   0.99963338 
   96600    289.54053    246.28413    125098.32    -37323.17    3602.4346   -40925.605    1176.2331   0.99836267 
   96700    285.23424    36.013241    125112.15   -37416.488    3548.8562   -40965.345    1178.2481   0.99825228 
   96800    283.78812   -13.452308    125091.04   -37489.788    3530.8638   -41020.652    1180.2986   0.99842079 
   96900    280.57489   -75.542654    125002.94   -37401.978    3490.8851   -40892.863    1180.0906   0.99912441 
   97000    284.82081   -138.43127    125066.56   -37404.439    3543.7123   -40948.151    1180.6999   0.99861617 
   97100    289.14144   -117.19183    124951.68    -37390.34    3597.4692   -40987.809    1182.4954   0.99953428 
   97200    283.13576   -23.822179    124873.02   -37446.832    3522.7471   -40969.579    1183.4731    1.0001639 
   97300    279.35756   -23.395114     124760.8    -37447.12    3475.7391   -40922.859    1185.2194    1.0010636 
   97400    285.16203    45.570262    124741.31   -37454.686    3547.9577   -41002.644     1187.415      1.00122 
   97500    289.94474   -83.017426    124991.14   -37326.418    3607.4638   -40933.882    1190.3603   0.99921874 
   97600    287.39614    23.786281    125155.62   -37359.188    3575.7544   -40934.943    1192.4807   0.99790561 
   97700    286.58732    22.625381    125087.98   -37321.524    3565.6911   -40887.216    1192.7041    0.9984452 
   97800    291.72805    255.41768     125213.6   -37238.347    3629.6516   -40867.999    1195.2966   0.99744349 
   97900    290.38436    1.3689319    125011.91   -37227.955    3612.9335   -40840.888    1195.6485   0.99905271 
   98000    285.04603    61.924987    124864.75   -37259.268    3546.5145   -40805.783    1194.7005    1.0002302 
   98100     288.4408   -76.279882    124951.29   -37374.443    3588.7519   -40963.195    1196.8802   0.99953741 
   98200    288.79786    13.810856    124814.39   -37317.432    3593.1944   -40910.626      1197.72    1.0006338 
   98300    289.96952   -188.72279    124950.09   -37289.161    3607.7721   -40896.933    1200.0772   0.99954706 
   98400    288.02961    85.631026    125143.62   -37278.508     3583.636   -40862.144    1201.7293    0.9980013 
   98500    287.46925   -380.22107    124838.81   -37327.513     3576.664   -40904.177     1201.798     1.000438 
   98600    286.46915    89.021825    124808.69   -37389.386    3564.2209   -40953.607    1202.5332    1.0006795 
   98700    285.89208   -88.692546    125010.65   -37424.616    3557.0411   -40981.657    1205.9376   0.99906282 
   98800    287.89737    130.51033    124754.19   -37397.688    3581.9906   -40979.679    1205.8285    1.0011166 
   98900    286.23879   -131.31617    124892.25   -37427.659    3561.3548   -40989.014    1208.2424    1.0000099 
   99000    287.00235   -14.054817    124575.28    -37394.66    3570.8549   -40965.515    1207.4654    1.0025544 
   99100    285.91294   -166.34898    124682.42   -37335.686    3557.3005   -40892.987    1209.1666    1.0016929 
   99200    291.92315     160.5291     124907.4   -37320.091     3632.079    -40952.17    1212.4545   0.99988867 
   99300    293.74393    39.501355    125082.75   -37322.176     3654.733   -40976.909    1215.0921   0.99848697 
   99400    284.38896   -128.38082    125039.09   -37282.227    3538.3393   -40820.567    1216.4441   0.99883561 
   99500     295.7638    47.150188    125291.07   -37085.953    3679.8639   -40765.817    1219.2943   0.99682676 
   99600    296.61981    79.651627    125572.78   -37151.409    3690.5144   -40841.923    1222.7145   0.99459046 
   99700    291.37104   -255.08203    125506.73   -37144.158    3625.2097   -40769.368    1222.6322   0.99511388 
   99800    291.38446   -125.07441    125226.51   -37159.549    3625.3766   -40784.925     1222.476   0.99734069 
   99900    285.83328    275.24956    125128.54   -37221.677    3556.3094   -40777.987    1222.9406   0.99812155 
  100000    292.88568       46.035    125063.69   -37212.186    3644.0547   -40856.241    1224.3188    0.9986391 
  100100    292.66427    79.599343    124903.12   -37156.207    3641.2999   -40797.507    1224.5197   0.99992293 
  100200    293.69364    77.594055    125348.01    -37151.46    3654.1073   -40805.568    1229.3796   0.99637392 
  100300    293.34516    66.772138     125631.9   -37143.071    3649.7715   -40792.842    1232.6555   0.99412245 
  100400    292.81877    -11.09814     125438.6   -37156.454    3643.2221   -40799.676    1233.5962   0.99565434 
  100500    292.28272    -17.86123    124913.26     -37075.4    3636.5527   -40711.953    1231.1659   0.99984171 
  100600    286.29587   -153.11912    124695.89   -37160.392    3562.0649   -40722.457    1230.8657    1.0015847 
  100641    294.02114    368.71707    124780.04   -37146.669    3658.1819   -40804.851    1232.5208    1.0009092 
Loop time of 124.034 on 11 procs for 100000 steps with 4175 atoms

Performance: 348.292 ns/day, 0.069 hours/ns, 806.231 timesteps/s
99.5% CPU use with 11 MPI tasks x no OpenMP threads

MPI task timing breakdown:
Section |  min time  |  avg time  |  max time  |%varavg| %total
---------------------------------------------------------------
Pair    | 94.212     | 102.9      | 105.9      |  36.6 | 82.96
Neigh   | 4.1472     | 4.5989     | 4.8044     |   8.6 |  3.71
Comm    | 7.0506     | 10.662     | 20.527     | 133.0 |  8.60
Output  | 0.16883    | 0.16993    | 0.17925    |   0.7 |  0.14
Modify  | 3.914      | 5.0601     | 6.072      |  31.9 |  4.08
Other   |            | 0.6406     |            |       |  0.52

Nlocal:    379.545 ave 391 max 369 min
Histogram: 1 1 0 2 2 2 2 0 0 1
Nghost:    1752.45 ave 1794 max 1721 min
Histogram: 2 0 2 1 2 1 0 2 0 1
Neighs:    0 ave 0 max 0 min
Histogram: 11 0 0 0 0 0 0 0 0 0
FullNghs:  11030.4 ave 11263 max 10749 min
Histogram: 2 0 0 1 1 2 1 1 2 1

Total # of neighbors = 121334
Ave neighs/atom = 29.062
Neighbor list builds = 6963
Dangerous builds = 0

undump              1
unfix               2
unfix               3
unfix               4


################################################
#######         Run Simulation         #########
################################################

reset_timestep      0
log                 log.run_${NAME}
log                 log.run_liquid_289K_1atm_ML
