
# Create simulation box of size 50 x 50 x 50 Angstrom
#
lattice	            sc 1
Lattice spacing in x,y,z = 1.0000000 1.0000000 1.0000000
region 	            all block 0 50 0 50 0 50 units box
create_box          1 all
Created orthogonal box = (0.0000000 0.0000000 0.0000000) to (50.000000 50.000000 50.000000)
  1 by 2 by 3 MPI processor grid

# fill box with 4175 randomly distributed atoms
#
create_atoms        1 random 4175 63782 all
Created 4175 atoms
  create_atoms CPU = 0.001 seconds
mass                1 18.015

# Define potential
#
pair_style          sw
pair_coeff          * * ML_mW.sw mW
Reading sw potential file ML_mW.sw with DATE: 2019-02-27

# Run minimization
#
minimize            1.0e-8 1.0e-8 10000 1000
WARNING: Using 'neigh_modify every 1 delay 0 check yes' setting during minimization (../min.cpp:187)
Neighbor list info ...
  update every 1 steps, delay 0 steps, check yes
  max neighbors/atom: 2000, page size: 100000
  master list distance cutoff = 6.0032907
  ghost atom cutoff = 6.0032907
  binsize = 3.0016454, bins = 17 17 17
  1 neighbor lists, perpetual/occasional/extra = 1 0 0
  (1) pair sw, perpetual
      attributes: full, newton on
      pair build: full/bin/atomonly
      stencil: full/bin/3d
      bin: standard
Per MPI rank memory allocation (min/avg/max) = 4.255 | 4.258 | 4.261 Mbytes
Step Temp E_pair E_mol TotEng Press 
       0            0    7792709.3            0    7792709.3    5898794.3 
     630            0   -45180.336            0   -45180.336   -154.07449 
Loop time of 1.14457 on 6 procs for 630 steps with 4175 atoms

98.9% CPU use with 6 MPI tasks x no OpenMP threads

Minimization stats:
  Stopping criterion = max force evaluations
  Energy initial, next-to-last, final = 
      7792709.32924461  -45180.0188663597   -45180.336116598
  Force two-norm initial, final = 2.0191930e+08 4.9721331
  Force max component initial, final = 1.0948746e+08 0.73126211
  Final line search alpha, max atom move = 0.053306038 0.038980685
  Iterations, force evaluations = 630 1000

MPI task timing breakdown:
Section |  min time  |  avg time  |  max time  |%varavg| %total
---------------------------------------------------------------
Pair    | 0.88737    | 0.9875     | 1.066      |   5.9 | 86.28
Neigh   | 0.02383    | 0.024429   | 0.024974   |   0.2 |  2.13
Comm    | 0.03378    | 0.1128     | 0.21395    |  17.6 |  9.85
Output  | 0          | 0          | 0          |   0.0 |  0.00
Modify  | 0          | 0          | 0          |   0.0 |  0.00
Other   |            | 0.01985    |            |       |  1.73

Nlocal:        695.833 ave         704 max         685 min
Histogram: 1 1 0 0 1 0 0 1 0 2
Nghost:        1494.17 ave        1515 max        1468 min
Histogram: 1 1 0 0 0 0 1 1 1 1
Neighs:        0.00000 ave           0 max           0 min
Histogram: 6 0 0 0 0 0 0 0 0 0
FullNghs:      19997.0 ave       20462 max       19320 min
Histogram: 1 1 0 0 0 0 0 2 0 2

Total # of neighbors = 119982
Ave neighs/atom = 28.738204
Neighbor list builds = 26
Dangerous builds = 0

# Add velocity/set timestep
#
velocity            all create ${TEMP} 120598 rot yes dist gaussian
velocity            all create 210 120598 rot yes dist gaussian
timestep            5.0

# Define output
#
compute	            1 all msd
thermo	            100
thermo_style        custom step temp press vol etotal ke pe c_1[4] density

# Neighbor lists
#
neigh_modify        delay 0 every 1 check yes

# Set fixes
#
fix                 1 all momentum 10 linear 1 1 1 rescale
fix                 2 all nve
fix                 3 all temp/csvr ${TEMP} ${TEMP} 500.0 928347
fix                 3 all temp/csvr 210 ${TEMP} 500.0 928347
fix                 3 all temp/csvr 210 210 500.0 928347
fix                 4 all press/berendsen iso ${PRES} ${PRES} 1000.0 modulus 20000
fix                 4 all press/berendsen iso -550 ${PRES} 1000.0 modulus 20000
fix                 4 all press/berendsen iso -550 -550 1000.0 modulus 20000

# Run 0.5 ns equilibration
#
dump                1 all custom 1000 eq.${NAME}.dump id type x y z vx vy vz
dump                1 all custom 1000 eq.liquid_density_MLmW.dump id type x y z vx vy vz
run                 100000
Per MPI rank memory allocation (min/avg/max) = 3.506 | 3.508 | 3.511 Mbytes
Step Temp Press Volume TotEng KinEng PotEng c_1[4] Density 
     630          210    801.42152       125000   -42567.537    2612.7992   -45180.336 2.7295415e-33   0.99914793 
     700    134.15881   -421.61839    125954.08   -41760.615    1669.1906   -43429.805   0.24432483   0.99157959 
     800    163.28919   -700.16442    126263.99   -41028.399    2031.6279   -43060.027   0.55639641   0.98914574 
     900    185.41404   -307.72031    126265.69   -40615.781    2306.9032   -42922.685    0.9044804   0.98913244 
    1000    192.94378   -613.81142    126431.25   -40352.405    2400.5874   -42752.992    1.3217797   0.98783721 
    1100    200.30283   -500.23123    126713.89   -40178.994     2492.148   -42671.142    1.6329661   0.98563381 
    1200     203.6351   -656.94099    126968.43   -40217.537    2533.6078   -42751.144    1.9348257   0.98365785 
    1300    209.38027   -415.71605    127112.98    -40221.56    2605.0887   -42826.649    2.2617892   0.98253923 
    1400     201.9822    -666.6751    127317.15   -40236.346    2513.0426   -42749.388     2.515246   0.98096364 
    1500    208.26539    -474.5009    127256.27   -40217.678    2591.2173   -42808.895    2.8124113   0.98143288 
    1600    211.86871    -304.5161    127522.03   -40142.518    2636.0495   -42778.567    3.1145703   0.97938753 
    1700     212.9423   -311.76617    127916.11   -40183.782    2649.4071   -42833.189    3.4005546   0.97637033 
    1800    207.30689   -559.24957    128280.32   -40290.576    2579.2918   -42869.867     3.660321   0.97359822 
    1900    207.36676   -633.46383    128290.87   -40313.051    2580.0367   -42893.088    3.8876469   0.97351814 
    2000    213.40566   -518.97238    128470.74   -40289.872    2655.1722   -42945.044    4.1371151   0.97215511 
    2100    217.23929   -403.84218    128590.01   -40278.815    2702.8698   -42981.684    4.4011209   0.97125342 
    2200    214.64054   -652.57209    128535.33   -40336.077    2670.5364   -43006.614    4.6485642   0.97166666 
    2300     210.9574   -534.61145    128481.64   -40343.268    2624.7112   -42967.979     4.852444   0.97207267 
    2400     211.7222   -510.10017    128391.65   -40363.546    2634.2267   -42997.773    5.1064872   0.97275399 
    2500    213.30941   -422.21925    128749.99    -40319.23    2653.9746   -42973.205    5.3900635   0.97004662 
    2600    214.52246   -660.01014    128695.95   -40285.026    2669.0673   -42954.093    5.6766717   0.97045397 
    2700    219.19187   -515.72435    128865.78   -40331.044    2727.1636   -43058.207    5.8267347   0.96917498 
    2800    214.94058   -537.96393    128939.05   -40330.309    2674.2694   -43004.579    6.0096563   0.96862427 
    2900    211.21004   -534.24383    129128.32   -40407.249    2627.8544   -43035.104    6.1871551   0.96720447 
    3000    210.94344   -505.59219    129126.08   -40456.998    2624.5375   -43081.536    6.2185074   0.96722126 
    3100    211.75211   -600.19467     129208.4   -40443.452    2634.5989   -43078.051    6.6174034   0.96660506 
    3200    210.15849    -566.7881    129236.24   -40498.045    2614.7711   -43112.816    6.7684954   0.96639682 
    3300     211.0666   -569.28437    129264.06   -40498.547    2626.0697   -43124.617    7.0167777    0.9661888 
    3400    207.79244   -610.82111    129288.91   -40538.461    2585.3331   -43123.794    7.2465005   0.96600311 
    3500    210.39887   -334.29256    129360.55   -40564.854    2617.7619   -43182.616    7.4464436   0.96546813 
    3600    214.42389   -490.81911    129549.31   -40621.429    2667.8409   -43289.269     7.639261   0.96406144 
    3700    207.22919   -471.29713    129737.22    -40710.68    2578.3251   -43289.005    7.8609709    0.9626651 
    3800     208.3238   -707.48121    129660.81   -40673.035    2591.9441   -43264.979    8.0361912   0.96323235 
    3900     208.6963   -542.45986    129844.49   -40701.234    2596.5788   -43297.813    8.2485474   0.96186981 
    4000    205.92167   -541.69082    129858.36   -40710.435    2562.0571   -43272.492    8.2899862   0.96176703 
    4100     210.1467   -498.04263     130072.4     -40702.1    2614.6245   -43316.724    8.4182351   0.96018445 
    4200    206.99608    -564.3173    130117.79   -40723.654    2575.4248   -43299.079    8.5232309   0.95984948 
    4300    209.75277   -425.34448    130239.41   -40720.424    2609.7233   -43330.148    8.7189141   0.95895311 
    4400    212.56926   -493.51246    130285.97   -40733.153    2644.7657   -43377.919    8.8131966   0.95861042 
    4500    207.07222   -460.58768    130341.55   -40749.254    2576.3721   -43325.626    8.8881128   0.95820171 
    4600    210.75193   -462.60862       130369   -40803.356    2622.1547   -43425.511    9.0292558   0.95799993 
    4700    215.87329   -551.01382    130613.87   -40727.373    2685.8742   -43413.247     9.153446   0.95620389 
    4800    209.27091   -539.30664    130660.67   -40808.064     2603.728   -43411.792    9.3040943   0.95586139 
    4900    214.86264   -441.05543    130784.01   -40709.371    2673.2997   -43382.671    9.3758459   0.95495993 
    5000    214.51499   -571.19325    130849.59   -40674.215    2668.9743   -43343.189    9.5253759   0.95448131 
    5100    215.04537    -508.7072    131032.69   -40754.152    2675.5733   -43429.726    9.6016926   0.95314756 
    5200    210.04733   -635.65953    130790.17   -40833.112    2613.3881     -43446.5     9.872311   0.95491499 
    5300    211.35818   -522.33615    130784.13   -40810.053    2629.6975   -43439.751    10.112941   0.95495906 
    5400    210.33704   -659.86001     130923.9   -40854.308    2616.9926   -43471.301    10.200141   0.95393956 
    5500    210.16853   -508.26565    130918.52   -40879.523    2614.8961   -43494.419    10.216378   0.95397881 
    5600    207.76747   -539.06666    131105.22   -40894.916    2585.0223   -43479.938    10.456919   0.95262027 
    5700    211.35024   -668.03507    131079.15   -40898.797    2629.5988   -43528.395    10.587507   0.95280971 
    5800    207.55236   -651.81959    131168.98   -40936.909     2582.346   -43519.255    10.665577   0.95215723 
    5900    206.03007   -634.55963    131017.31   -40970.155    2563.4058   -43533.561    10.735733   0.95325948 
    6000    209.81868   -386.70701    131107.14   -40967.802    2610.5433   -43578.346    10.704214   0.95260634 
    6100    207.96567   -506.21162    131295.16    -40903.25    2587.4883   -43490.738    10.833837   0.95124218 
    6200    207.75591   -489.63261     131209.5   -40968.725    2584.8785   -43553.603    10.827242   0.95186317 
    6300    208.73076   -485.06494    131365.49   -40947.828    2597.0075   -43544.835     11.09492   0.95073291 
    6400    205.86405   -477.80121    131467.25   -40932.624    2561.3401   -43493.964    11.061328   0.94999702 
    6500    214.13451   -576.40316    131653.71   -40896.142    2664.2404   -43560.383    11.135901    0.9486515 
    6600    211.36278   -630.36032     131524.5   -40987.776    2629.7549    -43617.53     11.22607   0.94958345 
    6700      207.248   -489.32352    131482.05   -41055.054    2578.5591   -43633.613    11.482507   0.94989005 
    6800    206.11382    -437.7479    131658.42   -40972.677    2564.4478   -43537.124    11.452059    0.9486176 
    6900    211.38345   -515.92739    131857.34   -40906.904     2630.012   -43536.916    11.408722   0.94718651 
    7000    213.21629   -466.48764    131730.99   -40900.216     2652.816   -43553.032    11.536188   0.94809495 
    7100    211.26408   -630.25124     131655.2    -40939.61    2628.5268   -43568.137    11.642342   0.94864078 
    7200    212.08815   -500.92344    131683.67   -41002.706    2638.7798   -43641.486    11.794402   0.94843564 
    7300    206.37364   -598.31369    131754.36   -41061.114    2567.6804   -43628.794     11.86099   0.94792679 
    7400    206.90727   -549.64772    131730.09   -41097.566    2574.3198   -43671.886    11.932091   0.94810148 
    7500    208.09776   -388.70451    131790.49   -41077.484    2589.1318   -43666.616    11.886466   0.94766697 
    7600    211.01031   -518.26862    131953.44   -41169.685    2625.3695   -43795.055    12.015961   0.94649666 
    7700     207.9766    -627.0516    131991.65   -41088.555    2587.6243   -43676.179    12.125432   0.94622267 
    7800    210.95673   -514.41096    131991.02   -41063.406    2624.7028   -43688.109    12.108317    0.9462272 
    7900    204.20381   -534.29986    132045.86   -41131.855    2540.6836   -43672.538    12.256836   0.94583421 
    8000    211.20862   -441.76799    132047.27   -41115.551    2627.8367   -43743.387    12.261195   0.94582409 
    8100    204.47946   -437.82546    132134.31   -41186.349    2544.1132   -43730.463    12.427393   0.94520107 
    8200    208.47945    -569.2412    132097.55   -41208.973    2593.8807   -43802.854    12.428194   0.94546412 
    8300    208.12071   -494.64695    132184.27   -41208.326    2589.4173   -43797.744    12.535096   0.94484383 
    8400    208.17576    -536.2974     132416.4   -41164.852    2590.1022   -43754.954    12.554637   0.94318748 
    8500    209.19505   -506.43028    132429.37   -41112.556    2602.7841    -43715.34    12.640514    0.9430951 
    8600    212.30626   -517.22978    132552.11   -41134.427    2641.4935   -43775.921    12.715973   0.94222182 
    8700    209.41294   -590.78305    132635.16    -41123.32    2605.4951   -43728.815    12.840835   0.94163187 
    8800    208.97664   -477.49651    132674.75    -41166.82    2600.0666   -43766.887     13.00151   0.94135087 
    8900    206.59455   -599.11063    132759.17    -41252.99     2570.429   -43823.419    12.991755   0.94075225 
    9000     212.3315   -498.30053    132900.91   -41219.961    2641.8076   -43861.769    13.074797   0.93974892 
    9100    205.84796   -574.66509    132929.87   -41290.092    2561.1399   -43851.232    12.988322   0.93954422 
    9200    211.40615   -535.49413    132990.64   -41203.066    2630.2945   -43833.361    13.248144   0.93911488 
    9300    210.85503   -489.78372    133077.95     -41260.9    2623.4374   -43884.338     13.29416   0.93849877 
    9400     209.3647   -515.49402    133191.79   -41226.705    2604.8949     -43831.6    13.332527    0.9376966 
    9500    210.75595   -497.44948    133099.92    -41255.35    2622.2047   -43877.555    13.251763   0.93834381 
    9600    209.80221   -704.75103     133085.2   -41226.675    2610.3383   -43837.014    13.235348   0.93844763 
    9700    211.42886    -593.3914    132981.42   -41175.161     2630.577   -43805.738    13.396653      0.93918 
    9800     210.4904   -742.26328    132987.89   -41243.025    2618.9008   -43861.926    13.346722   0.93913429 
    9900    209.61558   -514.78238     133001.1   -41321.249    2608.0163   -43929.265    13.427151     0.939041 
   10000    203.95619   -612.05442    133161.81   -41312.328    2537.6027    -43849.93    13.414696   0.93790774 
   10100    209.52379   -565.37546    133193.78    -41279.74    2606.8743   -43886.614    13.502958    0.9376826 
   10200    208.96203   -525.74386    133157.65   -41338.914    2599.8849   -43938.799    13.441051   0.93793705 
   10300    207.68299   -530.19583    133168.97   -41336.953    2583.9713   -43920.924    13.468134   0.93785732 
   10400    210.14734   -417.64237    133257.14   -41286.162    2614.6324   -43900.794    13.615116   0.93723679 
   10500    206.79187   -665.86351     133232.4   -41250.833     2572.884   -43823.717    13.568842   0.93741082 
   10600    211.68816   -497.14735    133338.47    -41191.16    2633.8031   -43824.963    13.815974   0.93666512 
   10700    212.41042   -505.01073    133262.21   -41185.072    2642.7895   -43827.862    13.793514   0.93720109 
   10800     217.1805   -489.82729    133520.28   -41177.856    2702.1383   -43879.994    13.901254   0.93538969 
   10900     209.6357   -596.20344    133551.66    -41218.76    2608.2666   -43827.026    13.977732   0.93516987 
   11000     213.7272   -460.85187    133463.88   -41210.962    2659.1727   -43870.135    14.046624   0.93578494 
   11100    212.61483   -505.04836    133371.76   -41251.557    2645.3327   -43896.889     14.01419   0.93643128 
   11200    210.07833   -648.41045     133481.2   -41245.416    2613.7738    -43859.19    14.137224   0.93566354 
   11300     215.3794     -608.542    133565.03   -41232.945    2679.7292   -43912.674     14.08844   0.93507625 
   11400    212.52228   -558.16362    133559.24   -41251.445    2644.1813   -43895.626    14.276346   0.93511681 
   11500    211.30789   -543.35075    133340.72    -41275.11    2629.0719   -43904.182    14.275491   0.93664929 
   11600    207.27499   -660.32176    133146.01   -41289.583    2578.8949   -43868.478      14.2755   0.93801906 
   11700    210.02314   -584.85789    133139.57   -41192.775    2613.0871   -43805.862    14.235485   0.93806443 
   11800    209.35607   -416.55581    133207.27   -41247.515    2604.7875   -43852.302     14.23198   0.93758763 
   11900    211.56127   -414.54923    133251.76   -41257.252    2632.2244   -43889.477    14.219248   0.93727462 
   12000    207.58945    -486.7917    133354.86   -41262.157    2582.8074   -43844.965    14.336615   0.93654999 
   12100    211.39426   -707.84904    133268.88   -41233.315    2630.1465   -43863.461    14.462251   0.93715423 
   12200    209.00101   -535.97998    133095.22   -41245.928    2600.3699   -43846.298    14.450633   0.93837695 
   12300    208.86388   -436.05129    133035.61   -41264.025    2598.6638   -43862.689    14.498163   0.93879744 
   12400    209.52341   -406.78013    133207.64   -41244.886    2606.8696   -43851.756    14.624084   0.93758508 
   12500    205.35747   -657.16552    133187.15   -41328.274    2555.0373   -43883.312    14.722076    0.9377293 
   12600    211.64738   -546.02569    133195.98   -41250.306    2633.2958   -43883.602    14.683079   0.93766715 
   12700     210.6368   -514.21344    133111.61   -41243.288    2620.7223    -43864.01    14.670282   0.93826145 
   12800    212.32636   -432.71789    132962.96   -41210.273    2641.7435   -43852.017    14.827573   0.93931037 
   12900    208.72636    -429.0032     133154.6   -41272.056    2596.9527   -43869.009    14.854739    0.9379585 
   13000    214.41408   -573.57644     133293.4   -41224.614    2667.7188   -43892.333    14.775901    0.9369818 
   13100    213.48505   -692.82729    133171.23   -41240.867    2656.1599   -43897.027    14.693046   0.93784139 
   13200     216.2297    -544.9443    133000.64    -41170.05    2690.3085   -43860.358    14.713769   0.93904428 
   13300    217.04166   -541.13596    133159.67   -41216.174    2700.4108   -43916.584    14.919775   0.93792277 
   13400    209.38394   -669.59948    133022.28   -41294.579    2605.1343   -43899.714    14.870247   0.93889155 
   13500    213.97311   -499.22574    133120.37   -41316.696    2662.2323   -43978.929    14.948244   0.93819969 
   13600    211.19412   -667.38472    133023.28   -41347.595    2627.6564   -43975.252    15.084224   0.93888449 
   13700    207.11204   -482.35002     133007.5    -41341.33    2576.8675   -43918.197    15.076342   0.93899589 
   13800     208.7803   -543.95586    132938.69   -41260.652    2597.6239   -43858.276    15.089721   0.93948188 
   13900    209.63069   -552.97507    133032.12   -41303.157    2608.2043   -43911.362    15.047251   0.93882209 
   14000     209.2182   -655.17788     133149.6   -41297.883    2603.0721   -43900.955    15.023595   0.93799371 
   14100    211.95778   -529.95807    133329.04   -41305.027    2637.1577   -43942.185    15.295613   0.93673133 
   14200    208.28303   -681.86775     133390.3   -41348.823    2591.4369    -43940.26    15.400409   0.93630115 
   14300    206.56885   -612.12168    133113.32    -41390.23    2570.1093   -43960.339    15.423327   0.93824938 
   14400    209.91493   -476.74508    133227.81   -41358.292    2611.7408   -43970.032    15.413907    0.9374431 
   14500    206.05427   -602.67387    133160.44   -41288.505    2563.7068   -43852.212    15.471222   0.93791736 
   14600     213.3677   -666.92915    133042.69   -41291.186    2654.6998   -43945.886    15.393746   0.93874747 
   14700    206.53224   -668.27243     133095.4   -41335.693    2569.6537   -43905.347    15.573355    0.9383757 
   14800    209.22531   -619.72409     133215.4    -41363.82    2603.1606   -43966.981    15.614407   0.93753042 
   14900    207.51932   -383.03652    133159.87   -41432.945    2581.9349    -44014.88    15.578956   0.93792142 
   15000    205.21536   -458.84056    133215.07   -41437.523    2553.2692   -43990.793    15.570391   0.93753273 
   15100    203.68064    -525.1896    133293.26   -41462.659    2534.1744   -43996.834    15.745105   0.93698277 
   15200    205.54922   -472.89998    133230.08    -41394.73     2557.423   -43952.153    15.800772   0.93742716 
   15300     207.8342   -606.58638    133127.58   -41403.147    2585.8526   -43988.999    15.858086   0.93814886 
   15400    207.08054   -387.43143    133066.43   -41399.922    2576.4756   -43976.397    15.896292   0.93858004 
   15500    203.68812   -612.80331    132903.19   -41376.733    2534.2674   -43911.001    16.053791   0.93973286 
   15600    209.38327   -843.39361     132711.2   -41307.376    2605.1259   -43912.502    16.028127    0.9410923 
   15700    203.98873   -481.73244    132703.93   -41386.923    2538.0076   -43924.931    16.004939    0.9411439 
   15800    206.70596   -640.34811    132727.78   -41382.002    2571.8151   -43953.817    16.084467   0.94097474 
   15900    208.08796   -609.73926    132760.07   -41419.029    2589.0098   -44008.039    16.102105   0.94074588 
   16000    208.14304    -538.8641    132619.15   -41352.509    2589.6951   -43942.204    16.145028   0.94174555 
   16100    207.89324   -634.41697    132698.26   -41303.156    2586.5871   -43889.743    16.334838   0.94118408 
   16200    209.49959   -674.95124    132641.02   -41360.321    2606.5732   -43966.894    16.248979   0.94159022 
   16300      210.232   -484.04446    132745.63    -41374.48    2615.6858   -43990.166    16.353474   0.94084823 
   16400    210.63646   -415.25829    132745.47    -41277.53     2620.718   -43898.248    16.486464   0.94084938 
   16500    215.04069   -538.77569    132948.39   -41281.046     2675.515   -43956.561    16.552554   0.93941336 
   16600    212.35536   -501.95271    133043.35   -41263.314    2642.1044   -43905.419    16.695764   0.93874282 
   16700    211.45296   -275.69977    133183.35   -41301.085    2630.8769   -43931.962    16.887008   0.93775603 
   16800     209.8555   -531.67603    133288.75   -41289.202    2611.0013   -43900.204     16.81838   0.93701451 
   16900    216.32709   -557.75176    133272.01   -41271.164    2691.5202   -43962.685    16.861487   0.93713221 
   17000    211.22662   -658.35588    133335.89   -41307.195    2628.0607   -43935.256    16.906285   0.93668323 
   17100    212.44485   -630.11023    133320.28   -41232.779    2643.2178   -43875.997    17.105911    0.9367929 
   17200    212.99641   -646.44482    133203.78   -41252.794    2650.0803   -43902.874    17.051783   0.93761223 
   17300    211.27605   -400.26719    133168.26   -41313.037    2628.6757   -43941.713    17.131684   0.93786228 
   17400    208.09635   -504.06638    133264.47   -41335.124    2589.1142   -43924.238    17.178762   0.93718519 
   17500    209.89423   -682.74738     133237.3   -41317.575    2611.4832   -43929.058    17.222525   0.93737633 
   17600    209.96755    -638.2322    133392.65   -41286.936    2612.3955   -43899.331    17.251079   0.93628463 
   17700    206.59399   -536.86775    133351.68   -41304.101     2570.422   -43874.523    17.265592    0.9365723 
   17800    208.96115   -521.78965    133317.48   -41305.911     2599.874   -43905.785    17.080033   0.93681259 
   17900    214.83628   -497.94137    133369.19    -41288.11    2672.9717   -43961.081    17.157808   0.93644934 
   18000    212.15062   -351.37038    133429.27   -41250.367     2639.557   -43889.924    17.134756   0.93602772 
   18100    211.71442   -643.09644    133466.81   -41355.668    2634.1299   -43989.798    17.275609   0.93576441 
   18200    209.02812   -702.89964    133390.77   -41364.492    2600.7073     -43965.2    17.317024   0.93629786 
   18300    212.80884   -627.43087    133545.38   -41283.458    2647.7465   -43931.205     17.37406   0.93521386 
   18400    213.69293   -525.35358    133574.63   -41358.475    2658.7463   -44017.221    17.450584    0.9350091 
   18500    207.86144     -446.056    133501.11   -41339.051    2586.1914   -43925.243    17.623719   0.93552402 
   18600    209.01084   -460.23792    133494.68   -41382.603    2600.4923   -43983.095    17.568915   0.93556905 
   18700    212.58929   -519.35557    133759.75   -41352.106    2645.0149   -43997.121    17.600229   0.93371506 
   18800    214.89569   -368.97378    133748.13    -41324.41    2673.7109   -43998.121    17.669897   0.93379614 
   18900    210.94496   -570.89021    133690.86   -41365.709    2624.5563   -43990.265    17.889316   0.93419619 
   19000    209.30407   -476.60377    133655.44   -41349.193    2604.1406   -43953.334    17.884377   0.93444376 
   19100    205.01841   -530.32724       133736   -41404.781    2550.8187     -43955.6    17.935087   0.93388087 
   19200    212.75006   -483.47546    133733.02   -41368.742    2647.0152   -44015.757    17.918444    0.9339017 
   19300    214.70102   -473.35505    133680.31   -41312.806    2671.2888   -43984.095    18.018729    0.9342699 
   19400    213.31766   -632.10362    133746.96   -41327.571    2654.0772   -43981.648    18.195272   0.93380432 
   19500    210.71464   -584.72574    133796.01   -41317.279    2621.6907   -43938.969     18.15113     0.933462 
   19600    213.20662   -416.62883    133834.92    -41356.68    2652.6958   -44009.375    18.089032    0.9331906 
   19700    212.24085    -438.8022    133762.68   -41329.034    2640.6797   -43969.714    18.223096   0.93369457 
   19800    210.97099   -403.31474    133674.77   -41370.454    2624.8802   -43995.334    18.178289    0.9343086 
   19900    212.74306    -366.5543    133746.57   -41379.798    2646.9282   -44026.726    18.296737   0.93380705 
   20000    210.40239   -503.59478    133810.26   -41431.615    2617.8058   -44049.421    18.257869    0.9333626 
   20100    213.46443   -471.15738    133842.43   -41401.336    2655.9034    -44057.24    18.203698   0.93313822 
   20200    210.10472   -632.35082    133725.39   -41461.231    2614.1022   -44075.333    18.222679   0.93395493 
   20300     209.9099   -426.31845    133837.22   -41501.746    2611.6782   -44113.425    18.246124   0.93317455 
   20400    206.65832   -678.74668    133825.86   -41503.738    2571.2223    -44074.96     18.32158   0.93325381 
   20500     207.1624   -607.21169    133845.68   -41471.169    2577.4941   -44048.663    18.385194   0.93311558 
   20600    209.42037   -488.21252    133755.16   -41507.487    2605.5875   -44113.074    18.309156   0.93374712 
   20700    211.48472   -608.92665    133899.61   -41451.503     2631.272   -44082.775    18.356075   0.93273974 
   20800    207.24616   -557.02412    133883.14     -41456.7    2578.5363   -44035.236    18.428291   0.93285454 
   20900     208.6667   -509.57549    133921.54    -41489.66    2596.2104    -44085.87    18.433701   0.93258701 
   21000    206.12095      -507.51    133920.32   -41568.894    2564.5365   -44133.431    18.413591   0.93259555 
   21100    203.44648   -595.43779    133871.69   -41573.885     2531.261   -44105.146    18.594301   0.93293429 
   21200    208.58761   -701.27545    133968.77   -41543.359    2595.2264   -44138.586    18.525078   0.93225827 
   21300    207.57097   -578.90639    133693.45   -41551.661    2582.5775   -44134.238    18.656562    0.9341781 
   21400    209.45545   -518.64932    133873.75   -41502.708     2606.024   -44108.732    18.590687   0.93291992 
   21500    210.30973   -552.09235    133936.28   -41499.749    2616.6528   -44116.402    18.583267   0.93248442 
   21600    211.38749   -613.10463    133909.17   -41448.599    2630.0623   -44078.662    18.582443   0.93267315 
   21700    209.44695   -599.88201    133812.47   -41413.755    2605.9182   -44019.673    18.663049   0.93334717 
   21800    209.26763   -554.24981    133767.86   -41406.252    2603.6872   -44009.939    18.761557   0.93365846 
   21900     209.1273   -489.31494    133760.02   -41420.542    2601.9412   -44022.483    18.735348   0.93371313 
   22000    207.16669   -617.82146    133735.04   -41458.903    2577.5474    -44036.45    18.831478   0.93388755 
   22100    214.30138   -581.65453    133898.04   -41397.893    2666.3166   -44064.209    18.978089   0.93275072 
   22200    216.82757   -724.42786    133993.66    -41436.92    2697.7472   -44134.667     18.97007   0.93208507 
   22300     209.3617    -493.5302    133939.51   -41423.135    2604.8576   -44027.993    18.962207   0.93246193 
   22400    210.35168   -518.23007     133947.1   -41400.157    2617.1748   -44017.332    18.883478   0.93240908 
   22500    212.88606   -469.74165    133939.92     -41411.5    2648.7073   -44060.207    18.968967   0.93245908 
   22600    214.15442   -539.62357    133862.69   -41382.931    2664.4882   -44047.419    18.996249   0.93299701 
   22700    215.09253    -552.6251    134106.44   -41393.393      2676.16   -44069.553    19.086676   0.93130123 
   22800    213.85678   -536.75144    134090.96   -41387.912     2660.785   -44048.697     19.13422   0.93140874 
   22900    210.79008   -555.71969    134087.11   -41441.382    2622.6293   -44064.012    18.967088   0.93143549 
   23000    212.03531   -575.20348    134089.15   -41427.095    2638.1224   -44065.217    19.109806   0.93142133 
   23100    208.14945   -502.33392    134306.37   -41524.483    2589.7749   -44114.258    19.087584   0.92991489 
   23200    212.64002   -550.04445    134207.48   -41475.145    2645.6461   -44120.791    19.279679   0.93060005 
   23300    211.31834   -423.46191    134235.66   -41523.846    2629.2019   -44153.048     19.18092   0.93040473 
   23400    211.68072   -560.30174     134240.4   -41464.444    2633.7105   -44098.154    19.317703   0.93037185 
   23500    213.16032   -565.52836    134195.87   -41499.886    2652.1197   -44152.005    19.322094   0.93068062 
   23600    209.54922   -418.04438    134326.27   -41487.153    2607.1906   -44094.344    19.273048   0.92977711 
   23700    209.65934   -714.26161    134289.52   -41535.265    2608.5608   -44143.826    19.440838   0.93003155 
   23800    206.15711   -378.82646    134212.56   -41588.296    2564.9864   -44153.283    19.496853   0.93056483 
   23900    205.80426   -602.07154    134259.39   -41596.731    2560.5963   -44157.327    19.538678   0.93024026 
   24000     209.2526   -546.43765    134385.27   -41524.355    2603.5001   -44127.855    19.657948   0.92936892 
   24100    210.32363   -523.85485    134256.09   -41526.119    2616.8258   -44142.945     19.74508   0.93026317 
   24200    209.23814   -602.81563    134335.48   -41588.125    2603.3203   -44191.445    19.738221   0.92971337 
   24300    209.05407   -601.34785    134340.96   -41559.757    2601.0301   -44160.787    19.680053   0.92967542 
   24400    207.27161   -571.09586     134249.8   -41600.894    2578.8528   -44179.747    19.543006   0.93030675 
   24500    212.15093   -623.38735    134359.23   -41560.117    2639.5609   -44199.678     19.62599     0.929549 
   24600    209.23966   -622.94659    134432.25   -41552.352    2603.3392   -44155.691    19.725367   0.92904414 
   24700    211.63399   -541.39987    134424.24    -41576.63    2633.1292   -44209.759    19.873262    0.9290995 
   24800    207.50565   -550.14298    134486.87   -41570.253    2581.7648   -44152.018    19.798724   0.92866677 
   24900    212.43395   -589.90837    134418.37   -41512.407    2643.0822   -44155.489    19.832148   0.92914004 
   25000    210.38147   -612.19104     134355.9   -41492.829    2617.5455   -44110.374     19.75785   0.92957207 
   25100    209.54508   -379.03588    134525.66   -41490.685    2607.1392   -44097.824    19.876246   0.92839902 
   25200    208.47145   -521.18969    134494.57   -41530.111    2593.7811   -44123.892    19.852708   0.92861363 
   25300    213.06273    -553.9494    134595.28    -41541.65    2650.9055   -44192.555    19.828726   0.92791883 
   25400    214.52216   -608.32398    134665.93   -41532.988    2669.0635   -44202.052    19.903131   0.92743201 
   25500    207.44194   -567.17371    134585.52   -41497.214    2580.9721   -44078.186     20.10642   0.92798608 
   25600    207.52182   -535.28842    134515.41    -41576.54    2581.9659   -44158.506    20.216827   0.92846978 
   25700    207.65263    -527.5368    134469.54   -41598.824    2583.5934   -44182.417    20.125916   0.92878648 
   25800    209.95034   -440.87119    134454.25   -41578.679    2612.1814    -44190.86     20.15721   0.92889213 
   25900    211.42093   -596.01436    134599.64    -41536.27    2630.4783   -44166.748    20.218071   0.92788873 
   26000    213.46965   -495.68927     134458.1   -41474.379    2655.9683   -44130.347    20.310676   0.92886552 
   26100    209.00183   -530.30056     134439.9   -41557.642    2600.3802   -44158.022     20.22471   0.92899128 
   26200     208.0951   -645.59017    134517.13    -41544.99    2589.0987   -44134.089    20.258506   0.92845788 
   26300    209.66982   -639.63822    134596.26   -41520.575    2608.6911   -44129.266    20.333345   0.92791208 
   26400    212.90695   -565.96551    134555.55    -41501.99    2648.9672   -44150.957    20.400496   0.92819277 
   26500    207.45859   -577.19294    134582.72   -41552.079    2581.1792   -44133.259    20.495643   0.92800537 
   26600    209.79242   -472.67842    134700.14   -41592.294    2610.2165    -44202.51    20.333569   0.92719646 
   26700    207.72898   -560.65131    134587.67    -41610.31    2584.5434   -44194.853    20.348552   0.92797127 
   26800    209.18193   -482.42364    134616.43   -41538.275     2602.621   -44140.896    20.387649   0.92777305 
   26900    210.23714    -564.8796    134623.58   -41533.661    2615.7497   -44149.411    20.479019   0.92772373 
   27000    208.86825   -495.85572    134607.82   -41570.955    2598.7181   -44169.673    20.551826   0.92783233 
   27100    202.50812    -609.4269    134677.93   -41570.069     2519.586   -44089.655    20.563131   0.92734933 
   27200    206.36435   -464.49256    134746.24   -41586.196    2567.5649   -44153.761    20.631624   0.92687922 
   27300    205.59075    -603.5803    134792.25   -41613.537    2557.9398   -44171.476    20.603997   0.92656283 
   27400    212.89005   -536.97003    134679.25   -41566.818     2648.757   -44215.575    20.698013   0.92734029 
   27500    212.31568   -554.33586    134757.44   -41519.301    2641.6107   -44160.912    20.688733   0.92680223 
   27600    211.95128   -546.38093    134838.03   -41552.273    2637.0768    -44189.35    20.798642   0.92624828 
   27700    212.22063   -513.68244    134788.61   -41565.367    2640.4281   -44205.795    20.730644   0.92658786 
   27800    214.35588   -699.30462    134740.04    -41505.39    2666.9946   -44172.385    20.874765   0.92692187 
   27900    209.52821   -472.78444    134770.02   -41531.406    2606.9292   -44138.335    20.792318   0.92671571 
   28000     208.1222   -688.59745    134625.83   -41567.352    2589.4358   -44156.788    20.854249   0.92770826 
   28100    210.38907   -645.04452    134470.26   -41556.504      2617.64   -44174.144    20.835895   0.92878154 
   28200    207.21196   -509.48988    134569.75   -41596.872    2578.1107   -44174.983    20.929085   0.92809483 
   28300    211.53265   -526.12775     134506.4   -41581.151    2631.8683   -44213.019    20.770623   0.92853197 
   28400    209.17322   -454.85216    134667.35    -41626.02    2602.5125   -44228.532    20.931568   0.92742218 
   28500    206.34164   -560.14889    134716.14   -41648.848    2567.2823   -44216.131    21.076844   0.92708634 
   28600    209.05687   -589.71466    134551.85   -41615.082    2601.0649   -44216.146    21.080661   0.92821834 
   28700    208.67933   -518.28375    134653.57   -41619.837    2596.3677   -44216.205    20.950149   0.92751715 
   28800    212.04612   -540.60946    134533.62   -41594.518    2638.2569   -44232.775    20.944516   0.92834407 
   28900    213.32968   -443.24001     134620.4   -41568.272    2654.2267   -44222.499    20.999236   0.92774563 
   29000    209.39099    -579.3361    134610.14   -41643.178    2605.2219     -44248.4    21.096551   0.92781636 
   29100    211.11717   -408.94369    134486.33   -41601.316    2626.6989   -44228.015    21.104712   0.92867055 
   29200    209.79394   -609.61084    134483.48   -41569.761    2610.2354   -44179.996    20.919261   0.92869019 
   29300    209.03468   -625.87821    134506.72    -41629.58    2600.7888   -44230.369    20.947725   0.92852974 
   29400    206.81703   -508.72676    134517.08   -41686.562    2573.1971   -44259.759    21.108948   0.92845821 
   29500    206.45337   -538.52981    134416.14   -41713.748    2568.6725    -44282.42    21.145563   0.92915545 
   29600    211.52298   -528.04273    134603.84   -41628.951     2631.748   -44260.699    21.084478   0.92785979 
   29700    208.65344   -427.25822    134521.92   -41675.004    2596.0455    -44271.05    20.960271   0.92842485 
   29800    209.91922   -525.98569    134376.64   -41644.888    2611.7941   -44256.682    21.010981   0.92942859 
   29900    209.34749   -516.53302    134314.35   -41659.256    2604.6807   -44263.937    21.104868   0.92985965 
   30000    209.08261   -447.88779    134411.17   -41628.163    2601.3852   -44229.548    21.094256   0.92918985 
   30100    205.52208   -383.00326    134619.68   -41622.695    2557.0854    -44179.78    21.100937   0.92775064 
   30200    209.59871   -627.64992    134533.19   -41630.436    2607.8064   -44238.243    21.147244   0.92834706 
   30300    208.01602   -668.27351    134546.81   -41583.585    2588.1148     -44171.7    21.159198   0.92825311 
   30400    203.92778   -561.95407    134381.05   -41558.981    2537.2493   -44096.231    21.162282   0.92939808 
   30500    212.10396     -613.496    134289.09   -41571.333    2638.9765   -44210.309    21.214686   0.93003454 
   30600    210.87373   -631.23407    134228.29    -41583.77    2623.6701    -44207.44    21.311022   0.93045582 
   30700    208.93355   -526.02188    134290.71   -41594.823    2599.5306   -44194.353    21.261432   0.93002331 
   30800    212.37384   -568.25316    134202.49   -41533.313    2642.3344   -44175.647    21.211303   0.93063467 
   30900    206.56462   -466.86052    134270.63   -41645.616    2570.0566   -44215.672    21.200316   0.93016243 
   31000    207.37879   -462.48766    134409.03   -41672.533    2580.1864   -44252.719    21.210988   0.92920462 
   31100    206.63474   -455.52886    134374.27   -41675.413    2570.9291   -44246.342     21.28114   0.92944497 
   31200    207.53123   -657.69815    134453.63   -41686.976    2582.0831   -44269.059    21.397368   0.92889639 
   31300    209.26835   -456.39663    134523.03   -41639.662    2603.6961   -44243.358    21.324352   0.92841717 
   31400    209.24556    -448.0771    134457.23   -41603.697    2603.4126    -44207.11    21.335782   0.92887149 
   31500    209.68253   -512.80337    134526.72   -41659.994    2608.8493   -44268.843    21.428508   0.92839172 
   31600    209.63269   -509.84002    134504.24   -41600.756    2608.2293   -44208.986    21.408421   0.92854684 
   31700     211.2472   -514.45345    134580.27   -41632.517    2628.3168   -44260.834     21.47314   0.92802229 
   31800    214.43779   -482.45812    134626.47   -41569.725    2668.0138   -44237.739    21.600363   0.92770383 
   31900    213.59137    -595.7846    134663.04   -41566.218    2657.4827   -44223.701    21.570901   0.92745191 
   32000    209.79313   -614.42996    134453.96   -41569.429    2610.2254   -44179.655    21.749151   0.92889409 
   32100    214.90935   -574.77998    134578.26   -41587.567    2673.8808   -44261.448    21.698416   0.92803613 
   32200    211.88558   -709.48937    134479.11   -41587.552    2636.2595   -44223.812    21.678697    0.9287204 
   32300    208.63375    -601.7224    134427.52   -41571.919    2595.8005    -44167.72    21.552217   0.92907679 
   32400    212.97061   -520.94085    134411.52   -41633.398    2649.7593   -44283.157    21.614231   0.92918743 
   32500    209.72165   -585.52996    134332.17   -41645.267    2609.3361   -44254.603    21.658171   0.92973624 
   32600    209.56737   -449.49569    134550.95   -41590.079    2607.4165   -44197.496    21.769438   0.92822454 
   32700    209.14925    -438.9711    134555.51     -41651.8    2602.2143   -44254.015    21.800258   0.92819305 
   32800    209.40024    -500.0766     134588.1   -41687.959    2605.3371   -44293.296    21.751554    0.9279683 
   32900    211.04997   -637.58114    134565.25   -41687.071    2625.8629   -44312.933    21.799927   0.92812587 
   33000    207.22774   -444.58506    134536.28   -41742.091    2578.3071   -44320.398    21.960078   0.92832575 
   33100    209.36612   -436.58867    134502.76   -41658.564    2604.9126   -44263.477    21.948164   0.92855711 
   33200     209.4457   -615.32375    134523.41   -41695.576    2605.9027   -44301.479    21.970714   0.92841455 
   33300    209.33815   -471.42557    134554.47   -41638.777    2604.5646   -44243.342     21.87082   0.92820024 
   33400    208.36459   -551.91199    134386.57   -41708.557    2592.4516   -44301.009    22.034059   0.92935994 
   33500    212.71763   -563.87641    134460.41   -41669.247    2646.6117   -44315.859    22.183257   0.92884954 
   33600    209.92751   -526.05986    134461.71   -41637.682    2611.8974    -44249.58    22.142242   0.92884059 
   33700    212.34594   -495.46052    134510.13   -41627.133    2641.9872    -44269.12    22.098798   0.92850623 
   33800    208.58733   -513.33411    134578.78   -41620.488     2595.223   -44215.711    22.089163   0.92803255 
   33900    208.92765   -459.82952    134717.55   -41631.634    2599.4571   -44231.091    22.113942   0.92707659 
   34000    213.38785   -518.26937     134586.2   -41606.715    2654.9505   -44261.665    22.081811   0.92798138 
   34100    211.54903   -538.86464    134699.09   -41651.798    2632.0721    -44283.87    22.201285   0.92720369 
   34200    209.53883   -324.02328     134626.7   -41665.999    2607.0614    -44273.06    22.180349   0.92770224 
   34300    208.90233   -535.34711    134573.37   -41721.814    2599.1422   -44320.956    22.251977   0.92806991 
   34400    209.73088   -469.26331     134504.4   -41653.541    2609.4509   -44262.992    22.284519   0.92854575 
   34500    208.63959   -580.15807    134521.33   -41663.064    2595.8731   -44258.937    22.114704   0.92842891 
   34600    208.07922   -561.97875    134498.77   -41647.943     2588.901   -44236.844    22.204563   0.92858467 
   34700    202.92294    -418.9028    134542.45   -41717.484    2524.7471   -44242.231    22.320757   0.92828317 
   34800    207.28941   -482.37024    134448.79   -41707.275    2579.0744   -44286.349    22.269799   0.92892981 
   34900    207.03174   -548.87879    134424.43   -41710.525    2575.8684   -44286.393    22.359894   0.92909814 
   35000     208.2833   -593.01428    134319.81   -41771.959    2591.4402   -44363.399    22.400745   0.92982183 
   35100    204.17546   -608.36939    134297.98   -41703.664    2540.3309   -44243.995    22.323793   0.92997296 
   35200    207.75601   -434.41182    134498.47   -41692.818    2584.8797   -44277.698    22.387955   0.92858668 
   35300    206.05402   -533.62533    134282.38   -41691.129    2563.7038   -44254.832    22.302289   0.93008099 
   35400    206.62431   -574.34226    134399.41   -41723.185    2570.7992   -44293.985    22.357357   0.92927114 
   35500    212.93921     -623.898    134374.68   -41625.721    2649.3686    -44275.09    22.297344   0.92944212 
   35600    210.06135   -602.48802    134305.01   -41671.147    2613.5625    -44284.71    22.430615   0.92992426 
   35700    209.53195    -465.4275    134343.27   -41632.186    2606.9758   -44239.161    22.544761   0.92965948 
   35800    209.09184   -523.80552    134448.73   -41662.798       2601.5   -44264.298    22.504586   0.92893023 
   35900    212.58255   -654.96698     134415.5   -41618.419    2644.9311    -44263.35    22.488401   0.92915991 
   36000    211.79214   -652.56628    134564.86   -41583.361    2635.0968   -44218.458    22.485369   0.92812856 
   36100    212.42791    -611.0241    134486.49   -41604.666    2643.0071   -44247.673    22.479499   0.92866943 
   36200    209.46644    -517.5307    134464.14   -41631.064    2606.1607   -44237.225    22.555339   0.92882376 
   36300     210.4749   -545.56762    134441.54   -41686.749    2618.7079   -44305.457    22.440513   0.92897995 
   36400    214.20845   -435.19325    134543.18   -41628.423    2665.1604   -44293.584    22.449988   0.92827811 
   36500    208.33468   -645.46794    134604.52   -41618.126    2592.0795   -44210.205    22.545147   0.92785509 
   36600    205.60997   -572.08295    134508.28   -41740.874    2558.1789   -44299.053    22.505359     0.928519 
   36700    210.05556   -575.71173     134461.6   -41699.172    2613.4905   -44312.663    22.657054   0.92884133 
   36800    209.41747   -495.50781    134490.76   -41690.124    2605.5515   -44295.676     22.87047   0.92863991 
   36900    208.61672    -542.1843    134376.68   -41717.238    2595.5886   -44312.827    22.820749   0.92942834 
   37000    210.29915   -582.03959    134397.91   -41665.581    2616.5212   -44282.102    22.890758   0.92928147 
   37100      211.536   -592.60013    134367.86   -41649.947      2631.91   -44281.857    22.801607   0.92948932 
   37200    208.83127   -516.72865     134344.9   -41700.284     2598.258   -44298.542    22.689504   0.92964819 
   37300    210.60031   -389.87156    134539.42   -41697.566    2620.2683   -44317.835     22.75622   0.92830404 
   37400    208.70715    -567.7375    134534.31   -41722.577    2596.7138   -44319.291    22.852792   0.92833932 
   37500    209.94311   -556.15296    134532.46   -41733.432    2612.0914   -44345.524    22.879863   0.92835211 
   37600     208.2356   -635.65618    134529.21   -41709.494    2590.8468    -44300.34    22.904231    0.9283745 
   37700    207.62112   -504.80123    134633.96   -41713.581    2583.2014   -44296.783    22.852214   0.92765222 
   37800    202.35116   -521.42216    134690.11   -41801.436    2517.6331    -44319.07    22.899487   0.92726546 
   37900    210.67293   -455.57075    134710.88   -41754.649    2621.1717   -44375.821    22.931994   0.92712253 
   38000    207.96861   -565.17242    134584.88   -41723.983    2587.5249   -44311.508    22.975644   0.92799051 
   38100    206.56827   -637.25452    134705.47   -41678.681    2570.1019   -44248.783    23.035586   0.92715979 
   38200    208.55181   -463.96775    134622.08   -41698.363     2594.781   -44293.144    22.984946   0.92773405 
   38300    207.61588   -574.34511    134549.63   -41638.549    2583.1363   -44221.685    23.041796   0.92823365 
   38400    211.04896   -310.67935    134658.92   -41701.686    2625.8502   -44327.537    23.085395   0.92748027 
   38500    212.35249   -444.49395    134694.87   -41712.296    2642.0686   -44354.364    23.113964   0.92723272 
   38600    210.09688    -517.1699    134611.57   -41675.293    2614.0046   -44289.298     23.14241   0.92780651 
   38700    209.91736   -554.71875     134766.9   -41683.042    2611.7711   -44294.813    23.268291   0.92673713 
   38800    208.33596   -670.64697    134827.48   -41714.517    2592.0954   -44306.612    23.197659   0.92632077 
   38900    210.48335    -524.7705    134885.09   -41685.598    2618.8131   -44304.411    23.355949   0.92592513 
   39000    209.55455   -448.50485    134903.76   -41733.509     2607.257   -44340.766    23.430166   0.92579699 
   39100    212.15444   -737.69839    134883.38   -41704.628    2639.6046   -44344.233     23.47671   0.92593682 
   39200    210.28334   -410.84689    134747.76   -41730.855    2616.3245   -44347.179      23.4054   0.92686879 
   39300     209.2239   -569.28565    134808.04   -41722.555    2603.1431   -44325.698    23.358377   0.92645431 
   39400    212.70555    -584.2917    134760.73    -41693.16    2646.4614   -44339.621    23.449893   0.92677954 
   39500    208.20826   -544.76157    134763.59   -41665.068    2590.5066   -44255.574    23.502518   0.92675987 
   39600    210.58701   -557.95786    134732.03   -41713.015    2620.1028   -44333.118    23.573615     0.926977 
   39700    211.64825   -548.20967    134736.03   -41657.207    2633.3067   -44290.514    23.560636   0.92694944 
   39800    209.26539   -601.67068    134735.46   -41727.163    2603.6593   -44330.823    23.511486   0.92695341 
   39900     209.3006   -484.33587    134757.01    -41777.58    2604.0974   -44381.677    23.618028   0.92680516 
   40000    205.15013   -470.78291    134797.88    -41807.39    2552.4577   -44359.848    23.741547   0.92652413 
   40100    212.15216   -576.55314    134792.47   -41714.519    2639.5763   -44354.096    23.676964   0.92656132 
   40200    206.38483   -597.65921    134853.71   -41719.616    2567.8196   -44287.436    23.644192   0.92614059 
   40300     209.5734   -468.25046    134868.43   -41689.993    2607.4915   -44297.484     23.59409   0.92603948 
   40400    213.70236   -575.93161    134916.51   -41615.103    2658.8636   -44273.967    23.527922   0.92570946 
   40500    208.81654   -616.35194    134801.18   -41642.449    2598.0748   -44240.524    23.708639   0.92650146 
   40600    212.89053   -574.48455    134916.81   -41694.182    2648.7629   -44342.945    23.867407   0.92570738 
   40700    212.07101   -522.52664    134916.36   -41740.317    2638.5665   -44378.883    23.757352   0.92571048 
   40800    208.90964   -682.48892    134880.56   -41781.383     2599.233   -44380.616    23.717805   0.92595622 
   40900    206.50711   -596.46637     134826.6   -41804.294     2569.341   -44373.635    23.577577    0.9263268 
   41000    210.87252   -505.07574    134910.77   -41726.129    2623.6551   -44349.784    23.620369   0.92574888 
   41100    210.61025    -527.3057    134974.08   -41711.718    2620.3919    -44332.11    23.813034   0.92531462 
   41200    208.00044   -493.16552    134915.89   -41730.258    2587.9209   -44318.179    23.897478    0.9257137 
   41300    206.94196   -471.24219    134861.37   -41874.887    2574.7514   -44449.638    23.725866   0.92608798 
   41400     204.3638   -578.12682    134867.26   -41822.892    2542.6742   -44365.566    23.953584   0.92604752 
   41500    206.73284   -661.31407    134817.72   -41822.586    2572.1495   -44394.735    23.898695   0.92638778 
   41600    209.13994   -470.50398    134886.45   -41785.512    2602.0985    -44387.61    23.703597   0.92591574 
   41700     207.0597   -605.44058    134858.44   -41764.024    2576.2163    -44340.24    23.879928   0.92610807 
   41800    204.67454   -601.53377    134873.91   -41777.304    2546.5404   -44323.844    23.900457   0.92600183 
   41900    213.07103   -544.48074     134851.7   -41747.434    2651.0087   -44398.443    23.684029   0.92615436 
   42000    209.91737   -668.22922    134954.17   -41743.293    2611.7712   -44355.064    23.919774   0.92545114 
   42100    208.71952   -615.16798    134888.99   -41735.038    2596.8677   -44331.906    23.852463   0.92589831 
   42200    217.10879   -614.77883    134980.99   -41692.397    2701.2461   -44393.643    23.665389   0.92526728 
   42300    212.85821   -522.21846    134973.47   -41669.373    2648.3608   -44317.734     23.85225   0.92531883 
   42400    210.41194   -613.51689    134953.99   -41701.507    2617.9245   -44319.432     24.13905   0.92545236 
   42500    208.35213   -492.67715    135117.23    -41701.67    2592.2966   -44293.966    24.180087   0.92433431 
   42600    210.90953   -563.24623    135151.96   -41704.794    2624.1156   -44328.909    24.090127   0.92409677 
   42700    212.56363   -433.96233    135115.74   -41719.364    2644.6956   -44364.059    24.042386    0.9243445 
   42800    210.83376   -381.56353    135096.39   -41675.692    2623.1729   -44298.865    23.971265   0.92447692 
   42900    211.30052   -428.42929    135197.94   -41750.805    2628.9801   -44379.785    24.022465   0.92378251 
   43000    207.27057   -595.02794    135129.24   -41777.599    2578.8399   -44356.439    23.937913   0.92425215 
   43100    209.99882   -526.87292    135101.07   -41754.704    2612.7845   -44367.489    24.011442   0.92444485 
   43200    213.32164   -527.15103    135235.71   -41710.441    2654.1267   -44364.567     24.21825   0.92352452 
   43300    209.08346   -418.65664     135288.7   -41728.215    2601.3957   -44329.611    24.349541   0.92316275 
   43400    212.78189   -651.27621    135343.77   -41690.168    2647.4113    -44337.58    24.222769   0.92278714 
   43500    212.98661   -670.14254    135203.51   -41699.087    2649.9584   -44349.045    24.349354   0.92374442 
   43600    217.63742   -638.43123    135144.88   -41615.267    2707.8233   -44323.091    24.305345   0.92414522 
   43700    213.19581   -585.00375    135125.65   -41644.517    2652.5612   -44297.079    24.319271   0.92427668 
   43800    211.95938    -560.8577    135095.67   -41644.528    2637.1776   -44281.706    24.373895   0.92448185 
   43900    214.72114   -615.27327    135262.72   -41692.918    2671.5392   -44364.457    24.515474   0.92334009 
   44000    207.94285   -494.25963    135171.14   -41726.877    2587.2043   -44314.081    24.507587   0.92396565 
   44100    210.34265   -517.29665       135177   -41741.454    2617.0624   -44358.516    24.459193   0.92392559 
   44200     209.7192   -502.70468    135303.39   -41777.736    2609.3056   -44387.041    24.236112   0.92306257 
   44300    211.48195   -556.01858    135157.49   -41775.453    2631.2375    -44406.69    24.239411   0.92405894 
   44400    210.54763   -675.80106    135142.18   -41743.877    2619.6128    -44363.49    24.387089   0.92416366 
   44500    211.95322   -637.88628    134993.93   -41770.932     2637.101   -44408.033    24.504656   0.92517859 
   44600    204.15075   -576.59949    134939.52   -41834.916    2540.0235   -44374.939    24.503378    0.9255516 
   44700    208.62424   -436.87645    134999.89   -41806.109    2595.6822   -44401.791    24.544269   0.92513776 
   44800    212.58037   -623.72465    135042.13   -41777.887    2644.9039   -44422.791    24.439226   0.92484837 
   44900    209.90245   -622.05348    135101.42   -41732.189    2611.5855   -44343.775     24.52786   0.92444247 
   45000     210.4556   -553.44832    135251.66   -41730.502    2618.4678    -44348.97    24.668978   0.92341557 
   45100    213.82931   -489.36508    135205.22    -41666.59    2660.4431   -44327.033    24.734236   0.92373278 
   45200    212.23575   -667.48019    135151.16   -41732.362    2640.6162   -44372.979    24.898074   0.92410224 
   45300    212.47864    -597.9884    135171.36   -41753.169    2643.6382   -44396.807    24.730113   0.92396418 
   45400    210.69533   -623.13982    135119.97   -41734.351    2621.4504   -44355.801    24.701386   0.92431559 
   45500    210.03848   -521.84354    135166.15   -41733.974     2613.278   -44347.252    24.733161   0.92399976 
   45600    211.07079   -529.05448    135201.95   -41742.758    2626.1219    -44368.88    24.745681    0.9237551 
   45700    207.52003   -618.57411    135268.24   -41756.597    2581.9437   -44338.541    24.747886   0.92330237 
   45800    213.11016   -398.66763    135277.72   -41711.795    2651.4955   -44363.291    24.740159   0.92323767 
   45900    216.62356    -582.5412    135257.31   -41663.733    2695.2089   -44358.942    24.832465   0.92337703 
   46000    214.81401   -649.80299    135258.22   -41659.126    2672.6946    -44331.82     24.79802   0.92337084 
   46100    217.49209   -541.76284    135380.09    -41634.81    2706.0151   -44340.825    24.864554   0.92253959 
   46200    217.56275   -581.08218    135358.76   -41641.783    2706.8942   -44348.678    24.746545   0.92268497 
   46300    213.11499   -543.67124    135258.41   -41669.701    2651.5556   -44321.257    24.908794   0.92336947 
   46400    216.80839   -561.88563    135227.02   -41701.226    2697.5085   -44398.735    24.881457   0.92358383 
   46500     212.9909   -518.90763    135112.75   -41716.005    2650.0118   -44366.017    24.963098   0.92436493 
   46600    212.74774   -614.30845    135156.74   -41705.009    2646.9864   -44351.996    24.929002   0.92406408 
   46700    207.20548   -466.77519    135225.68   -41784.486    2578.0302   -44362.516    24.966337   0.92359296 
   46800    208.34357   -524.22427    135219.38   -41826.703    2592.1902   -44418.893    25.104901   0.92363601 
   46900    210.60513   -419.65981     135332.2   -41755.978    2620.3283   -44376.307    25.114916     0.922866 
   47000    216.59597   -485.13839    135341.48   -41747.382    2694.8656   -44442.248    25.028875   0.92280278 
   47100    212.36523   -579.78374    135399.13   -41730.617    2642.2272   -44372.844    25.105587   0.92240985 
   47200    211.28388    -484.0978    135302.15   -41784.289    2628.7731   -44413.062    25.098854   0.92307098 
   47300    208.92666   -631.33258    135315.46   -41815.998    2599.4448   -44415.443    25.199174   0.92298022 
   47400    212.20111   -595.67883    135388.23   -41772.729    2640.1853   -44412.914    25.173652    0.9224841 
   47500    213.46403   -732.80821    135256.07   -41730.598    2655.8984   -44386.497    25.296298   0.92338551 
   47600    211.97636   -597.92024    135308.49   -41695.278    2637.3889   -44332.667    25.258187   0.92302778 
   47700    211.74367    -579.9103     135429.8   -41745.496    2634.4938    -44379.99    25.121747   0.92220093 
   47800    214.01432    -603.5885    135397.78   -41765.696     2662.745   -44428.441    25.185191   0.92241902 
   47900    207.43519   -598.24032    135363.58   -41854.444    2580.8881   -44435.332    25.210421   0.92265207 
   48000    211.97281   -535.12103    135280.84   -41874.716    2637.3447   -44512.061    25.146435   0.92321639 
   48100    209.91834   -507.36417    135310.37   -41845.222    2611.7832   -44457.005    25.107363    0.9230149 
   48200    204.08503   -581.08902     135380.6   -41877.946    2539.2058   -44417.151    25.097892   0.92253612 
   48300    210.58257   -471.54208    135397.36   -41852.447    2620.0475   -44472.494    25.188631    0.9224219 
   48400    214.05019     -520.256    135446.77   -41776.279    2663.1913    -44439.47    25.221877   0.92208541 
   48500      208.725    -507.9174    135408.11   -41832.909    2596.9358   -44429.845    25.251295   0.92234867 
   48600    208.81654   -555.48903    135424.28    -41830.43    2598.0747   -44428.505    25.352773   0.92223856 
   48700    212.25925   -483.61365    135286.54   -41793.863    2640.9085   -44434.771    25.262632   0.92317751 
   48800    216.95012   -607.23123    135275.85   -41825.234    2699.2719   -44524.506    25.371442   0.92325046 
   48900    212.47807   -621.77286    135272.79   -41815.721    2643.6312   -44459.352    25.289558   0.92327132 
   49000    208.84659   -553.63786    135195.47   -41849.945    2598.4487   -44448.394    25.300921   0.92379936 
   49100    209.71906   -436.71343    135303.39   -41837.425    2609.3038   -44446.729    25.519395   0.92306253 
   49200     208.7615   -549.18945    135279.07   -41849.739    2597.3899   -44447.129    25.403423   0.92322852 
   49300     212.1334   -504.64903     135246.5   -41797.123    2639.3428   -44436.465    25.328804   0.92345084 
   49400    210.90234   -636.20563    135167.95   -41775.294    2624.0261    -44399.32    25.254838   0.92398747 
   49500    208.70902   -600.28316    135204.56   -41786.818     2596.737   -44383.555     25.32816   0.92373726 
   49600    211.20418   -521.87288     135212.1   -41797.143    2627.7815   -44424.925    25.314194   0.92368579 
   49700    210.08793   -534.79691    135367.32   -41805.098    2613.8933   -44418.991    25.410393   0.92262659 
   49800    208.03462   -687.05012    135348.04   -41849.491    2588.3462   -44437.837    25.423568     0.922758 
   49900    214.58732   -521.62413    135316.97   -41745.783    2669.8742   -44415.657    25.473132   0.92296988 
   50000    214.26871   -464.29907     135386.5   -41782.784    2665.9101   -44448.694    25.513656   0.92249593 
   50100    207.54391   -436.40557    135424.21   -41793.631    2582.2408   -44375.872     25.46384   0.92223902 
   50200    207.59806   -705.85541    135290.54    -41838.03    2582.9146   -44420.945    25.289307   0.92315019 
   50300    209.65204   -531.49726    135347.45    -41815.24      2608.47    -44423.71    25.436143   0.92276206 
   50400    214.04014   -506.60611    135208.86   -41833.615    2663.0663   -44496.682    25.398585   0.92370791 
   50500    206.97703   -433.33256       135147    -41870.03    2575.1878   -44445.218    25.363142   0.92413072 
   50600     208.4016   -517.23132    135202.75   -41895.897    2592.9121   -44488.809    25.558896   0.92374963 
   50700    208.64978   -478.86113    135254.97   -41900.478    2595.9999   -44496.478    25.468215   0.92339301 
   50800    206.80779   -562.43661    135212.35   -41905.114    2573.0821   -44478.196    25.482557   0.92368403 
   50900    213.19927   -483.75827    135318.09   -41809.336    2652.6043    -44461.94    25.428723   0.92296229 
   51000    209.14981   -501.95619    135457.79   -41842.906    2602.2213   -44445.127    25.528251   0.92201039 
   51100    212.74758   -531.89246    135450.86   -41884.219    2646.9844   -44531.203    25.429519   0.92205757 
   51200    212.22242      -513.19    135515.94   -41878.562    2640.4504   -44519.012     25.49245   0.92161479 
   51300    206.73105   -489.59179     135445.5   -41928.586    2572.1273   -44500.713    25.655639   0.92209409 
   51400    205.91791   -534.85404    135522.53   -41922.582    2562.0103   -44484.592    25.613077   0.92156997 
   51500      208.918   -562.39429    135434.88   -41921.289    2599.3371   -44520.626    25.598285   0.92216639 
   51600    209.77519   -580.60301    135352.76   -41863.456    2610.0022   -44473.459    25.526614   0.92272584 
   51700    209.18455   -630.91529    135264.17    -41856.78    2602.6535   -44459.433    25.592759   0.92333015 
   51800    212.52433   -633.61692    135222.38   -41887.938    2644.2067   -44532.145    25.561938   0.92361556 
   51900    209.89413   -545.39594    135268.47   -41925.629     2611.482   -44537.111    25.625108   0.92330081 
   52000    208.53471   -458.57493    135273.95   -41942.635    2594.5682   -44537.204    25.737296   0.92326341 
   52100    210.47121   -502.71706    135284.72   -41888.943    2618.6619   -44507.605    25.680305   0.92318995 
   52200    211.04283   -622.20862    135238.72   -41907.205     2625.774   -44532.979    25.838813   0.92350394 
   52300    206.29568   -582.93338    135291.96   -41889.346    2566.7105   -44456.057    25.802344    0.9231405 
   52400    212.82726   -416.14539    135319.04   -41841.001    2647.9757   -44488.977    25.629926   0.92295581 
   52500    212.78847   -562.19806    135329.86   -41840.495    2647.4931   -44487.988    25.698568   0.92288199 
   52600    206.56548   -506.32878    135237.96   -41868.592    2570.0673   -44438.659     25.77779   0.92350913 
   52700    210.78238   -636.46553    135329.43   -41885.352    2622.5335   -44507.886    25.887018   0.92288493 
   52800    214.13524   -636.87226    135265.82   -41836.049    2664.2495   -44500.299    25.827321   0.92331892 
   52900    209.41095    -620.7092    135353.73   -41831.393    2605.4704   -44436.863    25.939629   0.92271925 
   53000    208.81452   -499.66143    135373.93   -41817.339    2598.0496   -44415.389    25.947228   0.92258154 
   53100    211.69544   -598.80136    135502.03   -41852.591    2633.8937   -44486.485    25.913775   0.92170938 
   53200    208.78267   -594.17992    135509.28   -41852.598    2597.6533   -44450.251    25.863918   0.92166004 
   53300    211.71931   -511.48821       135451   -41849.192    2634.1907   -44483.383    25.969915   0.92205665 
   53400    205.17115   -733.44845    135508.14   -41920.543    2552.7192   -44473.262    25.987971   0.92166781 
   53500    210.28642   -679.67002     135427.5   -41929.293    2616.3628   -44545.656     25.95365   0.92221665 
   53600     207.5968   -503.12172    135514.36   -41928.824    2582.8989   -44511.723    25.877885   0.92162552 
   53700    205.15777   -570.35224    135582.62   -41956.315    2552.5527   -44508.867    26.019127   0.92116153 
   53800    210.67123   -539.35053     135559.1   -41847.528    2621.1506   -44468.678    25.982559   0.92132132 
   53900    208.12044   -555.95421    135561.79   -41895.082    2589.4139   -44484.496    26.000013   0.92130308 
   54000    207.83305   -546.38641    135552.21   -41866.056    2585.8382   -44451.894    25.888566   0.92136819 
   54100    210.44438   -523.84542    135679.28   -41887.392    2618.3282    -44505.72    26.042094   0.92050529 
   54200    209.12817   -532.16112    135602.05   -41869.385     2601.952   -44471.337    25.975887   0.92102953 
   54300     208.7858   -628.09751     135641.3    -41848.85    2597.6923   -44446.543    25.936855     0.920763 
   54400    209.06522   -553.72858    135707.73   -41884.006    2601.1688   -44485.175    26.004734   0.92031227 
   54500    211.04915   -583.46918    135695.88     -41876.7    2625.8526   -44502.552    26.020307   0.92039262 
   54600    213.68136   -568.08308    135721.23    -41790.21    2658.6023   -44448.812    26.196159   0.92022074 
   54700    213.42466   -622.97457    135671.12   -41806.587    2655.4085   -44461.995    26.139234   0.92056063 
   54800    208.49986   -676.78827    135743.44   -41876.405    2594.1346    -44470.54    26.142386   0.92007017 
   54900    211.95007   -605.70374    135768.58   -41913.647    2637.0618   -44550.709    26.022492   0.91989981 
   55000    207.55742   -616.83965    135699.52   -41962.702    2582.4089   -44545.111     26.07396   0.92036798 
   55100    206.15745   -377.68876    135779.98    -41928.22    2564.9906   -44493.211    26.036897   0.91982256 
   55200    206.22048   -660.13078    135827.78   -41930.497    2565.7749   -44496.272    26.210869   0.91949888 
   55300    212.85201   -564.64352    135780.41   -41881.599    2648.2837   -44529.882    26.278337   0.91981967 
   55400    209.12915   -547.86783    135670.37   -41859.694    2601.9642   -44461.658    26.330167   0.92056573 
   55500    212.32091   -537.17075    135565.72   -41805.704    2641.6758   -44447.379     26.27491   0.92127633 
   55600    210.30157   -602.66758    135514.17   -41848.823    2616.5514   -44465.374    26.298156   0.92162677 
   55700     211.4103   -510.13764    135535.41   -41843.564     2630.346    -44473.91    26.211895    0.9214824 
   55800    208.11871   -610.75491    135575.59   -41851.302    2589.3924   -44440.695    26.267501   0.92120925 
   55900    212.78596   -616.95943    135630.62   -41824.452    2647.4619   -44471.914    26.266605   0.92083553 
   56000    212.28934   -620.60188    135672.51   -41815.718     2641.283   -44457.001    26.239799   0.92055122 
   56100    214.91242   -517.19487    135683.66   -41790.328    2673.9191   -44464.247    26.099448   0.92047557 
   56200    212.96418   -604.58372    135706.74   -41790.803    2649.6793   -44440.483    26.218334   0.92031898 
   56300    210.67244   -548.65699    135722.01   -41816.765    2621.1657   -44437.931    26.364214   0.92021549 
   56400    212.25165   -590.33779    135817.86   -41804.488     2640.814   -44445.302    26.286221   0.91956604 
   56500     206.6368   -509.06973    135833.13   -41885.099    2570.9547   -44456.053     26.19603   0.91946266 
   56600    209.75628   -664.19656    135781.86   -41904.937    2609.7669   -44514.704    26.205654   0.91980987 
   56700    208.33593   -560.18586    135851.33   -41940.874    2592.0951   -44532.969    26.228466   0.91933951 
   56800    207.20833   -502.40553    135806.12   -41871.571    2578.0656   -44449.637    26.361815   0.91964553 
   56900    209.39638   -464.32864    135877.71   -41856.378     2605.289   -44461.667    26.484233   0.91916101 
   57000    212.52997   -476.91125    135899.86   -41803.439    2644.2769   -44447.716    26.361354   0.91901121 
   57100    208.84032   -664.69525    135899.36   -41861.861    2598.3706   -44460.232    26.403594   0.91901455 
   57200    206.76474   -489.60733    135768.45   -41903.035    2572.5464   -44475.582    26.322063   0.91990071 
   57300    207.66348    -430.8965     135853.3   -41959.684    2583.7285   -44543.413    26.461749   0.91932616 
   57400    203.74191   -556.01538    135783.86   -41965.939    2534.9367   -44500.876    26.404026   0.91979628 
   57500    207.26472   -532.23658    135786.65   -42007.336    2578.7672   -44586.103    26.381052   0.91977741 
   57600    205.90261   -545.39233    135664.66   -41957.338    2561.8199   -44519.157    26.460814   0.92060448 
   57700    204.42788   -524.16289    135787.23   -41986.043    2543.4714   -44529.515    26.560326   0.91977346 
   57800    203.70894   -437.69001    135915.31   -42011.933    2534.5264   -44546.459    26.527268   0.91890673 
   57900    207.31565    -538.5289    135850.55   -41972.069    2579.4008    -44551.47    26.513252   0.91934473 
   58000    203.02102   -568.49712     135906.5    -41969.02    2525.9675   -44494.987    26.526581   0.91896631 
   58100    211.80234   -592.54634    135856.06   -41907.602    2635.2238   -44542.825    26.469374   0.91930749 
   58200    214.36939   -616.88773    136031.14   -41859.766    2667.1627   -44526.928    26.694617   0.91812425 
   58300    212.44168   -542.96718    135985.28   -41802.192    2643.1784   -44445.371    26.729191   0.91843391 
   58400    214.74219   -600.33763    135808.96   -41816.794    2671.8011   -44488.595    26.517513   0.91962632 
   58500    213.63923   -707.67935    135834.68   -41824.907    2658.0782   -44482.985    26.451761   0.91945217 
   58600    212.90133   -541.03886    135782.96   -41790.125    2648.8973   -44439.023    26.459341   0.91980241 
   58700    212.47996   -522.11601    135859.58   -41796.579    2643.6546   -44440.234    26.482578   0.91928365 
   58800    212.69464   -511.14736    135713.68     -41843.7    2646.3257   -44490.026    26.605861   0.92027193 
   58900    204.59952   -736.55168    135669.01   -41892.455    2545.6071   -44438.062    26.520096   0.92057496 
   59000    207.43669   -503.75112    135752.43   -41874.338    2580.9068   -44455.244    26.556317   0.92000927 
   59100    208.10272    -623.6914     135811.2   -41870.298    2589.1935   -44459.491     26.59459   0.91961115 
   59200    207.37316   -403.54139    135840.97   -41875.903    2580.1164    -44456.02    26.522855   0.91940961 
   59300    209.71135   -569.55048    135772.99   -41869.455    2609.2079   -44478.663    26.586541   0.91986991 
   59400    210.28016   -495.83504    135834.22   -41910.815     2616.285     -44527.1    26.426634   0.91945528 
   59500    204.41926   -458.63223    135926.48   -41878.837    2543.3643   -44422.201    26.543711    0.9188312 
   59600    210.29539   -484.58369    135955.64    -41873.47    2616.4744   -44489.944    26.740811   0.91863411 
   59700    208.45463   -698.47167    135897.65   -41893.613    2593.5718   -44487.185    26.837691   0.91902616 
   59800    208.40792   -365.32184    135856.32   -41894.652    2592.9907   -44487.643    26.707898   0.91930574 
   59900    208.26531   -505.09102    135790.39   -41862.247    2591.2164   -44453.464    26.662964   0.91975207 
   60000      208.205   -591.11213    135731.59   -41898.031     2590.466   -44488.497    26.570244   0.92015053 
   60100     208.7369   -594.33565    135814.12   -41858.397    2597.0839    -44455.48    26.710795   0.91959135 
   60200    211.56576   -717.43032    135801.36   -41846.819    2632.2803     -44479.1    26.748427   0.91967776 
   60300    209.96962   -483.01123    135817.02   -41810.717    2612.4212   -44423.139     26.64725    0.9195717 
   60400    212.26612   -566.03343    135841.38   -41764.548    2640.9941   -44405.542    26.747481   0.91940679 
   60500    211.85559   -446.56477    135791.55   -41798.659    2635.8863   -44434.545    26.865877   0.91974423 
   60600    211.90387   -462.48894    135817.27   -41856.643     2636.487    -44493.13    26.809958   0.91957003 
   60700    205.20698   -486.98274    135906.31   -41872.047     2553.165   -44425.212    26.942031   0.91896757 
   60800    210.19565   -610.14293    135862.96   -41830.763    2615.2335   -44445.996    26.869625   0.91926076 
   60900    212.28657   -480.25257    135803.26   -41823.251    2641.2486   -44464.499    26.853235   0.91966489 
   61000    213.92169   -451.60664    135690.22   -41867.199    2661.5925   -44528.791    26.872638   0.92043104 
   61100    210.73244   -537.49083    135857.23    -41896.51    2621.9122   -44518.422    26.869225   0.91929958 
   61200    207.25334   -517.81306    135978.83   -41904.771    2578.6256   -44483.397    26.994317   0.91847745 
   61300    208.15828   -567.09214    135931.67   -41899.948    2589.8848   -44489.832    27.018598    0.9187961 
   61400    206.45663   -593.82925    135814.99   -41930.066    2568.7129   -44498.779    27.002269   0.91958544 
   61500    209.13058   -529.33132    135896.61   -41934.997     2601.982   -44536.979    26.889752   0.91903313 
   61600    210.61031   -514.55631    135820.84   -41906.184    2620.3927   -44526.577    26.730197   0.91954585 
   61700    209.41492   -479.16679    135950.08    -41978.58    2605.5197   -44584.099    26.898056    0.9186717 
   61800     207.9451   -585.78807    135931.31   -42040.805    2587.2324   -44628.038     26.99724   0.91879858 
   61900    205.55136   -491.61144    135886.07   -41981.359    2557.4498   -44538.809    27.011392   0.91910446 
   62000    206.44092   -569.70383    135922.04   -41938.027    2568.5176   -44506.544    27.049115   0.91886125 
   62100    209.32886   -583.63917    135834.82   -41953.291     2604.449    -44557.74     27.10423    0.9194512 
   62200    207.93121   -580.86279    135831.55    -41903.73    2587.0596    -44490.79    26.835593   0.91947334 
   62300     209.1477   -427.01275     135941.5   -41941.734     2602.195   -44543.929    26.864541   0.91872971 
   62400    212.48172   -510.32521    135932.74   -41898.987    2643.6765   -44542.664    26.908948   0.91878888 
   62500    210.91302   -614.23188    135955.51   -41917.435     2624.159   -44541.594    27.061678   0.91863502 
   62600    211.49788   -498.36914    135949.86   -41922.227    2631.4357   -44553.662    27.122563   0.91867322 
   62700    206.90413   -640.91523    135941.09   -41951.166    2574.2808   -44525.447    27.100931   0.91873248 
   62800    210.82202   -562.06574    135997.95   -41931.189    2623.0267   -44554.216      27.1206   0.91834835 
   62900    212.65068   -600.18691    135908.41   -41877.352    2645.7788   -44523.131    27.009189    0.9189534 
   63000    209.14761    -451.0028    135935.29   -41840.119    2602.1939   -44442.313    27.026183   0.91877166 
   63100    213.53612   -569.84828    135913.93   -41830.381    2656.7953   -44487.176    27.025148   0.91891604 
   63200    213.25216   -607.96959    135846.54   -41873.285    2653.2624   -44526.547    27.128007   0.91937187 
   63300    210.31547   -524.62274    135937.28    -41912.13    2616.7243   -44528.854    27.135242   0.91875819 
   63400    212.68012   -500.40291    135995.56   -41840.628     2646.145   -44486.773    27.236739   0.91836446 
   63500    211.37976    -567.6621    135967.09   -41925.678    2629.9661   -44555.644     27.10947   0.91855678 
   63600     211.8331   -601.21705    135962.81   -41923.049    2635.6065   -44558.655    27.021688   0.91858568 
   63700    210.21997   -576.42206    135836.49   -41928.639    2615.5361   -44544.176    26.987941    0.9194399 
   63800    203.21662   -400.34643    135807.53   -42020.709    2528.4012    -44549.11    27.177943   0.91963601 
   63900    209.35848   -566.30016    135758.73   -42009.342    2604.8175    -44614.16    27.185324   0.91996657 
   64000    204.64739   -631.45626    135746.82   -41985.096    2546.2026   -44531.299    27.342538   0.92004725 
   64100    211.91474   -744.86782     135792.5   -41903.617    2636.6222   -44540.239    27.384486   0.91973779 
   64200    213.38219   -328.40083    135711.97   -41885.334    2654.8801   -44540.214    27.233458   0.92028355 
   64300    213.75582   -539.38622    135869.02    -41799.23    2659.5288   -44458.758    27.345549   0.91921979 
   64400    210.01389   -531.67515    135821.65   -41820.877     2612.972   -44433.849    27.380263   0.91954034 
   64500    214.27177   -550.58209    135903.81   -41816.315    2665.9482   -44482.263    27.355546   0.91898448 
   64600    212.74568   -650.70721    135900.41   -41875.094    2646.9607   -44522.054    27.248452   0.91900748 
   64700    209.12846   -537.20819    135866.62   -41896.621    2601.9556   -44498.576    27.309426   0.91923605 
   64800    214.68689   -527.64281    135828.16   -41916.707     2671.113    -44587.82    27.434442   0.91949633 
   64900    210.42167   -636.24934    135690.02   -41898.159    2618.0456   -44516.204    27.340114   0.92043241 
   65000    212.53328   -639.25835    135770.93   -41857.155    2644.3181   -44501.473    27.291332   0.91988391 
   65100    209.57002    -631.1602     135738.1   -41880.206    2607.4495   -44487.655    27.224145   0.92010636 
   65200    210.59622   -531.72151    135792.65   -41868.529    2620.2173   -44488.747    27.308658   0.91973673 
   65300    210.47999   -522.22347    135838.91   -41867.855    2618.7713   -44486.626    27.442202   0.91942356 
   65400    213.45821     -394.133     135725.2   -41819.329    2655.8259   -44475.155    27.435697   0.92019385 
   65500    209.39971   -497.40539     135573.5    -41887.85    2605.3305   -44493.181    27.338589   0.92122345 
   65600     210.9532   -473.07513    135698.86   -41928.523    2624.6589   -44553.182    27.274269   0.92037241 
   65700    207.10359   -453.50742    135717.27   -41963.133    2576.7624   -44539.895    27.261641    0.9202476 
   65800    210.08012   -541.80221    135646.62   -41970.253    2613.7961   -44584.049    27.255197   0.92072692 
   65900    209.91659   -577.86955    135587.59   -41939.472    2611.7615   -44551.233    27.378863   0.92112775 
   66000    211.89534   -486.84911    135659.31   -41842.743    2636.3809   -44479.124    27.516213   0.92064074 
   66100    208.87175   -511.66801    135692.11   -41797.147    2598.7617   -44395.909    27.320901   0.92041822 
   66200     211.9064   -483.55294    135644.41   -41769.966    2636.5185   -44406.485    27.347841   0.92074189 
   66300     213.5646   -612.16364    135773.25   -41810.481    2657.1496    -44467.63    27.258172   0.91986818 
   66400    210.21298   -654.61813    135773.06    -41855.07    2615.4491    -44470.52    27.276651   0.91986944 
   66500    212.76635   -563.15269    135671.29   -41885.561    2647.2179   -44532.779    27.297731   0.92055949 
   66600    207.61407   -578.41802    135713.75   -41904.404    2583.1138   -44487.518    27.498505   0.92027149 
   66700    207.19661   -462.74568    135888.19   -41923.674    2577.9198   -44501.594    27.549581   0.91909014 
   66800     212.0883   -613.33577    135718.32   -41868.402    2638.7817   -44507.184    27.476308   0.92024047 
[...]
   84600    208.25416   -429.08246    135248.67   -42049.382    2591.0776    -44640.46    28.781742   0.92343601 
   84700    208.09734   -436.91552    135352.13   -42055.358    2589.1266   -44644.485    28.656284   0.92273017 
   84800    207.77688   -521.22317    135419.11   -42029.336    2585.1394   -44614.476    28.719984   0.92227377 
   84900    210.61066    -474.9577     135555.9   -42009.126    2620.3971   -44629.523    28.918013   0.92134306 
   85000    210.28695   -482.64903    135444.74   -41957.518    2616.3695   -44573.888    28.869257   0.92209922 
   85100     208.9977   -617.09969    135465.53   -41953.697    2600.3288   -44554.026    29.006968   0.92195771 
   85200    213.66031   -521.61142    135493.26   -41972.377    2658.3404   -44630.718    28.823456   0.92176903 
   85300    204.98386   -475.66243    135590.39   -42012.572     2550.389   -44562.961    28.929949   0.92110873 
   85400    210.23931   -454.58981    135524.57   -42005.603    2615.7767    -44621.38    28.899076   0.92155607 
   85500    209.57881   -637.95977    135524.02   -41968.851    2607.5588    -44576.41    28.862785   0.92155983 
   85600    211.48148   -518.89563    135589.24   -41937.335    2631.2317   -44568.567    29.029039   0.92111653 
   85700    207.50147   -492.20921    135625.97    -41977.08    2581.7127   -44558.793    28.971845   0.92086708 
   85800    208.99471    -591.7389    135440.59   -41980.055    2600.2916   -44580.347    28.952036   0.92212746 
   85900    211.07264   -527.12153    135475.04   -41880.541     2626.145   -44506.686    28.849172   0.92189298 
   86000    207.84529   -647.24383    135562.24   -41938.292    2585.9906   -44524.282    28.936648   0.92129996 
   86100    213.09641   -552.43315    135603.28   -41929.083    2651.3244   -44580.408    29.139625   0.92102117 
   86200    211.88625   -499.92426     135716.2    -41903.18    2636.2678   -44539.447    29.431789   0.92025487 
   86300    213.60387   -573.87499    135666.33   -41944.791    2657.6383   -44602.429    29.146939    0.9205931 
   86400     206.2966   -552.33981    135684.58   -41950.243    2566.7218   -44516.965    29.070019   0.92046928 
   86500    209.18334   -558.82221    135711.79   -41933.081    2602.6385   -44535.719    29.081576   0.92028478 
   86600    214.04443   -528.44826    135780.45   -41877.328    2663.1197   -44540.448    29.075117    0.9198194 
   86700    209.06484   -549.32618    135756.46   -41872.402    2601.1641   -44473.566    29.163362   0.91998196 
   86800    210.20556   -582.30528    135835.63   -41943.521    2615.3568   -44558.878     29.20541   0.91944574 
   86900    213.35302   -650.71137    135643.78   -41906.875    2654.5172   -44561.392     29.13113   0.92074618 
   87000    211.64592   -554.21547    135608.06   -41908.025    2633.2776   -44541.302    29.117604    0.9209887 
   87100    211.03598    -515.3247    135755.89   -41951.994    2625.6888   -44577.683    29.189187   0.91998578 
   87200    211.28139   -482.31047    135968.45   -41941.393    2628.7422   -44570.135    28.994291    0.9185476 
   87300     211.8532   -645.85639    135927.76   -41956.426    2635.8565   -44592.283    29.083228   0.91882258 
   87400    210.36057   -591.62807    135883.97   -41969.324    2617.2855   -44586.609     29.17111   0.91911865 
   87500     210.9869   -530.77254     135800.2   -41983.458    2625.0781   -44608.536    29.101335   0.91968559 
   87600    207.97141   -672.67407    135811.71   -41986.024    2587.5597   -44573.583     29.15873    0.9196077 
   87700    210.08691   -602.56299    135810.81   -41988.831    2613.8806   -44602.711     29.16727   0.91961379 
   87800     208.9156   -592.09591    135777.85   -41972.219    2599.3072   -44571.526    29.268142   0.91983698 
   87900    204.40887   -706.19643    135851.44   -41988.063     2543.235   -44531.298    29.153927   0.91933874 
   88000    212.05844   -622.65541    135847.51   -42013.195    2638.4102   -44651.605    29.243397   0.91936534 
   88100    208.82221   -650.62411    135799.89   -41948.458    2598.1453   -44546.603     29.04548    0.9196877 
   88200    213.81108   -496.43399    135708.09   -41929.543    2660.2163   -44589.759    29.059373   0.92030982 
   88300    210.38862    -646.1155    135858.79   -41965.312    2617.6344   -44582.946    29.196912     0.919289 
   88400    208.37923   -572.02862    135751.55   -42065.086    2592.6338    -44657.72    29.233538   0.92001518 
   88500    211.84439   -571.99442    135715.41   -41968.421     2635.747   -44604.168    29.290887    0.9202602 
   88600    212.25274   -601.10039    135777.79   -41923.167    2640.8276   -44563.995     29.20389   0.91983738 
   88700    211.25064   -487.00389       135793   -41912.375    2628.3595   -44540.734    29.135414   0.91973441 
   88800    214.11602   -585.65502    135621.91   -41862.415    2664.0104   -44526.425    29.177449   0.92089464 
   88900     213.7891   -498.88641    135622.25   -41909.799    2659.9428   -44569.742    29.089237   0.92089232 
   89000    212.45444   -458.27568     135606.5    -41886.51    2643.3371   -44529.847    29.189825    0.9209993 
   89100    206.93783   -527.14949    135497.16   -41982.554    2574.7001   -44557.254     29.30802   0.92174253 
   89200    208.93118   -481.92056    135562.42   -42016.111    2599.5011   -44615.613    29.240841   0.92129875 
   89300    208.16564    -585.2186    135394.83   -42031.231    2589.9764   -44621.208    29.124035   0.92243914 
   89400    209.66409   -535.51639    135505.36   -42059.169    2608.6199   -44667.789    29.210293   0.92168671 
   89500    205.79075   -616.91565    135428.64   -42081.769    2560.4281   -44642.197    29.191819   0.92220883 
   89600    200.11745   -438.85341    135496.53   -42118.111    2489.8415   -44607.952    29.285119    0.9217468 
   89700    202.38341   -557.83956    135494.71   -42071.296    2518.0344    -44589.33    29.369385   0.92175918 
   89800    207.43281   -644.19101    135420.71   -42028.458    2580.8586   -44609.316    29.407138   0.92226287 
   89900    205.83014    -601.5118    135321.95    -42084.62    2560.9182   -44645.538    29.259977   0.92293593 
   90000    206.84009   -494.29668    135253.31    -41999.35    2573.4839   -44572.834    29.162418   0.92340431 
   90100    208.70354    -549.6249    135235.79   -42007.655    2596.6688   -44604.324    29.347686   0.92352394 
   90200    206.66045   -505.47731     135203.1   -42041.511    2571.2488   -44612.759    29.321108   0.92374728 
   90300    205.42409   -567.19609    135227.09   -42051.272    2555.8662   -44607.138    29.283362   0.92358337 
   90400    209.01546   -539.65647    135331.48   -42040.163    2600.5497   -44640.713    29.411089   0.92287092 
   90500      208.493    -527.9729    135388.06   -42008.951    2594.0494       -44603    29.521991   0.92248526 
   90600    211.08597   -454.77441    135400.33   -41925.929    2626.3108    -44552.24    29.272231   0.92240164 
   90700    208.42263   -634.59626    135384.28   -41926.647    2593.1738    -44519.82    29.252679   0.92251105 
   90800    208.70508   -402.80059    135353.65   -41949.298     2596.688   -44545.986    29.324647    0.9227198 
   90900    208.34843   -611.50659    135393.77    -42035.98    2592.2505    -44628.23    29.439126   0.92244634 
   91000    206.60355   -578.05886     135269.2   -42049.608    2570.5409   -44620.149    29.443866   0.92329585 
   91100     206.8321   -649.21464    135278.63   -42037.366    2573.3846    -44610.75    29.351676   0.92323148 
   91200    211.47383   -458.06819    135290.74   -41994.185    2631.1365   -44625.322    29.221362   0.92314884 
   91300    209.91164   -559.26426    135282.02   -41899.761    2611.6999   -44511.461    29.243282   0.92320834 
   91400    217.00649   -576.90993    135373.41    -41885.34    2699.9733   -44585.313    29.185416   0.92258513 
   91500    210.64489   -396.12198    135282.07   -41908.295    2620.8229   -44529.118    29.321886   0.92320799 
   91600    210.95281   -605.32821    135332.18   -41951.596     2624.654    -44576.25    29.373227   0.92286619 
   91700    207.75876   -418.69969    135315.88   -42024.232    2584.9139   -44609.146     29.44496   0.92297734 
   91800    210.41748   -500.71439    135504.47   -41989.729    2617.9935   -44607.722    29.494099   0.92169278 
   91900    209.97043   -557.73219    135590.48   -41994.515    2612.4313   -44606.947    29.663436   0.92110811 
   92000    210.80865   -549.03022    135484.93   -42004.064    2622.8604   -44626.925    29.476698   0.92182569 
   92100    207.91473   -629.14937    135424.83   -42045.984    2586.8545   -44632.838    29.348868   0.92223483 
   92200    210.25845   -538.96896    135389.08   -41985.664    2616.0148   -44601.679    29.365137   0.92247829 
   92300    210.93962   -488.89391    135356.24   -41903.573    2624.4899   -44528.063    29.344536   0.92270212 
   92400    212.64211   -489.52285    135299.81    -41909.29    2645.6721   -44554.962    29.528785   0.92308699 
   92500    209.35724   -440.84316    135408.09   -41949.088    2604.8021    -44553.89    29.563535   0.92234882 
   92600    210.75469   -704.38349    135426.59   -41918.757     2622.189   -44540.946      29.4101   0.92222283 
   92700    212.86071   -689.48302    135358.29   -41911.226    2648.3919   -44559.617    29.340291   0.92268817 
   92800    213.93305   -587.45703    135287.47    -41959.34    2661.7339   -44621.074    29.369804   0.92317118 
   92900    212.73239   -637.58938    135318.96   -41928.126    2646.7954   -44574.922    29.316259   0.92295635 
   93000    213.20531   -418.23428    135256.28   -41952.373    2652.6793   -44605.052    29.457606   0.92338403 
   93100    213.19182   -577.25238     135390.9   -41893.794    2652.5115   -44546.306    29.622092    0.9224659 
   93200    212.60475   -442.71085    135444.68   -41905.067    2645.2073   -44550.274    29.521332   0.92209962 
   93300    213.28569   -609.10059    135544.23   -41926.878    2653.6795   -44580.557    29.491892   0.92142241 
   93400    204.89848   -585.63677    135532.92   -41957.767    2549.3267   -44507.094     29.50701   0.92149931 
   93500    211.87467    -522.5101     135559.1   -41996.024    2636.1237   -44632.148    29.483291   0.92132135 
   93600    206.93764   -554.90049    135487.93   -42054.205    2574.6976   -44628.902    29.424388   0.92180528 
   93700    208.31505   -646.43942    135469.98    -42008.13    2591.8353   -44599.965     29.66223   0.92192744 
   93800    208.79302   -565.71919    135400.87   -41975.114    2597.7822   -44572.896    29.560196   0.92239799 
   93900    207.26517   -628.34521    135318.19   -41954.833    2578.7728   -44533.606     29.47235   0.92296156 
   94000    214.91939   -591.73304    135307.79   -41973.737    2674.0057   -44647.743    29.434878   0.92303252 
   94100    206.21351    -583.8081    135348.73    -41982.46    2565.6881   -44548.148    29.609136   0.92275332 
   94200    207.91794   -459.40977    135343.95   -41967.332    2586.8945   -44554.227     29.53397   0.92278592 
   94300    212.61138   -535.81598    135388.97   -41924.648    2645.2897   -44569.938    29.515634   0.92247907 
   94400    208.56599   -621.07922    135335.74   -41911.431    2594.9574   -44506.388    29.582942    0.9228419 
   94500    212.19023   -582.76122    135457.82   -41854.615    2640.0498   -44494.665    29.817806   0.92201023 
   94600    212.62996   -534.17747    135419.88   -41895.611    2645.5209   -44541.132    29.795128   0.92226854 
   94700    209.96993   -690.15159    135418.81   -41942.998    2612.4252   -44555.423    29.682108   0.92227578 
   94800    210.98426    -616.8152    135292.97   -41945.689    2625.0453   -44570.734    29.686568   0.92313364 
   94900    212.52361   -674.97149    135276.16   -41917.642    2644.1978    -44561.84    29.472483   0.92324836 
   95000    214.13649   -397.81242    135197.94   -41903.663    2664.2651   -44567.928    29.602652   0.92378253 
   95100    213.40596   -556.28776    135274.58   -41892.106    2655.1758   -44547.282    29.737068   0.92325915 
   95200    210.60781   -577.30516    135207.35   -41910.149    2620.3615    -44530.51    29.753378   0.92371819 
   95300    216.73592    -535.6398    135191.25    -41820.33    2696.6069   -44516.937    29.536209   0.92382823 
   95400    212.64457   -437.46303       135242   -41878.239    2645.7028   -44523.942    29.688452   0.92348156 
   95500    210.52576   -593.70675    135272.37    -41884.54    2619.3407    -44503.88    29.686049   0.92327425 
   95600    210.27545   -491.60983    135329.74   -41874.739    2616.2264   -44490.965    29.724662   0.92288282 
   95700    213.73094   -660.52652    135228.39   -41934.507    2659.2192   -44593.726    29.770603   0.92357452 
   95800    208.95335   -494.86595    135216.55   -41983.079    2599.7769   -44582.856    29.611394   0.92365533 
   95900    212.19996   -314.93626    135204.66   -41941.137    2640.1709   -44581.308    29.575041   0.92373656 
   96000    211.81499   -546.02564    135364.77   -42011.698    2635.3811   -44647.079    29.693326   0.92264398 
   96100    213.16081   -455.36479    135426.87   -41969.268    2652.1258   -44621.394    29.793743   0.92222094 
   96200    203.61465   -543.45431    135299.65   -42007.825    2533.3533   -44541.179    29.739572   0.92308805 
   96300     210.2822   -538.35751    135277.62   -41962.288    2616.3103   -44578.598    29.811733   0.92323839 
   96400    214.73607   -648.14317    135278.17   -41941.722     2671.725   -44613.447    29.712202   0.92323465 
   96500    209.40408   -547.04525    135207.64   -41979.629    2605.3848   -44585.014    29.829918   0.92371621 
   96600    207.80547   -454.13691    135369.28   -41977.214    2585.4951   -44562.709    29.919356   0.92261328 
   96700    208.19078   -653.25131    135359.83   -42059.944    2590.2892   -44650.233    30.013905   0.92267767 
   96800    200.74133   -599.69783    135386.21   -42102.097    2497.6037   -44599.701    29.956245   0.92249785 
   96900     209.7592   -512.25415    135381.88   -42040.994    2609.8033   -44650.798    29.931088   0.92252739 
   97000    208.60421   -550.22899    135311.29   -42039.321     2595.433   -44634.754    29.803522   0.92300865 
   97100    207.35876   -598.26121     135443.1   -42028.923    2579.9372    -44608.86    29.922323   0.92211038 
   97200     211.2364   -494.18973    135377.55   -42032.343    2628.1824   -44660.525     29.88173    0.9225569 
   97300    208.45177   -627.94007    135440.79   -42025.633    2593.5363   -44619.169    29.812589    0.9221261 
   97400    208.78297    -479.5642    135382.81   -42026.852    2597.6571   -44624.509    29.857198   0.92252108 
   97500    212.10484   -576.90679    135454.11   -41935.557    2638.9875   -44574.544    29.972356   0.92203546 
   97600    207.17826   -632.16583    135318.49   -42001.891    2577.6914   -44579.583    29.904913   0.92295957 
   97700    213.26338   -599.78944    135425.78   -41940.678    2653.4019   -44594.079    29.919888   0.92222836 
   97800      209.583   -641.71024    135484.14   -41920.643     2607.611   -44528.254    29.818895   0.92183111 
   97900    212.57221   -459.20191    135586.28   -41893.735    2644.8025   -44538.538    29.965232   0.92113665 
   98000    213.39925   -470.87081    135589.06   -41913.219    2655.0924   -44568.312    29.838189   0.92111776 
   98100    209.58085   -494.16542    135519.35   -41984.411    2607.5842   -44591.995    30.001427   0.92159159 
   98200    209.89024   -451.86767    135648.84    -41961.13    2611.4336   -44572.564      30.0304    0.9207118 
   98300    210.77456   -489.02508    135625.76   -41973.958    2622.4362   -44596.394    29.861471   0.92086848 
   98400    205.95221   -505.61383    135689.37   -41993.434     2562.437   -44555.871     30.03694   0.92043684 
   98500    208.25484     -550.785    135766.21   -41991.938    2591.0861   -44583.024    29.990728   0.91991585 
   98600    208.43772   -558.56942     135859.8    -42025.56    2593.3615   -44618.921    29.850204   0.91928219 
   98700    206.45746   -612.54946    135780.72   -42083.973    2568.7233   -44652.696    29.977849   0.91981753 
   98800    207.12699   -595.19197    135805.13   -42056.098    2577.0535   -44633.151    30.226687   0.91965223 
   98900    203.00316     -604.053    135760.36   -42056.582    2525.7452   -44582.327    30.124178    0.9199555 
   99000    205.96027   -615.07958    135694.48    -42089.56    2562.5374   -44652.097    30.060196   0.92040213 
   99100    207.56243   -519.52375    135670.13   -42012.551    2582.4712   -44595.022    29.884405   0.92056738 
   99200    207.37668   -491.61407    135613.37   -41994.272    2580.1602   -44574.432     29.81423   0.92095266 
   99300    211.95008   -544.62843     135710.1   -41956.437     2637.062   -44593.499    30.011866   0.92029623 
   99400    211.13063   -481.13503    135719.23    -41927.84    2626.8664   -44554.706     30.04231   0.92023432 
   99500    213.87741   -640.70985     135745.7   -41824.975    2661.0416   -44486.016    30.113592   0.92005487 
   99600    218.11183   -535.50143    135657.15   -41847.706    2713.7258   -44561.432    30.045047   0.92065541 
   99700    218.04184   -522.73604    135641.73    -41859.89     2712.855   -44572.745    29.985118   0.92076012 
   99800    215.57705    -551.9676     135705.1    -41877.21    2682.1883   -44559.398    29.872542   0.92033014 
   99900    213.34956   -628.98143    135619.79   -41936.753    2654.4742   -44591.227     29.85334   0.92090905 
  100000    211.17993   -525.61236    135493.28   -41943.197    2627.4798   -44570.677    29.948611   0.92176889 
  100100    212.08565   -394.77229     135781.5   -41872.035    2638.7487   -44510.783     30.17626    0.9198123 
  100200    214.80568    -582.5507    135775.72   -41888.208     2672.591   -44560.799    30.125045   0.91985143 
  100300    213.62744   -634.14725    135687.93   -41885.417    2657.9315   -44543.348    30.044488   0.92044659 
  100400    212.73239   -566.83729    135657.64   -41913.779    2646.7954   -44560.574    29.923876   0.92065212 
  100500    214.74219   -518.27125    135603.73   -41841.024    2671.8011   -44512.825    30.021744    0.9210181 
  100600     209.3508   -411.28514    135701.13    -41927.52    2604.7219   -44532.242    30.165688   0.92035702 
  100630    213.44771    -595.1635    135675.65   -41910.278    2655.6953   -44565.974    30.173079   0.92052992 
Loop time of 69.4478 on 6 procs for 100000 steps with 4175 atoms

Performance: 622.050 ns/day, 0.039 hours/ns, 1439.930 timesteps/s
98.2% CPU use with 6 MPI tasks x no OpenMP threads

MPI task timing breakdown:
Section |  min time  |  avg time  |  max time  |%varavg| %total
---------------------------------------------------------------
Pair    | 54.978     | 56.199     | 57.308     |   9.6 | 80.92
Neigh   | 4.6881     | 4.7189     | 4.74       |   0.7 |  6.79
Comm    | 4.825      | 5.958      | 7.1748     |  29.9 |  8.58
Output  | 0.19755    | 0.1983     | 0.20151    |   0.3 |  0.29
Modify  | 1.7291     | 1.7541     | 1.7721     |   1.1 |  2.53
Other   |            | 0.6193     |            |       |  0.89

Nlocal:        695.833 ave         701 max         689 min
Histogram: 1 1 0 0 1 0 0 0 1 2
Nghost:        1447.17 ave        1471 max        1419 min
Histogram: 1 0 0 0 2 0 2 0 0 1
Neighs:        0.00000 ave           0 max           0 min
Histogram: 6 0 0 0 0 0 0 0 0 0
FullNghs:      18744.3 ave       18889 max       18465 min
Histogram: 1 0 0 0 0 1 0 1 2 1

Total # of neighbors = 112466
Ave neighs/atom = 26.937964
Neighbor list builds = 5163
Dangerous builds = 0

undump              1
unfix               2
unfix               3
unfix               4


################################################
#######         Run Simulation         #########
################################################

reset_timestep      0
log                 log.run_${NAME}
log                 log.run_liquid_density_MLmW
