LAMMPS data file via write_data, version 29 Oct 2020, timestep = 800000

4175 atoms
1 atom types

-0.07943821057768119 50.079438210577564 xlo xhi
-0.07943821057768119 50.079438210577564 ylo yhi
-0.07943821057768119 50.079438210577564 zlo zhi

Masses

1 18.015

Atoms # atomic

167 1 34.841028708611574 0.19700926088219062 6.179795470573087 -1 0 -1
3722 1 12.55747371544429 0.44059260042187964 0.6282004673775549 0 2 1
2878 1 10.743914142746673 3.7724030630881367 2.820292772191568 -1 0 1
2452 1 16.636021353289802 0.866445115864348 -0.06834367542236315 0 0 0
1933 1 18.24264260803307 1.3546203017354483 2.449651258817623 -1 1 1
1880 1 15.491244708844821 22.091287422577647 0.4658067694837148 1 1 1
3712 1 42.12317236755965 16.506114269223684 0.5967450148579058 0 0 0
3242 1 26.06408603732707 3.1960916845367247 3.0885834560500802 0 0 0
3418 1 10.567180677585377 24.880680748855276 5.038167239499624 1 0 2
206 1 44.47414436289168 22.556375380455616 16.256188425931214 0 0 1
2673 1 21.779668135526926 21.760395179680668 0.7201369529127679 1 0 0
3343 1 40.62384399374136 2.181914832085195 1.3228331306116567 0 1 1
2696 1 6.22822046809251 0.33531424481724176 0.596006482323625 1 1 0
2002 1 33.43940710150581 23.535070002335235 1.574925449161175 -1 -1 1
522 1 24.42522825312096 0.045721207457772056 15.171008177142149 0 0 0
3037 1 25.322114584569054 8.898176442324864 0.5357348687836543 0 0 0
3647 1 48.80530624734236 2.89295416628574 2.939001025336016 0 1 0
4111 1 20.599022051166273 9.745468037935117 -0.07815744561776185 0 0 1
2882 1 9.216031598162358 19.466073950278137 -0.07427242744429124 0 0 1
491 1 7.596715449094103 4.149007609455229 0.3912643098197471 1 1 0
3580 1 13.092871644806491 2.412518468616753 2.584441200409229 1 2 0
4032 1 20.437816781364457 24.59825608496895 4.512839749669001 0 0 0
4115 1 15.980746848350382 3.376061910099938 1.6243322689327202 -1 2 1
3914 1 16.281034940209523 6.335540721260749 1.5416490318764884 0 1 2
1032 1 24.32634011194252 0.01940685168602692 8.52633326756331 -2 0 1
1752 1 20.50523541256865 2.8122279173097184 1.278240715827892 0 0 1
169 1 22.74067368337468 6.1128907602064535 2.9223444396380454 1 0 0
3149 1 24.695753287265706 5.020539569303783 4.781364348102475 0 1 0
1598 1 35.82331555011557 3.0392864090017566 1.6419833419134144 0 -1 1
3961 1 33.16209719012882 7.223878754191102 2.5563382509668977 0 0 1
2306 1 36.46295652789925 0.5215554704758938 0.11537394227005171 1 1 0
3529 1 12.539763926164735 13.210748651433779 -0.02991898851016333 1 0 0
3033 1 38.05668376479828 7.438037223915919 1.5182681694331654 1 0 0
3347 1 42.83953138567041 4.622760913202113 4.003236070515063 0 0 0
3955 1 44.61471970784497 7.549165049219291 2.0369178131890195 -1 0 1
2872 1 47.56989409849864 5.66044549333117 1.3173212225798938 0 1 -1
692 1 5.1750511980562255 5.405410081499992 1.441252498943952 1 0 0
823 1 36.639318044027064 9.535099536277407 -0.048525116353656916 0 -1 0
3976 1 41.26501444012807 3.9017280207448537 14.972957916089308 0 1 1
326 1 12.343230475757748 8.812793541187792 1.5878362047393404 -1 -1 1
1917 1 14.93033610862298 9.289366205716648 1.7284383003420543 1 1 0
3177 1 24.147317378279077 8.60430980340504 3.23133785264817 -1 0 1
12 1 27.533107449538267 8.8222761429096 2.795310023058953 -1 0 1
3317 1 30.309522840494868 8.201752011387477 2.2359943444194093 0 2 0
508 1 33.033669064785116 24.24633248502426 8.218357816987162 0 1 0
2439 1 40.893885134744025 8.080478873191035 1.4306619071769078 -1 0 0
3181 1 42.391206924076585 5.651434798133804 0.8608373242664579 -1 0 1
1077 1 44.87162356803255 10.56043215572362 2.1472280116410194 0 0 1
2464 1 48.58182446727159 0.5336305109579546 -0.02606625319424665 -1 1 0
3760 1 3.536241473260095 10.845428283407065 1.2372951865241768 -1 1 0
3688 1 25.718332519509868 2.8167488996438252 0.4644942579583987 0 1 0
319 1 7.366870546996922 9.271865281600476 2.146604651051434 1 0 0
1550 1 11.280324946150433 24.90712375787394 15.278580711774152 -1 -1 1
2480 1 9.892780927881073 10.41656975697441 2.539148443452011 0 0 0
4135 1 18.284373367989367 9.6385664520194 1.8934343428959521 0 1 0
554 1 21.419050418797795 11.881005674386442 1.6673025202906049 0 -1 0
1717 1 27.699349474188917 11.722936767676883 2.2841010041973413 0 -1 1
717 1 29.53604138991719 13.46809781819521 0.6700890700361162 0 0 1
3379 1 31.223250029989856 10.935671803504947 1.620731399752808 0 1 1
710 1 34.01391042253965 10.993011280383513 1.1724519461082736 0 0 0
1799 1 32.18803144440601 22.64772228128854 15.849323950688804 0 0 0
640 1 40.49552120703757 8.956723697721909 4.1209520341283685 0 0 0
3573 1 42.71760068247863 12.435529448379569 1.4562599042949271 0 0 1
1326 1 5.786752142415033 1.0525402486296296 16.466200052781723 1 0 0
898 1 1.774723136960556 12.82574117268855 2.167715288422941 -1 -1 0
3039 1 49.62569022854461 11.316151818300858 2.6778963428390288 0 0 0
1038 1 9.65742695964274 14.54977157587896 0.1775987193726169 1 0 0
58 1 47.23909693218893 17.201441595552026 16.229961292096192 -1 0 -1
3501 1 7.060559871526107 13.320376800179737 0.9360863019425731 0 1 2
184 1 9.265154562524414 23.486420703653152 0.8623646749136042 1 -1 0
1773 1 12.904268384008597 14.390766657436819 2.4475404547987765 1 0 1
3830 1 17.000731389374494 12.494273557617833 2.25605601422626 0 0 2
3777 1 14.82011949196274 13.121016103561807 3.9290307419776145 0 0 0
1049 1 19.839179651921192 13.558478894212577 2.8450704534659934 -1 0 0
2349 1 19.293782979968277 15.809968140924427 1.020334780449609 1 1 0
2699 1 30.672043287283994 10.844796812847456 16.183238568880768 1 0 0
2956 1 26.96209009260053 14.424963670613263 3.016957394379906 1 1 1
2192 1 30.716882043406045 24.012576078375826 11.03616053500173 -1 0 -1
3250 1 27.484708302909002 15.582686018038114 0.6263588199465002 0 0 0
162 1 30.974572101337532 16.84957401426813 3.3702031476978336 0 -1 1
680 1 33.95302078526095 13.831706519769112 1.233691746668035 0 -1 1
387 1 6.586311060026499 23.24100872180608 0.5442932491607633 0 -1 0
2562 1 49.38185918545703 16.275158717356533 -0.0569626111743408 -1 1 0
657 1 37.72496048889097 12.11393838730643 0.12887030305609634 -1 0 0
2287 1 49.57689257243162 17.548502130558866 2.5557640032846405 0 0 -1
3822 1 1.9874447138068154 18.77586637902236 2.9236406944696482 1 0 1
3514 1 18.31427415079237 7.325042143536384 0.12307082056953178 0 0 1
2125 1 9.058825780090736 16.482059669065798 2.466794591269666 1 1 0
3277 1 11.218294396374684 14.905677181724586 4.2711765310428165 1 0 0
3382 1 23.161756575055485 6.162715285758244 0.022420303648315404 1 1 -1
854 1 14.536480099289546 16.644184199443124 1.626562276562659 1 -1 0
1646 1 17.407859002475686 17.011054509544273 2.242278962371354 1 0 0
3500 1 19.925986588638622 0.649250492732908 9.619790102970521 1 1 1
3988 1 24.278193992207775 18.209662532381817 1.8406255916169476 1 0 1
3929 1 27.260813293657595 18.188324571193327 1.2304813669940364 0 0 1
3790 1 24.118224122743076 1.0848674116398893 3.9827070561210602 1 0 0
251 1 33.55284146113502 17.34331661806801 4.783440618644448 0 0 -1
38 1 38.15884720380794 0.15478467678611224 2.3912593393828674 0 0 -1
550 1 37.49978218379003 16.379375298732015 1.9311648764484062 1 0 1
3834 1 41.51274159787033 24.17334227269333 8.677203739035 1 0 2
3683 1 10.376173509028266 5.0496939002375285 0.1351200376299011 0 0 2
1735 1 41.88491886235839 17.546665827283675 3.5330580809222845 0 0 1
3558 1 46.19687839837715 15.553018063917722 1.6968231999886318 0 0 1
479 1 24.283137729283805 24.134065883227457 7.519585041323787 0 -1 0
973 1 20.364216835962313 24.725731098488538 1.4928381367997636 -1 -1 1
3759 1 5.355263328643369 21.62875586250695 2.2904875400039617 1 1 1
3301 1 23.97046572120987 15.348149809380878 0.3692506807536409 0 0 1
1469 1 6.6310142452367735 23.96142366196845 7.044760092811418 1 -1 1
3253 1 21.738056904711488 17.666348602969407 0.1488105205635006 0 1 1
1188 1 12.826302387514895 18.718670116311365 1.8083667039446667 0 0 1
2000 1 18.369501858604448 19.56176151776297 2.4495995919751494 0 0 2
2023 1 21.219703625935775 19.50468420847725 2.4498664001266186 0 0 1
1046 1 24.524192072969907 21.040318963011735 2.638102091449802 1 0 1
2101 1 26.033219311407017 22.203726102061037 0.5902782473847186 1 -1 1
1453 1 30.047939205904015 20.899261821033978 2.7472502268747814 0 0 1
3482 1 27.551295267567923 0.5794727436480132 0.0670329744301931 0 1 1
2902 1 40.09721152066912 19.421512319668384 2.6344925909328105 1 0 1
3918 1 30.694508365561614 0.6346124266613482 7.483830367388065 -1 1 1
3909 1 44.569547188248166 21.50739273470058 1.5588258054448576 0 0 1
1308 1 1.2299366390717805 22.59274053468491 1.4960300290426978 -1 -1 0
1819 1 20.530134465875957 5.405708310187491 0.3248090289792625 0 0 2
3076 1 1.6557141251957959 23.49262797737692 4.031392270943866 0 0 0
3566 1 4.335729509675407 23.215464476710533 4.6514814979902 1 0 0
678 1 31.589991835210835 1.250713780452081 0.40496181030413825 1 -1 -1
1707 1 28.90084884017857 0.12324273612499129 14.685428188147005 -1 -1 1
948 1 20.13265898882983 11.555511732700786 15.058829112941144 0 0 0
492 1 17.575759733893207 24.07887239043265 1.3663632501259249 0 0 0
318 1 22.576815572998235 23.159652032634035 3.2482112050878427 0 0 1
1540 1 31.36184928098963 18.85664633650117 1.2798728047539347 0 -1 1
1584 1 30.79805439521739 24.065130330408255 2.6290020940313057 -1 0 1
2124 1 35.140678454075 20.668530026377198 1.7042248226237708 0 -1 0
556 1 39.08209026194541 23.715698740249984 1.9208580665352124 -1 0 0
2748 1 42.031867949545656 22.836605710958473 1.0189099686810352 -1 0 0
1109 1 6.626324784315177 19.447381094755148 3.2281185696164334 1 0 1
3814 1 40.033678988784075 13.419487395671544 16.624808864988832 0 0 0
1827 1 2.0296002408599856 2.354355810340642 1.5601065878743428 0 0 1
803 1 4.4616436819727925 2.979730514619522 2.6201299900428783 0 0 0
2504 1 10.50478430848917 -0.04234734897412812 4.5131617289448 0 2 0
1836 1 12.863818873768551 0.6662170806665935 5.462067793967841 1 0 1
543 1 21.997555409008893 3.215065374506954 3.464136491625832 0 0 0
1909 1 28.65616190003882 23.03823692559628 0.758723275386779 0 0 1
2333 1 28.523870632399163 2.3644353084218426 3.94307744310371 0 1 0
3685 1 28.500625180478753 1.8653457159898528 6.631567260121957 0 1 1
1770 1 32.656744807192396 5.106911722030007 4.21328441518525 -1 0 0
1552 1 34.113565306911 3.511803313521574 8.600300547188128 0 0 0
2534 1 44.187578654136985 14.650602048672273 0.3557732787352707 -2 0 1
3233 1 38.361928995346275 2.305185926780529 4.386368968642202 -1 0 1
3297 1 43.49554299929217 2.746260431034173 1.5960393458737065 0 0 0
3063 1 47.83884341555394 0.38325699540251046 4.060741886144711 1 1 0
4068 1 0.07223438765904827 5.367515959228209 3.9775804008120206 1 1 1
1956 1 6.178485773800555 1.1106987706964337 3.5638150708399703 0 0 1
1867 1 3.0690905181936534 6.802439291751583 5.455541235454012 -1 0 1
2182 1 8.819619186048337 2.092585795752613 4.239225818306975 1 1 -1
2944 1 8.867769130347256 4.938713902987026 6.9063435010170435 0 0 0
2697 1 14.232497546617685 3.171052648824594 5.254681797151148 0 0 0
1676 1 17.43622751050413 5.816364803007246 3.8791348468166653 0 -1 1
2022 1 16.916598743837145 2.8838942483732923 4.585244276923962 1 1 0
747 1 20.43398850060218 3.2887688165051547 5.919009664376274 0 0 0
705 1 20.747765952891093 6.1047272372197 6.48018951047643 1 0 0
1979 1 24.714633236323174 3.4540370498972788 6.920239872159396 0 -1 0
2987 1 26.33078989672109 7.3387265799905155 4.7346363775592994 0 0 0
2503 1 31.37910576862583 2.5756347251442295 4.808655747691073 -1 1 -1
2662 1 36.110627576772245 2.8466403239220073 6.317346191232967 -1 1 0
2758 1 34.831836005832145 6.127965149407616 9.24355922901683 -1 0 1
1025 1 35.48087859386116 4.660712189795836 4.1408030024624125 0 0 1
687 1 40.24744870819781 4.171708062124088 3.3284698226372855 0 0 0
407 1 43.886744399159596 3.622976258351072 6.432040871872847 -1 0 0
718 1 46.017539249988786 4.331473334242703 3.145068662981009 0 0 1
1253 1 2.467596698658523 6.132006149906725 2.6124832450915605 1 1 1
4044 1 2.1219156739069014 8.93988637642262 2.763802223101963 1 1 1
2797 1 5.684797294362322 7.899177823148942 5.943598124873428 0 1 -1
3248 1 6.786250563542194 6.983977415912852 3.532953971959595 0 0 0
2392 1 9.375275177003369 5.960857702332803 4.3932033700906805 0 1 0
315 1 11.984655727812601 7.32434684987793 4.166613452868473 2 0 1
3455 1 13.599861881832554 5.79664537178772 5.764307070723071 0 1 0
20 1 16.179203585545533 6.953138334533005 5.875525428545362 1 1 0
3178 1 19.56415334264586 9.49499077635595 4.552646707973975 0 0 1
3207 1 19.961102088316363 6.835788014391688 3.95611266436452 -1 0 1
2074 1 23.04165667735129 5.6296722028641435 8.13765578709448 -1 0 1
3031 1 24.209691913738048 8.328182658686853 6.616426630368941 -1 0 1
2521 1 28.98092497767972 7.08185766094985 6.236734163009728 -1 1 0
1444 1 29.854411330244492 9.565204806547287 6.295957715391014 1 0 1
1656 1 33.61409860597267 8.858531638587138 4.810533433899551 0 1 1
2448 1 31.32000315964952 10.592034389634644 4.372276632515222 1 1 0
2539 1 35.8113763065313 9.28534426457631 3.0042851474731314 0 1 0
2806 1 38.156173784015934 5.962057778206513 3.8344148472910025 0 0 -1
991 1 38.23585795579888 8.65017104117349 8.605384547951461 0 0 -1
2486 1 42.21555848395195 7.218055228492756 5.3077684358920045 -1 1 0
2048 1 44.52867220950523 9.272446729094844 6.161619350359899 -1 0 1
3374 1 45.85204521160041 6.751752522866437 4.5875671880773705 0 0 0
2218 1 49.63739748475112 8.550900916764782 2.4774901392710715 0 0 0
1887 1 48.51271437630139 7.2972054459038915 4.647278282477899 -1 0 1
2342 1 -0.026427292602059484 10.887345376774576 5.679561146709123 0 1 1
820 1 4.552038448768736 11.685752679127019 5.223842007344028 1 0 1
1500 1 2.7502375373800487 9.524634952237422 5.712955036891536 -1 0 1
54 1 5.763933373042672 11.409041534996737 2.5763468618990757 1 0 0
40 1 14.687805193681182 10.380582408745598 4.27087995569668 0 1 0
399 1 12.064836222001151 10.01504031788007 4.819184208727672 0 2 0
1772 1 17.092555215931736 9.51783895320436 5.898548106487116 0 0 1
2519 1 20.774002886448166 12.180567425374269 6.379255824016074 0 1 0
1499 1 22.692923724577735 10.796098378874596 4.2383116101687595 0 0 1
3879 1 24.744472431794843 11.271611368987376 6.01277994087871 0 0 1
3508 1 27.34034716053636 11.04710604261885 5.089154799769531 0 0 2
3316 1 31.604445696377713 14.228947700857864 2.606295861969166 -1 0 1
4042 1 31.106947103669924 13.144201497160829 4.965000125040839 -1 0 0
1241 1 37.96821975248922 12.68137143424981 2.9119521448320578 -1 0 0
3498 1 37.70142592488135 10.270851406665903 4.563076493273915 0 0 1
136 1 37.080383858816916 10.490934900945714 7.29825928575217 1 -1 -1
3513 1 41.12284832152821 11.412040133315918 5.391161455314089 -1 0 0
537 1 43.86604510620528 11.747052140439845 4.886988900644625 0 0 0
2292 1 46.90533221461631 11.844038016434524 4.0229261440719055 1 1 0
902 1 3.557835890247949 13.88177663333356 3.7246012432527658 1 0 1
3579 1 7.2669456667251895 16.22457054653539 4.329904373559582 0 0 0
3915 1 7.077740488341312 13.526649952561998 5.041100010968118 1 0 1
3258 1 9.311180780377345 13.044997029644755 3.036890637113152 1 0 1
4062 1 15.165848367353645 14.355699224494433 6.533300343316733 0 0 1
3184 1 17.71314932425056 13.86856561007553 5.119224343499053 0 1 2
3842 1 21.20412624649193 14.285678125156204 5.097187177973537 0 1 1
372 1 24.467984136836005 13.789611783003915 4.748794834561551 0 0 1
4164 1 25.379735983028493 16.882716011934495 4.283300371863188 0 1 2
2630 1 28.5698241773696 16.54798886858666 4.861839597769046 0 1 0
2501 1 28.381977659962136 13.619943605818369 5.57060652803982 0 0 0
590 1 35.27566143551306 15.32370821220546 5.965053802475478 -1 0 0
3226 1 35.907696116505676 14.66293469136892 3.056254332047857 -1 0 1
1653 1 40.80696339171028 13.367376296092077 3.3486447733878326 0 0 2
75 1 41.22213931641542 15.44903983493554 5.1080121286553615 0 -1 0
1477 1 43.350525307859584 14.012463729317115 6.344406491192301 -1 0 1
181 1 45.49996854970472 15.624529779213589 6.5490499968851665 0 0 0
2394 1 46.74481878382797 14.555243137733948 4.2636348292704005 1 0 -1
2567 1 4.160120540297444 17.39110387993353 3.8259314116379466 1 1 1
863 1 8.372923720772611 17.374483326683038 6.662536513378058 1 1 0
1361 1 11.125935400759717 17.7881614437157 3.7805757906911897 0 0 1
1438 1 11.083572489363599 17.318722549420368 6.653591019656274 0 0 -1
3449 1 15.384593013134916 17.02811447281093 6.7583263416005614 -1 0 0
2688 1 13.850707249434768 18.86158268087755 5.459961067970674 1 1 0
3956 1 17.70228118111377 17.287472159144762 5.0076082129575425 1 0 0
3666 1 19.54087205295637 18.84500081365631 7.0980548349315455 0 -1 1
617 1 22.665974955059415 16.603671426231553 5.630080367067468 -1 0 0
2262 1 21.729094717107465 19.299415965817325 5.265321621308399 0 1 0
3934 1 28.042434526801042 19.282758191219713 3.598238857169296 0 0 1
1795 1 30.009743474143807 17.3849160017849 7.0039527629036895 -1 0 1
2365 1 36.44244129392334 17.331785799925512 7.554127743250993 0 0 0
179 1 38.037660369893516 18.25265552471861 3.984482492558299 -2 -1 -1
3714 1 38.948851980936524 17.01443513289157 6.031033509968694 0 0 1
2326 1 45.002404139970324 18.227319939269478 6.21227216495472 -1 0 0
923 1 49.320519730028764 15.76975267469469 4.743162838127409 1 0 0
2025 1 1.6009822577529405 19.691668944328747 5.533389025330511 2 0 1
1337 1 48.1760070117255 20.112951185842693 2.7052572740716156 -1 0 1
2376 1 4.213540635946447 20.791039503066706 6.195018350857888 0 0 0
1906 1 7.027227775074703 19.92546797791659 5.8365691910876585 2 0 1
2018 1 9.594014573110915 19.876241747053257 2.818572727675261 0 -1 0
3863 1 13.584477643315752 21.895263163292977 6.526468911974319 0 -1 1
1675 1 14.293177070073963 20.89842256500794 2.830575691290329 0 0 1
4009 1 16.50318048023151 20.026697341581155 4.612328839505335 1 1 0
1912 1 24.290121389955424 19.856759128522956 6.634040836281096 0 -1 1
1006 1 26.082303752237827 21.130075856329675 4.884891428036874 -1 0 1
3639 1 31.64551416217042 21.084542846639017 4.856835601480791 0 1 0
1278 1 32.350883127701266 18.965043585469303 6.39285662143399 1 0 0
2768 1 33.93541623105095 18.211239429263316 2.044987582239953 -1 -1 0
744 1 36.21080531416517 20.379779703692797 5.330583609756258 -1 0 0
1782 1 43.47107674640212 22.059636622071302 4.933510681637446 0 0 2
3077 1 44.12838595786528 19.456636663606588 3.6433295837426334 0 1 0
4023 1 45.87661515523803 18.332201104802117 1.9965202705980705 1 1 0
3548 1 0.2465332194622848 22.11938054733858 6.113424071387637 0 0 0
1356 1 4.663026927308178 22.50420839560743 8.419997173435974 0 -1 1
1925 1 17.456870338409786 1.8944127529725592 15.171350767381547 -1 0 0
1432 1 10.057006485633842 22.651029463232046 3.393739774852307 0 0 1
1519 1 13.122954058330526 22.972455823517475 3.879569670250718 0 0 1
3512 1 18.149672143732495 22.960478919171972 4.390184853750305 1 1 1
579 1 38.87768102880369 24.287218350013706 15.136747071190525 1 0 0
965 1 22.82382247156062 22.371683491362646 6.1568418129619795 0 -1 0
1993 1 28.723808541305765 22.536727327161287 5.244890876471543 0 -1 1
1168 1 45.793615025781676 24.122428161875344 0.8038790921945198 0 0 1
1160 1 32.635964699945035 23.493255117839045 5.13592262436832 1 0 -1
3113 1 35.04412595061632 22.646804678169723 3.88133670980308 0 1 0
122 1 38.54109482742558 22.109341460892193 5.523820192794161 0 0 -1
50 1 40.57049352385957 21.788362541178596 3.710794108889837 1 -1 0
4137 1 45.91119660937309 24.251539558106096 8.044696394398963 -1 0 1
1417 1 45.889121467120546 23.435282203837406 5.323444828320389 -1 0 1
2568 1 47.87043887299998 21.102954773306802 5.118191829999202 0 1 -1
1626 1 29.19649153130882 24.281684849853153 13.46626799667284 -1 0 0
4064 1 7.077742751593908 2.356256333354581 6.655320738220139 1 0 0
2547 1 33.17590249439597 4.37734131279913 16.124674355583103 1 0 0
4078 1 13.411959221276343 4.208371506202592 8.378838698418264 0 1 1
2136 1 12.616136173066442 10.380972790721684 14.55393146515174 -1 1 0
1733 1 41.1425387396321 1.944463443659128 12.568191236579782 -1 1 1
2596 1 17.89130951815887 1.946475847048231 6.974679930419611 1 0 0
2550 1 21.84152654999479 3.002105154040595 9.04740541673222 -1 0 -1
3974 1 27.19709215099491 3.316537082969718 8.540303191261733 0 1 1
1536 1 31.322312269488638 3.4531410687788675 8.149048075353196 0 1 1
3679 1 35.03880880594048 1.324109061112343 10.04339783541016 0 2 1
2227 1 38.40166758539931 3.122603027742489 7.943012533558145 -1 1 0
1793 1 40.00450591093538 1.3260683496367398 6.622518751038673 -1 0 1
3468 1 41.89798248386582 2.9393932666415385 7.991948110589858 -1 0 0
1635 1 5.705663617809319 23.416801130011773 12.122969375592671 1 0 0
1385 1 45.713758039076424 1.3109004854472561 5.609912737577709 -1 0 1
2607 1 47.26400295131768 2.97657406030038 7.473138101508544 0 2 0
2983 1 46.13148353986416 1.8772361176466552 9.88094917517867 0 0 0
2175 1 49.94002918389354 2.3811041699000035 8.040052413156287 -1 1 1
3761 1 1.4541393952307753 3.8776354674905353 5.996737945461098 0 1 1
2531 1 4.177576361164366 2.569448950316917 5.598837708391245 2 1 -1
2786 1 8.320026592322424 2.6960030170205367 9.01689493527666 2 1 0
581 1 6.584389647502154 6.360674076155069 7.874731852351294 1 0 0
3844 1 15.451680815388379 1.663163394009748 8.319333528257008 -1 1 1
1400 1 18.65060569775072 3.824701157802218 8.859013491547838 0 0 0
3625 1 23.432792226148283 3.3946540597475305 11.508696998440403 0 1 0
4146 1 25.588507142684527 1.897869044247623 10.143697129047881 0 0 1
2918 1 27.853638758965555 6.017190811140115 8.527088116290889 0 2 0
2903 1 31.338156077198484 5.983567321894197 6.460400724800824 0 1 1
1173 1 33.64960966657139 7.31401646673008 6.993714285026835 -1 0 1
2208 1 32.19662810447866 7.526262394238398 10.499909074598984 0 1 0
289 1 37.71351881970649 5.777696624885664 9.473591520607322 -1 0 0
779 1 40.47297026456606 5.387909568618934 8.550953130397145 0 1 0
146 1 45.68366224695127 5.615958876380512 7.16465187734523 0 0 1
3912 1 9.951950330898786 6.837159703771824 8.462169383639393 1 1 1
1409 1 12.268643767190811 7.96518760709378 7.420860061961209 0 -1 1
1902 1 16.493234891346738 9.431216317981171 8.898924013196925 0 0 1
2387 1 18.185588239494326 6.317060661276805 7.839204408284659 1 1 0
3598 1 21.33620633396628 9.064714427044656 6.955884691239889 0 0 1
2863 1 19.46180322203571 8.284239524617295 9.377632400100596 0 1 1
3335 1 25.27639804143563 7.316931761806535 8.81141490318992 0 1 0
2361 1 31.966040654149555 9.335430890830665 8.630686213483566 -1 0 0
3288 1 38.18465812674579 4.8416229915143845 12.098387676074092 0 1 -1
1890 1 39.20378913677949 7.079012732495782 6.197249073007656 0 0 0
929 1 42.4749265514244 7.472302781069541 8.148429516008159 -1 0 0
3067 1 45.26724717886994 7.166392779124422 9.531184777616497 1 0 0
3378 1 49.44640007640734 8.169986250920333 7.18586490881702 0 1 1
378 1 1.8964791063962374 8.374061472693166 8.286234793707559 1 0 0
1864 1 6.223041650637589 10.37794198691021 7.395129153317189 0 0 1
1960 1 4.105259867225735 10.760522544713984 9.178995180947759 0 1 1
2258 1 7.98513042008242 8.93694737667963 9.219151561943779 1 1 1
4085 1 12.380608524809732 11.104176815455197 7.407468472510619 0 1 0
3769 1 9.870187652707296 11.001311456691008 8.581410213058067 0 0 1
899 1 14.193018952510226 10.952426827851522 9.623429109480647 0 1 1
2847 1 18.12314313293404 11.819561347241446 7.097644922037497 0 1 0
1790 1 23.94266371946912 11.590790166745913 8.622893138057599 1 0 0
2395 1 25.451010056360882 9.665091492587164 10.743792790657752 1 1 0
1224 1 27.02782953639257 10.54291918049236 8.296936614361796 0 0 0
2329 1 27.75545836614988 13.262014448392904 8.359720919591688 0 1 0
2663 1 33.4791276976153 10.974464965828425 10.36328046155148 0 1 0
4001 1 39.12403344333029 12.272898025787097 7.266823917578964 0 1 0
26 1 40.62126132895649 9.40340586329176 9.82984487309254 0 1 1
423 1 42.294094161055924 10.897856448901758 8.068085552530164 -1 -1 0
3920 1 46.72647070664691 11.848647397818983 8.632457852880565 -1 0 2
3358 1 44.66903421773131 10.031456971494173 9.324024742844006 -1 0 0
4051 1 47.02319284269363 10.284946014801507 6.303412502594059 -1 1 0
1692 1 49.62885070786665 12.982450690328022 7.847495874673132 -1 0 1
2337 1 0.8140010391938033 13.652178655750035 5.2228703012465 -1 0 0
4131 1 48.85204023919951 15.268424035251835 9.269650592667185 0 1 1
1709 1 0.9118510695944353 14.941493123048529 11.018076036372303 1 -1 1
1462 1 3.085509358941802 13.557714631129388 7.318882598093305 0 0 0
314 1 5.852174803935625 13.680573594814412 8.761730299302558 1 0 0
1907 1 8.161089002252847 12.875686814226759 7.581040076112811 0 0 0
80 1 8.921065966696068 15.539639798224888 8.820070232185207 0 0 -1
3215 1 11.630143080170296 14.866921508879184 8.860156636770355 1 0 -1
3257 1 12.42436062012132 13.513985580622197 6.4729753061651065 0 1 -1
3219 1 15.83876387670008 14.29872063010957 11.890324134119158 -1 0 0
1096 1 15.102999492549111 13.387416953857716 9.22520258846419 -1 0 -1
2011 1 23.5891700998924 17.401455932230245 9.783029470742276 0 0 1
1144 1 25.084653047974303 14.121658611405607 8.85758458813843 0 0 0
3887 1 29.911499661353908 14.106913066946491 9.604279865514302 1 0 0
396 1 31.70546092802888 15.366961673279528 8.281560776643646 0 -1 0
1051 1 33.16093542480711 13.719553598540529 6.665018353122654 0 0 0
27 1 34.9169230749405 12.245317829907743 8.397677838094747 0 0 0
2745 1 41.43568124865266 15.012074573716209 11.020253183150162 0 1 0
1687 1 43.07839689441768 13.292886452009808 9.276342043422245 -1 0 0
2251 1 44.348311603591455 16.95317215390637 10.610248292077 -1 1 0
4077 1 45.66634764525041 14.5119912033036 9.251333657113042 0 0 0
1075 1 49.258248812149446 16.973430486654102 7.051469164154639 -2 -1 0
2592 1 1.6176640553446455 17.98411970094895 7.826960179507362 0 1 0
2724 1 3.193154248749213 16.139963963298637 6.047714681995045 0 0 0
1053 1 5.632876760158596 16.159422118951678 7.619674489998283 0 0 1
2659 1 11.793271159050748 19.723275799015408 7.7238609170489045 0 1 0
416 1 18.04484690932515 15.79787321270216 9.425437611805988 0 0 1
1972 1 15.848020224970846 17.28671618698876 9.429457522859966 0 -1 1
2319 1 19.26153902428838 15.744534358498555 6.9380602783342 0 0 0
3850 1 22.326473798154584 15.323414511388773 8.617680772014232 0 1 0
3775 1 25.438677019334232 17.221413862085544 7.29950028421458 1 1 1
1399 1 38.14853093799549 14.449828212788105 5.404082426623613 -1 -1 0
2347 1 37.06275670630434 16.615914743430675 9.905262159913192 0 0 -1
4046 1 40.27744733791552 18.175403988634255 7.948441099276447 0 -1 1
3855 1 43.00699084109327 18.297289683455563 8.48850457097453 -1 0 0
1057 1 1.3812854547567814 20.080892518743475 9.325267518114234 0 0 0
208 1 8.350043377114558 22.4324008779246 5.894478398077555 0 1 0
818 1 5.672116519598894 17.733928268622737 9.853128013810133 3 0 1
3665 1 10.051261675974848 21.80196832948084 8.023790287014467 0 0 2
2467 1 18.148854740803117 21.251642206435477 6.787237160644966 0 -1 0
2204 1 16.306832944557794 20.580453756069172 9.232296244843035 1 0 0
595 1 15.647670896235976 23.40141139032455 7.5998863327855855 0 0 0
3622 1 21.2443144707098 18.644914238709553 9.406255619511517 -1 0 0
1220 1 27.783608212938148 17.534753413547605 8.510327356306036 0 0 0
414 1 29.258191461358262 21.605740367557274 7.857396516866018 0 -1 0
2821 1 34.20365586425767 19.165879715236866 8.620340989406047 0 1 1
1924 1 32.08392870584257 21.49110144312732 8.498338355547327 -1 0 1
354 1 36.02294841253291 21.40131366561787 7.913079744223105 0 0 0
518 1 39.393877135074234 20.736205675519138 7.786882102153951 0 -1 0
3421 1 42.9634189880713 20.98870703582214 9.69364182462714 -1 0 0
3987 1 47.44516615417737 19.329322032813312 7.019534375987713 1 0 1
34 1 46.9977869049729 20.089722667553776 9.629958614337385 -1 0 0
2414 1 37.13434503984769 21.83693435471651 0.28790266778194296 0 1 0
2990 1 1.8073031607372039 22.941588991550724 8.476980698947118 0 1 1
4103 1 20.05117952072345 24.197678973335513 9.278285839712604 -1 1 1
2794 1 10.569082047633984 22.513800082598827 13.604716416966479 -1 0 0
1859 1 11.66947357589551 23.792997252444728 7.38876982634189 0 0 1
3886 1 28.820360307591983 23.978268348621 9.191065684546697 0 1 1
126 1 13.91756249482232 24.40566902894293 9.401475659023411 0 0 0
1563 1 21.81443643371709 21.157821512281654 10.076727056351093 0 -1 0
430 1 20.503723941139132 22.257838266125997 7.583062449097813 0 0 0
2410 1 24.066085627168672 13.061820978997284 1.9278490542222424 0 0 1
2528 1 25.999779225182788 23.288378253051047 9.531875918569844 1 1 0
1822 1 6.483857516081217 7.181343991280402 15.460715060509306 -1 0 2
2561 1 25.675952124061784 11.523239354919868 0.2282724145900742 0 0 1
1451 1 39.839984944146906 15.030263359666769 1.1855498751902906 0 0 0
3919 1 6.769643957356093 22.441744215271584 16.351956996258174 0 1 1
3102 1 43.8063842715718 0.3862692013970949 2.9643736175769786 0 -1 2
3755 1 39.19863719634925 21.687733840704375 10.401135909946673 1 0 0
4020 1 41.886369130610746 21.86601212480025 7.394043714108172 1 0 1
3748 1 45.26603364976717 22.286323681471004 9.723708203985847 0 0 2
1665 1 48.94083719056516 23.80245077882308 8.41988837245928 -1 0 0
2040 1 2.0524862674365316 0.873788209002404 11.550568428773405 0 -1 2
2754 1 5.8041636870014 3.0850440565909154 10.219880968120236 0 1 1
3431 1 4.0865674991647944 1.0824741492752357 9.596028319492515 1 1 0
1619 1 37.822860433658946 14.768063083381 16.313139214772857 0 -1 0
3851 1 15.671864477989795 0.7106085495516469 11.218531558935897 1 1 0
3150 1 20.722908071674468 5.738746794229533 15.481187496585337 0 1 0
1309 1 28.994923226273016 1.7831082103398257 10.776507874512738 0 2 0
711 1 28.772349981499662 2.9517398951333473 13.519942588666908 -1 0 0
1262 1 31.70925629300717 1.8416572746922077 10.573942997512331 0 0 0
883 1 34.18346985926556 3.9147711811372012 11.633555260822728 0 0 0
3899 1 35.48447060811132 1.9535053573316685 13.425436930942597 0 2 1
304 1 37.80107796556433 1.2040437225027794 9.988233983615586 0 0 0
519 1 47.40346258923135 3.1673425438784437 12.063387822098084 -1 0 0
3238 1 -0.014321268718135466 2.8511070223223896 10.646948756376368 0 1 -1