LAMMPS data file via write_data, version 29 Oct 2020, timestep = 800000

4175 atoms
1 atom types

-0.5912120442977553 50.59121204429532 xlo xhi
-0.5912120442977553 50.59121204429532 ylo yhi
-0.5912120442977553 50.59121204429532 zlo zhi

Masses

1 18.015

Atoms # atomic

2467 1 1.5962780434371573 -0.5909239768206306 -0.1590559977827185 0 1 0
618 1 2.9114687536344084 1.3151754732906724 1.4195766872105322 0 0 0
647 1 4.939983593093356 2.5910993746457054 0.3697052757396012 0 0 0
622 1 6.34539508149795 0.09807244811839377 0.4394286325438359 0 0 0
3645 1 10.03096442208871 2.3455104719320348 0.637970759391969 1 1 1
2425 1 9.061852611544609 -0.1510139096068433 0.28637082239177614 0 1 0
2388 1 13.32511274713845 -0.566333102276552 0.6958114721884117 0 1 0
4014 1 12.612606917278267 2.0439021838443563 -0.33788451415596976 0 1 1
2205 1 16.10763717002908 -0.010248471647574364 0.20351092505907686 0 1 0
2423 1 20.01840473228927 0.27451060668757 2.502491704496884 0 1 0
1740 1 20.91294795410021 2.363820611121949 0.8045083468024927 0 0 1
2057 1 24.52560222196049 1.8171243536852955 -0.42177296390184127 0 0 1
269 1 28.193964346891114 1.1196314972895125 1.3557674023480728 0 0 0
1426 1 30.697258455744098 0.7355495379268862 2.374622830955404 0 0 1
1771 1 31.746209598888093 -0.1930929221694555 0.08236113282315938 0 0 1
144 1 34.636898871420435 2.579597830969075 1.7587223473542797 0 0 0
1465 1 38.52245429434891 0.6645395356437571 1.2801209096299377 0 0 1
4 1 0.7136604377583766 2.9113294498140925 1.6159227820756823 0 0 0
1752 1 1.760623428004715 5.385805623697784 2.625927151653241 1 0 1
167 1 7.682398488773249 5.652984933317155 1.0823760130670785 0 0 0
670 1 5.849829860947772 4.38962227439425 2.5596871306907047 0 0 0
2700 1 13.748179003418633 3.5816656936053057 1.7035933440272082 0 1 0
1638 1 12.522577687645457 5.771028734708301 1.2142675267625842 0 0 1
1491 1 16.334069999150852 2.8692512052330734 0.21037914861304707 0 0 1
117 1 22.149463973439712 4.3206346079670075 2.4733714263522364 0 0 0
2363 1 25.616640089091167 3.2149731029403186 1.6349333177138305 0 1 0
1667 1 24.316013933154494 5.568206414929047 1.9566422235501286 0 0 1
106 1 27.818137026599285 4.10168138378325 0.4020187122281612 0 0 0
75 1 30.16176400485329 4.724878672537528 2.4515987742069782 0 0 0
271 1 35.35738183592723 5.418349767529986 1.306716915518507 0 0 0
69 1 37.898520679001095 5.173635854786086 0.12130463057228502 0 0 0
581 1 41.99774769691132 4.437081376967397 0.9426126586858665 0 0 0
1595 1 44.54155718352587 4.663196858761991 -0.11254224452077732 0 0 1
4092 1 47.0981938020935 3.127540854808005 -0.31676293988678184 0 1 1
341 1 47.3408557107136 3.138057449017408 2.444958785804076 0 0 0
78 1 2.2735193280573514 7.621895160482904 1.4068454424377894 0 0 0
343 1 0.343260220271287 8.214988379158932 -0.5123269953399259 0 0 0
118 1 4.825339742702466 8.681472402012671 1.2557302042511675 0 0 0
1972 1 6.725082732198717 7.9294405503562935 -0.38812685898864824 0 0 1
627 1 9.98062992257899 8.74916105818983 2.3753559983505332 0 0 0
1591 1 10.056623779707902 6.029003734896574 2.6181845295251436 0 0 1
530 1 14.113529052473233 7.962553073319208 2.4739793367541405 0 0 0
2098 1 15.358168664660809 7.994399370009658 -0.2753587186532336 0 0 1
493 1 18.142086657571472 6.187940833184354 2.211659525833948 0 0 0
195 1 17.820285386724652 7.139737394860828 -0.4010218010805743 0 0 0
95 1 27.399257649080337 8.500187889247997 2.052140396932255 0 0 0
489 1 31.727895781884676 6.096035913879165 0.26175955214631386 0 0 0
1854 1 34.030354636358915 7.696301778923456 0.5397865428533888 0 0 1
140 1 40.22152646770523 7.073456340282973 0.4795159204906829 0 0 0
51 1 38.580615559094625 8.042449915559573 2.4887546440738886 0 0 0
1559 1 42.738732946467174 7.213362804530854 1.7629398144472446 0 0 1
451 1 45.314391660304615 7.5040273430597235 0.28665201996267886 0 0 0
553 1 49.07137045933734 9.002931438725597 0.20981248394096585 0 0 0
3684 1 47.965196731815865 6.628573148247938 0.5563057874282431 -1 1 1
388 1 1.4277001066176904 11.564406519022125 1.6509959485190175 1 0 0
1767 1 5.4607244298568585 11.441349562170146 1.724211871675012 0 0 1
113 1 8.005751296954205 11.630673809841431 0.49376319482501074 0 0 0
1474 1 9.00732071382424 9.299175558285977 0.1564405494660881 0 0 1
1632 1 12.033935957888003 12.150253183689246 1.6606333858603581 0 0 1
2105 1 17.926136226410794 11.362489003835963 -0.015473305370120038 0 0 1
1783 1 17.734171949141103 10.818382230209716 2.687124942459184 0 0 1
516 1 21.94358524956266 10.17854999963225 0.5584551012611261 0 0 0
511 1 34.64310127646869 10.400602524103208 1.5997975490164413 0 0 0
419 1 33.19560619833812 11.807418476166301 -0.19893645250728859 0 0 0
1701 1 37.266935967568855 9.747834897430218 0.8592278080448907 0 0 1
267 1 41.543204618577114 11.46017422461617 -0.3687142212205311 0 0 0
1764 1 42.867254853326955 10.075884499537075 1.6813480544975548 0 0 1
252 1 45.62334358833039 10.31582658089528 1.043753005340178 0 0 0
1704 1 48.13436974689089 10.746631739408896 2.5830877733516315 0 0 1
2005 1 3.5650673346754838 13.30687289755013 1.830153941127826 0 0 1
1815 1 3.6233747602334656 14.720119736427407 -0.577323047753687 0 0 1
112 1 9.720745449919372 13.488796882253752 1.609033112212226 0 0 0
311 1 14.113410243635126 13.722668003875958 2.517927183674812 0 0 0
1856 1 15.471579488288128 15.337164669474108 0.5125819712471216 0 0 1
1526 1 17.972649172646904 14.154515604699228 0.11816502841237408 0 0 1
115 1 20.106599393671694 14.645730414411187 1.9271412593380273 0 0 0
1892 1 22.03247469412397 12.721309697424802 0.49028958660619204 0 0 1
1637 1 24.63586590172835 13.80913636607578 0.820086990228865 0 0 1
663 1 26.735896735281464 12.264316795733288 0.08448384507367157 0 0 0
660 1 31.215928937210712 13.371157661481659 0.988866057792428 0 0 0
2099 1 38.31822881873159 12.26751573616727 0.018918331528518073 0 0 1
71 1 36.056993437685826 14.861800919738345 1.0296072823809128 0 0 0
348 1 36.12716798786214 12.770200918201317 2.5666478224629574 0 0 0
2567 1 40.77794047713761 13.806618109618295 1.390102690788981 0 0 0
292 1 45.48007718285559 14.651723765932235 1.8461492197404508 0 0 0
1697 1 45.77763469941886 12.915380502484759 -0.2847930715967738 0 0 1
659 1 49.98289193899528 12.694254781473315 1.8540600117503305 0 0 0
486 1 50.01915268613153 14.530439058336512 -0.0918832694593702 -1 0 0
1504 1 4.914565836865271 17.160785485466327 -0.03257686987735586 0 0 1
31 1 7.018220376977543 16.927966138779993 1.543320032415719 0 0 0
564 1 9.088615790155243 15.71816495115971 0.19903564908288718 0 0 0
352 1 12.277496752959957 17.780109104377292 2.074123486467409 0 0 0
1469 1 11.593553052777398 16.97757556474924 -0.3582396432120626 0 0 1
651 1 16.925295881896965 17.4395471997121 2.090247039678041 0 0 0
2097 1 18.724700740352503 18.309460714308766 0.24359016096583408 0 0 1
350 1 20.614891545209073 17.333170741689056 1.9969852583120007 0 0 0
1886 1 22.873264096040053 18.459591680359914 0.5666014395233716 0 0 1
694 1 24.727870671652056 16.39385518659016 -0.2554995433274367 0 0 0
378 1 27.271444850158904 17.7119413358898 -0.42754485406671305 0 0 0
2206 1 28.44500880317343 18.3889335507884 2.242004855706619 0 0 0
42 1 31.862956573881554 15.929464791293864 1.4709243261809752 0 0 0
1693 1 34.41760565361832 16.790741211086505 2.13854811674293 0 0 1
1547 1 38.75121847018286 15.57168316891028 0.9165861041289405 0 0 1
218 1 38.555982761840916 18.10192731222507 2.529054356541459 0 0 0
594 1 42.85300744946699 15.62399054100506 1.8502560722410353 0 0 0
56 1 42.514792671106925 17.979370137020663 0.5247738715397967 0 0 0
1899 1 46.864737688017314 17.04030891189788 1.6789897698688119 0 0 1
1760 1 49.45129217518084 17.001587232530586 1.0516658332853757 0 0 1
3758 1 1.644933678180037 19.677659169587816 -0.54744631985385 1 0 1
1454 1 3.3747542367944647 18.74807190024086 1.5307831914455776 0 0 1
175 1 4.422439185981647 21.117398228631313 2.441911192809062 1 0 0
2054 1 7.977740290510058 19.21079093999022 2.481818328581422 0 0 1
1525 1 8.660284276271906 20.11729986249399 0.028264785132441683 0 0 1
3930 1 13.414297311766495 20.198126810748835 1.9641168801392968 0 0 1
1808 1 14.580923870560875 20.938428108438984 -0.47700884275047173 0 0 1
1435 1 22.445436776836328 21.137631483795168 -0.39179282375533575 0 0 1
1877 1 24.488428972340177 19.412501171650405 2.7191250480061253 0 0 1
3977 1 25.889252436347743 21.5890281357949 2.1850173421253447 0 0 1
3729 1 27.74913035257085 21.79694322626783 -0.018939672719272993 0 0 1
262 1 29.960283607679212 20.671487782824062 1.2839098257027175 0 0 0
1879 1 36.189733307505314 18.91634229581796 1.7384753442257659 0 0 1
50 1 40.537305649083585 19.914573055890823 1.336785505186585 0 0 0
1968 1 45.25927837139993 18.6698724822874 0.2868293702735324 0 0 1
62 1 46.1677224872869 21.27446927923889 0.811812825866236 -1 0 0
1510 1 50.12342502982476 19.369411849096544 -0.28039191191547097 -1 0 1
657 1 48.79732815409292 20.985628525070695 1.3848431940891224 -1 0 0
2152 1 1.1927459562863285 23.87077197870382 0.9441262140365994 1 0 0
520 1 4.9076551324935656 22.41839078876704 -0.1583672992728219 0 0 0
2269 1 7.3154812411559496 24.276400676293374 0.6736279880590912 0 0 0
2453 1 9.606902469046814 22.63406344332473 0.8213889736981737 0 0 0
1862 1 15.978697830592171 23.389601057567106 -0.4242340602990968 0 0 1
1692 1 19.778783180696834 24.773360582016714 -0.2589081648118876 0 0 1
533 1 18.086782973082975 22.794886241425107 1.1193696387978722 0 0 0
6 1 21.511268312050543 24.4834822198708 1.9286429595687977 0 0 0
2253 1 23.81277640723452 22.97437309735961 0.978790899626302 0 0 0
2124 1 30.378100890277093 24.170903927482843 0.3226280488461267 0 0 0
758 1 32.608212198265825 22.74424008743711 1.284126929393881 0 0 0
2612 1 34.42627295604278 24.466278972145705 2.188459964472854 0 0 0
46 1 37.97036010354905 22.423402961089305 -0.21767336165213264 0 0 0
673 1 37.19761376369278 23.65362101981226 2.2165398390875914 0 0 0
1683 1 41.02956353137646 21.9776605036327 -0.4493709810109764 -1 0 1
590 1 42.89819787360151 23.43471774578342 0.563443069192683 -1 0 0
325 1 44.63698977181409 22.588722811687436 2.23550890787822 -1 0 0
2761 1 49.72403018943676 23.660363597446953 1.434161327698538 0 0 0
394 1 3.8770734582908384 0.9484978192998326 4.004626465309096 1 0 0
2687 1 3.920603944874671 2.5906343457630974 6.069387332023671 0 1 0
3830 1 6.377526171823715 0.5025098563897419 3.1164934170283805 0 1 1
1742 1 12.46579361778829 1.8600523582765813 4.22804036132465 0 0 1
49 1 17.262588349235454 0.9218590733002099 6.05400806095556 0 0 0
2357 1 20.659068712073577 1.319821494897485 5.139465186899961 0 1 0
233 1 24.8845595674763 1.8097070815353917 6.028428981196 0 0 0
2781 1 28.571246172322006 0.017729245235753588 5.207191035780739 0 1 0
2773 1 26.81679718695656 1.7483227016967091 4.154691502311922 0 1 0
9 1 36.43400088391646 0.9588146448103971 3.023632547030122 0 0 0
2306 1 40.68213051969094 0.391719752294185 2.9732150515172497 0 1 0
2807 1 40.47460347947628 -0.4576160807668799 5.706141451315659 0 1 0
268 1 44.930511391023565 -0.1430374166981494 2.9510939212062866 0 0 0
2532 1 50.02188246819281 1.9973141520556457 3.394300080586558 0 1 0
312 1 50.312497010515514 2.3067141251494516 6.155697625480681 0 0 0
578 1 3.772912972707859 4.884402074472235 4.441699870359276 0 0 0
13 1 7.596948600767538 2.7653485319435203 3.999777800941944 0 0 0
39 1 10.01329435570031 3.142979073830329 3.327363668724288 0 0 0
616 1 10.903559009304265 5.58060377034389 5.40308661154247 0 0 0
1961 1 16.80061464693236 3.9528504154211204 3.023601323152662 0 0 1
1786 1 14.472090520294607 3.6815878873190915 4.715841623942678 0 0 1
3840 1 18.57536106633611 3.3616624313975296 5.3410263214894105 0 1 1
89 1 22.676156126714663 3.2796258658462554 4.868035728204829 0 0 0
96 1 28.531045841314608 3.825807640533709 4.750967146644437 0 0 0
2069 1 32.40485489371289 2.964933850665445 3.0754631179607697 0 0 1
604 1 32.669763595578445 4.510777108070831 5.370323099961112 0 0 0
43 1 36.85481711695522 2.6535319778165194 5.268791872320045 0 0 0
372 1 37.970281098813615 4.897217131565497 5.323606687375037 0 0 0
164 1 40.638191151079624 5.120623396543472 5.07274277257506 0 0 0
2082 1 41.80211266404592 3.0614862336549207 3.2826524587578674 0 0 1
1492 1 44.577158606896326 2.6405829841770188 3.864760777874033 0 0 1
462 1 45.02369694821534 5.15738404561638 2.8235141190261346 0 0 0
1995 1 48.67501743269879 5.419215867011177 3.134731890300321 0 0 1
73 1 -0.09828896716319235 6.121450711301347 4.236796868839195 1 0 0
496 1 5.518881947293078 7.328215986973111 3.495754126606493 0 0 0
219 1 8.077173980330613 8.978147215830795 4.122843585596473 0 0 0
682 1 13.8113586711399 6.238072105081121 4.901386785903979 0 0 0
2021 1 16.825835136031003 8.470628954575215 3.453132572297373 0 0 1
1866 1 16.01506026497889 7.75481001557201 6.212082382606142 0 0 1
363 1 19.947857902686053 6.493013391163063 5.961276560749486 0 0 0
1027 1 20.699212433924863 6.618922502430001 3.211377014657555 0 0 0
396 1 25.607301054497885 7.382213054100629 3.6785424776519973 0 0 0
58 1 27.454192682990964 6.29865961072468 5.32370885645568 0 0 0
229 1 29.840392448720273 7.650150071386868 5.994762008737206 0 0 0
1835 1 30.060032540154168 7.656212425517749 3.2269348401770297 0 0 1
1618 1 32.716506725540185 8.483727038143149 3.3672852012087664 0 0 1
162 1 34.25137635132475 7.306100424285333 5.0962743110602915 0 0 0
662 1 36.47555478282895 6.526571701154682 3.5610464874317422 0 0 0
2029 1 42.18500922420125 7.355173167483534 4.52187550767246 0 0 1
393 1 44.29594847774831 8.494357893096874 5.999269408713901 0 0 0
541 1 46.461378888583205 6.608167302878248 4.60818460933904 -1 0 0
123 1 50.21046122460149 8.874361886709695 4.646954940035421 0 0 0
2062 1 1.5034665831342262 9.520624145368128 3.543714105328597 1 0 1
55 1 3.7540317710637066 9.100343931248128 4.6233880016698174 0 0 0
1716 1 4.779508918244366 11.352597312132046 5.655474078433381 0 0 1
251 1 6.908164564098569 11.364592413514512 3.9343091056441803 0 0 0
457 1 12.163059128963006 11.3462096078512 5.782603929268734 0 0 0
2016 1 12.364700530147516 9.840775697647043 3.1901623588314947 0 0 1
570 1 19.844834568599904 11.121657013495009 4.4944662478414505 0 0 0
1774 1 21.439852826502584 9.506535083368194 3.223217985296637 0 0 1
638 1 23.66056654565697 9.19566562925195 4.693961312089919 0 0 0
518 1 25.51399762834679 11.285706521529118 4.863265437975892 0 0 0
424 1 27.638122995371713 11.059795867752634 2.835689463055833 0 0 0
459 1 32.18840005790439 10.825319363975723 4.4236076432532085 0 0 0
574 1 40.37350451611509 9.211914812726755 4.428498336951174 0 0 0
381 1 41.11224328895246 11.712561512900614 3.428108521836438 0 0 0
221 1 47.498636108222975 9.398550738745062 5.20144660709114 -1 0 0
237 1 44.75931129491788 10.796678162397074 4.136328338938805 0 0 0
453 1 3.5836879417773044 15.173677674260555 4.11168757703691 0 0 0
23 1 3.071043593223869 13.746278238776895 6.125079624221583 1 0 0
323 1 8.011739124520957 13.607792919017387 4.001984381680703 0 0 0
476 1 10.06417351106887 13.24152293164658 5.7290463923240855 0 0 0
155 1 16.395015918121107 12.870947638782262 3.8751843729566158 0 0 0
1699 1 14.701669895731355 12.51529803924326 5.871270932956277 0 0 1
474 1 17.8511475305608 15.312039986339204 3.699975985912112 0 0 0
830 1 20.776869906791397 14.940817089298 5.989177085819637 0 0 0
52 1 21.34561597680164 13.246591453734757 4.036936822502209 0 0 0
1385 1 24.053526693262828 13.488460223979834 3.6343042930429537 0 0 0
90 1 30.08086462465816 12.341029834130788 3.326835095353401 0 0 0
1631 1 30.12618821760736 14.503270327280479 4.927431247769012 0 0 1
29 1 34.241094589543756 12.422530754453904 4.821319671119846 0 0 0
143 1 32.84665809800316 14.5172329065507 5.5833245685524036 0 0 0
675 1 38.43768122099839 12.924517016923748 4.013738628520875 0 0 0
1954 1 42.7802261729397 12.222767111880215 5.577833200341737 0 0 1
666 1 43.47916379098946 14.880965749637973 6.126288002348357 0 0 0
1689 1 46.713709344001195 13.157518846010895 3.7096689151160662 0 0 1
1473 1 46.184703909685226 15.085956587428802 5.653958918021779 0 0 1
366 1 49.5019216603842 14.20375454841307 4.5268438504474835 0 0 0
2010 1 -0.39399282633685834 16.52486641496353 3.5693193718400664 1 0 1
633 1 2.255819938327609 17.63470017821191 3.909943739388411 0 0 0
642 1 6.358588721000357 15.906103974245656 3.976302935080515 0 0 0
256 1 6.9450904098862924 17.420742476085696 6.065895775696834 1 0 0
3163 1 9.783713847850223 17.796640811395285 5.847062581234247 0 0 0
79 1 13.495821271036428 16.251476069683633 3.8732210965722187 0 0 0
2515 1 11.55423201843386 15.662275790966678 5.823165443487959 0 0 0
2633 1 15.594432614617116 17.10096900400072 5.519206635328898 0 0 0
3865 1 18.744547904538134 16.973911174622007 6.072820033389226 0 0 1
1945 1 24.995367873442156 15.649198064823025 4.863745005027224 0 0 1
1640 1 26.31740832165751 18.06906884108759 4.282445821015645 0 0 1
2452 1 30.351753716180383 16.96078494180697 3.5091441099966136 0 0 0
383 1 33.9742298653568 16.710236308427486 4.950595169446052 0 0 0
339 1 39.08083622770207 15.735309254995247 4.314151680202372 0 0 0
47 1 41.7762969535769 16.359511524327946 4.349125476168428 0 0 0
415 1 46.59464366818683 17.455668199545414 4.341301222353134 -1 0 0
1625 1 49.16311049724376 18.308544693589976 4.825818188120028 0 0 1
154 1 2.84529105998655 19.393871735411782 6.098982806258309 0 0 0
2066 1 6.630882795023539 20.795774266983845 3.8981522878033905 0 0 1
2260 1 5.671533198276292 19.91624351383173 6.059027952140322 0 0 0
2246 1 10.259104589154258 19.039234141672768 3.6691169004715496 1 0 0
246 1 15.567276642564234 19.404318477974545 3.728779783857285 0 0 0
2115 1 14.49982999219444 21.015938401972903 5.854750800910557 0 0 0
2639 1 17.98923687668598 20.86493696584869 3.3496501892211916 0 0 0
617 1 20.010783258191168 18.91294333542561 4.331481653244083 0 0 0
1147 1 18.376798796897734 21.684630601778853 6.173022669338179 0 0 0
2457 1 22.48119199322285 20.29625888651966 4.937702209770972 0 0 0
579 1 31.996176761459722 18.76018723675969 4.9466977826649465 0 0 0
2180 1 33.38774962604734 21.32012967456719 4.90551244355117 0 0 0
1733 1 35.8316913138864 21.25250511630686 3.2032609675259813 0 0 1
346 1 37.15039010086539 19.648058474108467 5.051154026706665 0 0 0
152 1 42.26476428929887 18.771833154753935 5.379367813141774 0 0 0
76 1 41.766962298221735 21.004277701217223 3.383472759662495 0 0 0
33 1 44.55463008220508 21.591695729887068 4.863456749617014 -1 0 0
356 1 44.94240526017952 18.872231956763684 5.974129934470079 -1 0 0
263 1 49.41133145913006 20.830620391294406 4.192343713656366 -1 0 0
1680 1 0.41427470012050205 22.573976299016422 4.781972574840387 0 0 1
41 1 2.4492520318788022 23.06513732796482 3.1997141704384062 0 0 0
309 1 7.8222144709929164 23.09637390416938 4.60927540082881 0 0 0
214 1 11.137009475261399 21.81732689624144 2.8975418417241046 0 0 0
367 1 10.508273615060306 23.325701067128243 5.18253413470259 0 0 0
2361 1 13.63212267508204 23.59172052951003 3.1267261163693316 0 0 0
3655 1 16.19587556690714 23.232072525098886 4.477522262807433 0 0 1
454 1 18.91353121691333 24.797595593739995 3.178474770472305 0 0 0
3219 1 22.032142864921816 23.173501953956155 4.6391782375748285 0 0 0
3142 1 24.506943478701828 24.037429411710992 5.787426610108832 0 0 0
2581 1 29.137208629314337 24.643872579512013 3.0064670430457836 0 0 0
253 1 26.50956801663603 23.361226988887157 4.16069982931371 0 0 0
519 1 28.576969126402496 22.024355189341307 5.386041224727443 0 0 0
3575 1 30.833424418121442 22.016049846383947 3.647127990506526 0 0 1
2410 1 35.41289909629212 23.72080096015299 5.27348798414755 0 0 0
1534 1 39.21144923335305 24.92983040003179 3.439008522642167 0 0 1
273 1 40.376837969922725 22.767426440797436 5.060128970976699 0 0 0
575 1 47.22252665986292 22.249514703404028 5.607453037087771 0 0 0
403 1 1.56836571623908 2.019217665761443 7.827810442592082 1 0 0
2345 1 1.031975534905388 -0.5675839709717752 6.365341818327496 0 1 0
1911 1 3.4520534154981934 0.4418499782595777 9.348255145678714 0 0 1
3029 1 6.486598566778656 1.9481386639101057 6.668162631240693 0 1 0
305 1 6.550151179187367 -0.5706441609987569 7.462370930256563 0 0 0
947 1 10.984504139159272 1.2858021280327423 6.668362394014659 0 0 0
540 1 13.144692786022043 -0.19878427988683578 7.5398588751063595 0 0 0
2768 1 14.914311165691592 1.9050183145314805 6.705162343743877 0 1 0
704 1 18.28870023138841 -0.5310271113922476 8.350439737790873 0 0 0
2618 1 20.79476555111669 0.4661227800328478 8.86709554538697 0 1 0
2182 1 28.29806307453041 -0.18819291858458875 8.305310439154646 0 1 0
3975 1 28.209341477884855 2.383529785693971 8.65055621056091 0 1 1
600 1 33.848073717257044 0.04376264225856652 7.506360746774305 0 0 0
582 1 34.57990181643514 2.5882944256013904 6.549506273083634 0 0 0
220 1 38.68311448145654 1.3195002058911371 7.156294405544478 0 0 0
353 1 40.66836351680061 2.518630700603912 8.63444862521743 0 0 0
290 1 43.92985474769811 2.236542959047693 6.559467593285482 0 0 0
349 1 43.28307545795826 -0.3371993683387292 6.45034601783783 0 0 0
535 1 48.13958575163973 1.2828753501285612 7.704431707876859 0 0 0
2640 1 7.709220102949304 3.788524605169192 7.970998626195957 1 1 0
22 1 10.371477636208 3.7999851027657856 7.516638505891674 0 0 0
227 1 13.835548756825059 5.524327215609943 9.54276323430983 0 0 0
211 1 15.79906593187695 3.494322219272644 8.474583960814021 0 0 0
416 1 17.383617198467846 5.541296031292848 6.996640346884756 0 0 0
150 1 20.71802025802648 3.2234568803083254 9.177005403009902 0 0 0
654 1 21.660181836087123 4.612553208970767 7.127508011772916 0 0 0
306 1 25.577731537836073 2.957100868789247 8.426633636907672 0 0 0
283 1 26.15278358659945 5.714023920523053 7.588440254144096 0 0 0
185 1 30.061327348600127 3.303765374856747 6.884988684844252 0 0 0
2752 1 35.050830315600344 4.121063793588274 8.772795396243879 0 1 0
35 1 37.43877049641234 5.539578942072956 8.237637413719357 0 0 0
293 1 42.15285111128996 4.242889017567443 7.049542738196351 0 0 0
502 1 46.06431661561271 2.9609949694781887 7.793493889818707 -1 0 0
371 1 46.475669672918556 5.560772401326746 7.1094564782016265 0 0 0
316 1 50.52348173132109 4.916286805966423 6.891811756099757 -1 0 0
2064 1 1.0981918071797054 6.655577448210054 7.634255700351975 0 0 1
2063 1 3.2750488030865177 6.908079921042409 6.314430942476617 1 0 1
333 1 5.261607237362557 7.806618276459977 8.07204693681396 0 0 0
632 1 7.177141255706854 6.265809691725458 7.18617625110329 0 0 0
245 1 9.121631994952464 7.675116435408148 6.359596496963915 0 0 0
289 1 9.911186804948871 8.907980284500606 8.655917738141646 0 0 0
615 1 13.287378948672798 7.286306868035782 7.441110852599095 0 0 0
203 1 19.969696407743918 8.733457786381829 7.710136613405208 0 0 0
181 1 22.759641368031392 8.756675755600478 7.223515332118981 0 0 0
413 1 23.517487727808636 6.493560874306267 8.11439401547857 0 0 0
319 1 27.361761049022356 7.533532884699616 9.539305238131675 0 0 0
410 1 31.204367685522943 6.091638778513392 7.744805798689374 0 0 0
358 1 33.69174228294247 6.400163941121565 8.94174125810837 0 0 0
1416 1 34.36816232443429 8.87504596025069 7.2558012742446465 0 0 1
1187 1 36.90422552689626 8.15293512365126 8.22649265085161 0 0 0
8 1 43.924028378642326 6.469214341949469 7.823544715118844 0 0 0
1195 1 48.69394988900036 5.843568476832186 8.685014411115768 0 0 0
250 1 48.909486902435766 8.314966611962989 9.442544731461915 -1 0 0
456 1 -0.16086935226158017 9.190965521140697 7.2310664199644865 1 0 0
254 1 1.4487948821532428 11.37596510265265 8.029227358755783 0 0 0
335 1 5.542076699690718 10.653905569339354 8.347319394534102 0 0 0
2111 1 8.165554544020997 10.931475815096196 9.199745551395711 0 0 0
109 1 12.342362106905759 9.723165312984209 7.8655132146418065 0 0 0
554 1 16.324726211248887 10.541911517628545 6.978986571920183 0 0 0
247 1 18.898528216628648 11.01416081607575 7.004453742119194 0 0 0
658 1 23.554237531435867 10.97299582818647 8.563558531734163 0 0 0
2555 1 25.903408783576193 11.947632587824142 7.678630305898629 0 0 0
1934 1 27.571453753653177 10.431526937299987 9.321345958212017 0 0 1
217 1 31.47474350570416 9.657372125582697 6.873240073915224 0 0 0
66 1 30.232121697173287 10.726379773719936 9.046369272027357 0 0 0
224 1 35.56904634386207 11.491659561434323 6.983156821731998 0 0 0
389 1 39.01519123587333 9.68666460341627 6.8388719532549525 0 0 0
141 1 40.672186657390775 9.936127213841512 8.975674489786595 0 0 0
420 1 43.056276850783824 10.19622434086315 7.552176653930678 0 0 0
37 1 45.358895887320585 10.868787260727535 9.010698082662838 0 0 0
1898 1 47.868085335075 10.16093309206965 7.836513564018631 0 0 1
458 1 0.08574680729651973 13.718605663195074 6.620802420115227 0 0 0
2167 1 4.107033826368452 15.221573078810115 8.120982763913169 0 0 0
111 1 8.89930127754653 13.33481521472362 8.048920092100206 0 0 0
3121 1 15.271363801261103 15.005024323384177 7.30023316378241 0 1 0
1597 1 17.29162183103923 14.78230728574784 9.19099359086308 0 0 1
370 1 19.391917366138756 13.603768095888151 8.156104799092997 0 0 0
653 1 26.242833407533702 14.607835779850669 7.077179889228689 0 0 0
114 1 25.343922480523112 15.222073176221826 9.572864861669364 0 0 0
2045 1 28.846316857413765 15.039353771614579 7.366439979630723 0 0 1
303 1 30.249243445018024 13.673864808321285 9.435777533710551 0 0 0
964 1 32.609439544101676 14.70671093522494 8.234070936435124 0 0 0
255 1 34.48975771324281 12.901045054431023 9.240866424931372 0 0 0
282 1 38.27859174720109 12.34010710093752 6.600704506128898 -1 0 0
562 1 39.05571656129058 14.326320227146523 8.37487242508257 0 0 0
505 1 43.23982092739524 15.090068661227832 8.96672653243777 0 0 0
187 1 47.30728601902552 14.259596746361892 8.234062238863428 0 0 0
257 1 49.38887913583044 12.393421451772536 8.354020386951337 -1 0 0
284 1 0.3722193627919639 16.014802579073553 8.099629740021626 0 0 0
2755 1 2.807649915169938 17.514828776363956 8.130557698110001 0 0 0
276 1 6.9773432466103005 15.661730337796392 8.351309751634513 0 0 0
548 1 12.703648475394603 15.556580430513947 8.211058388975454 0 0 0
1641 1 12.76411988788851 18.15030053443363 8.96857058582567 0 0 1
495 1 22.97168096494533 16.43676724227755 6.701037702906337 0 0 0
2117 1 22.672099235897218 15.419121435233972 9.11902939491901 0 0 0
104 1 28.947256037847037 17.83613830401977 8.378984135846894 0 0 0
291 1 33.01252099322417 17.13589776125363 9.125412291761618 0 0 0
60 1 35.3336564971295 18.486546117029615 8.821224585294784 0 0 0
1820 1 36.04021483495171 17.70413021211844 6.449897006147753 0 0 1
688 1 38.61422245337826 16.508116081470288 6.916934454870802 0 0 0
54 1 40.448239400226676 18.542138503722118 7.309598361417888 0 0 0
710 1 45.77982694442423 18.55397116450045 8.660784619643676 0 0 0
2037 1 49.68046848100366 18.126031520429766 7.681240013204119 0 0 1
494 1 47.85634702460052 16.83126798873699 9.302986249209617 -1 0 0
2330 1 1.2377630938976656 21.402817064044957 6.983076411497787 0 0 0
110 1 6.453498264505861 21.424046977931724 8.073893281918716 0 0 0
2429 1 10.522936245484031 19.57818114023416 7.8103482720729485 0 0 0
376 1 8.498479963387881 20.362514591664592 9.270945831981217 0 0 0
2287 1 14.836045396445348 18.81359906192767 7.429288863496222 0 0 0
2290 1 16.990564250374348 19.1301158429873 8.988367276655087 0 0 0
1558 1 19.072880641566048 19.453990876976636 7.54982443926953 0 0 1
611 1 23.20694791376883 19.09207392867337 7.2753246086584475 0 0 0
2427 1 21.285437048434233 19.646873107850578 9.112188829627584 0 0 0
524 1 25.472568943156404 19.78880681598287 8.561147732739883 0 0 0
3687 1 27.43831493199791 19.559771497562597 6.49764179066698 0 0 1
338 1 31.349339100116982 18.68139840803862 7.672437454036503 0 0 0
272 1 31.110822706291614 21.404172099808306 8.429520997628206 0 0 0
2565 1 35.60146543795536 21.27259872516525 9.269227721806518 0 0 0
2438 1 39.1893078239362 20.804116749767097 6.5605775395404375 0 0 0
295 1 46.1639499073205 21.25437977646684 9.535193174290152 0 0 0
278 1 50.28268192495133 20.623047734198888 8.475335848615664 -1 0 0
2293 1 2.834301518693514 22.838318933512205 8.461263438032395 1 0 0
1553 1 4.111851844570704 24.908594909800303 6.818944021277789 1 0 1
3512 1 6.769834097407464 23.83824904248202 6.990718567056423 1 0 1
543 1 12.182233285925196 21.84771996808141 7.190236466207191 0 0 0
587 1 12.701411833117145 23.666939320167682 8.944122635028295 0 0 0
667 1 16.124532014916483 22.421433146289033 7.665380017582224 0 0 0
3300 1 20.439624874087894 23.20831840522212 6.564615481991748 0 0 0
568 1 21.676033943909374 24.123080640240556 8.905331342594772 0 0 0
555 1 24.645586646794087 22.845656571294285 8.405948769666827 0 0 0
643 1 29.215898846725576 23.444620476384813 7.602465082333792 0 0 0
2536 1 27.337653684039452 24.127863847636586 9.411431703682586 0 0 0
2171 1 33.580897197710875 22.867772088832993 7.597050274601006 0 0 0
361 1 37.73145348442749 22.484950892341562 8.083393377836583 0 0 0
2699 1 37.50728404082149 24.930426156630226 6.810506534844151 0 0 0
2141 1 42.84376618494392 22.919257443381014 6.555820108048968 0 0 0
818 1 43.68538457869894 22.647462493528216 9.194401400201157 0 0 0
2316 1 49.86285806168392 24.797764899188234 8.323487405696017 -1 0 0
398 1 48.14340812315846 22.59210809820932 8.12717730540238 -1 0 0
92 1 4.013092397888438 0.4566216650752988 12.28605303722036 0 0 0
2539 1 7.4959400018327145 1.2357284641656576 11.555157397437483 0 1 0
610 1 10.042941948170968 0.1358154076989958 11.889861639990333 0 0 0
2763 1 13.7661738386904 0.20231125643594594 10.075580762281358 0 1 0
889 1 12.222907457896634 1.9710305338901422 11.371791788404714 0 0 0
2288 1 16.313071175330617 0.9574007952181838 9.830685500121039 0 1 0
135 1 16.60159181216808 1.2621201707321157 12.747571647035118 0 0 0
531 1 24.492086271963277 -0.43387926399187426 11.066871311447313 0 0 0
630 1 24.716292674569836 2.3693990415624864 11.13203169978833 0 0 0
230 1 26.96126991122327 2.6018240033956546 12.668429464403161 0 0 0
433 1 31.873598279187085 2.303872983126438 11.405706923299338 0 0 0
1739 1 32.44443863313488 0.1643328225622679 9.88134735552315 0 0 1
2435 1 36.45893389698624 -0.145265703402286 12.865229731196981 0 1 0