
# Create simulation box of size 50 x 50 x 50 Angstrom
#
lattice	            sc 1
Lattice spacing in x,y,z = 1.0000000 1.0000000 1.0000000
region 	            all block 0 50 0 50 0 50 units box
create_box          1 all
Created orthogonal box = (0.0000000 0.0000000 0.0000000) to (50.000000 50.000000 50.000000)
  1 by 2 by 3 MPI processor grid

# fill box with 4175 randomly distributed atoms
#
create_atoms        1 random 4175 63782 all
Created 4175 atoms
  create_atoms CPU = 0.001 seconds
mass                1 18.015

# Define potential
#
pair_style          sw
pair_coeff          * * ML_mW.sw mW
Reading sw potential file ML_mW.sw with DATE: 2019-02-27

# Run minimization
#
minimize            1.0e-8 1.0e-8 10000 1000
WARNING: Using 'neigh_modify every 1 delay 0 check yes' setting during minimization (../min.cpp:187)
Neighbor list info ...
  update every 1 steps, delay 0 steps, check yes
  max neighbors/atom: 2000, page size: 100000
  master list distance cutoff = 6.0032907
  ghost atom cutoff = 6.0032907
  binsize = 3.0016454, bins = 17 17 17
  1 neighbor lists, perpetual/occasional/extra = 1 0 0
  (1) pair sw, perpetual
      attributes: full, newton on
      pair build: full/bin/atomonly
      stencil: full/bin/3d
      bin: standard
Per MPI rank memory allocation (min/avg/max) = 4.255 | 4.258 | 4.261 Mbytes
Step Temp E_pair E_mol TotEng Press 
       0            0    7792709.3            0    7792709.3    5898794.3 
     630            0   -45180.336            0   -45180.336   -154.07449 
Loop time of 1.13501 on 6 procs for 630 steps with 4175 atoms

99.0% CPU use with 6 MPI tasks x no OpenMP threads

Minimization stats:
  Stopping criterion = max force evaluations
  Energy initial, next-to-last, final = 
      7792709.32924461  -45180.0188663597   -45180.336116598
  Force two-norm initial, final = 2.0191930e+08 4.9721331
  Force max component initial, final = 1.0948746e+08 0.73126211
  Final line search alpha, max atom move = 0.053306038 0.038980685
  Iterations, force evaluations = 630 1000

MPI task timing breakdown:
Section |  min time  |  avg time  |  max time  |%varavg| %total
---------------------------------------------------------------
Pair    | 0.87618    | 0.97527    | 1.0487     |   5.5 | 85.93
Neigh   | 0.023786   | 0.024351   | 0.024713   |   0.2 |  2.15
Comm    | 0.042298   | 0.11577    | 0.21578    |  16.2 | 10.20
Output  | 0          | 0          | 0          |   0.0 |  0.00
Modify  | 0          | 0          | 0          |   0.0 |  0.00
Other   |            | 0.01963    |            |       |  1.73

Nlocal:        695.833 ave         704 max         685 min
Histogram: 1 1 0 0 1 0 0 1 0 2
Nghost:        1494.17 ave        1515 max        1468 min
Histogram: 1 1 0 0 0 0 1 1 1 1
Neighs:        0.00000 ave           0 max           0 min
Histogram: 6 0 0 0 0 0 0 0 0 0
FullNghs:      19997.0 ave       20462 max       19320 min
Histogram: 1 1 0 0 0 0 0 2 0 2

Total # of neighbors = 119982
Ave neighs/atom = 28.738204
Neighbor list builds = 26
Dangerous builds = 0

# Add velocity/set timestep
#
velocity            all create ${TEMP} 120598 rot yes dist gaussian
velocity            all create 205 120598 rot yes dist gaussian
timestep            5.0

# Define output
#
compute	            1 all msd
thermo	            100
thermo_style        custom step temp press vol etotal ke pe c_1[4] density

# Neighbor lists
#
neigh_modify        delay 0 every 1 check yes

# Set fixes
#
fix                 1 all momentum 10 linear 1 1 1 rescale
fix                 2 all nve
fix                 3 all temp/csvr ${TEMP} ${TEMP} 500.0 928347
fix                 3 all temp/csvr 205 ${TEMP} 500.0 928347
fix                 3 all temp/csvr 205 205 500.0 928347
fix                 4 all press/berendsen iso ${PRES} ${PRES} 1000.0 modulus 20000
fix                 4 all press/berendsen iso 400 ${PRES} 1000.0 modulus 20000
fix                 4 all press/berendsen iso 400 400 1000.0 modulus 20000

# Run 0.5 ns equilibration
#
dump                1 all custom 1000 eq.${NAME}.dump id type x y z vx vy vz
dump                1 all custom 1000 eq.liquid_density_MLmW.dump id type x y z vx vy vz
run                 100000
Per MPI rank memory allocation (min/avg/max) = 3.506 | 3.508 | 3.511 Mbytes
Step Temp Press Volume TotEng KinEng PotEng c_1[4] Density 
     630          205    778.67162       125000   -42629.746    2550.5897   -45180.336 2.7295415e-33   0.99914793 
     700    131.31736       311.54    125100.19   -41848.873    1633.8376   -43482.711   0.23514072    0.9983477 
     800    164.14768    208.44969    124967.75   -41148.664    2042.3093   -43190.973   0.55478233   0.99940581 
     900    182.23683    514.78098    124761.19   -40764.266    2267.3727   -43031.639   0.93461833    1.0010604 
    1000    190.91833    329.55518    124783.75   -40515.457    2375.3869   -42890.844    1.2917689    1.0008794 
    1100    198.08634    146.95493    124678.03   -40356.714    2464.5706   -42821.285     1.670006    1.0017281 
    1200    198.22594    391.22531    124758.36   -40395.034    2466.3075   -42861.341     1.931161    1.0010831 
    1300    202.66601    216.78573    124727.01   -40391.428    2521.5505   -42912.978    2.2646571    1.0013348 
    1400     201.5707    495.06221    124719.44     -40423.7    2507.9227   -42931.623    2.6192754    1.0013955 
    1500    202.72325    355.92616    124524.87   -40398.278    2522.2627   -42920.541    2.8869313    1.0029602 
    1600    205.84489    475.61583       124595    -40332.66    2561.1018   -42893.762    3.2075824    1.0023957 
    1700    202.24443    212.79218     124652.8   -40371.088    2516.3052   -42887.393    3.5534077    1.0019309 
    1800     206.4379     343.9643    124564.36   -40462.925    2568.4799   -43031.405    3.8072687    1.0026423 
    1900    200.91412    407.08486    124688.62   -40464.213    2499.7536   -42963.966    4.2081489    1.0016431 
    2000    206.85646    488.09716    124988.39    -40444.45    2573.6876   -43018.138    4.5068443   0.99924071 
    2100    203.62554    474.14674    125211.93   -40394.618    2533.4888   -42928.107    4.7760602   0.99745676 
    2200     206.0284    439.84582    125155.96    -40431.09     2563.385   -42994.475    5.0071869   0.99790285 
    2300    203.50475    337.46536    125201.52    -40428.52     2531.986   -42960.506    5.3104294   0.99753977 
    2400    205.17206    434.00164    125421.49   -40452.012    2552.7305   -43004.742    5.5898129   0.99579021 
    2500    211.94188    434.20366    125396.17   -40418.983    2636.9599   -43055.943    5.8070694   0.99599125 
    2600    212.71337    493.95347    125597.02   -40370.928    2646.5587   -43017.487    6.0287846   0.99439852 
    2700    209.22883    502.33006     125564.2   -40405.006    2603.2044    -43008.21    6.3478766   0.99465844 
    2800     208.6372    562.61456    125606.54   -40396.526    2595.8434    -42992.37    6.6852924   0.99432317 
    2900    207.65193    249.24933    125531.47   -40482.457    2583.5848   -43066.042    6.8537644    0.9949178 
    3000     202.7616    428.43955    125439.44   -40522.557    2522.7398   -43045.296     7.203865   0.99564773 
    3100    205.85822    408.45041    125618.63   -40498.125    2561.2676   -43059.393    7.5778448   0.99422748 
    3200    203.97782    507.68228    126117.42   -40558.995    2537.8719   -43096.867    7.7655741   0.99029532 
    3300    205.95606    369.25004    126059.09   -40555.201     2562.485   -43117.686    8.0735372   0.99075356 
    3400    203.14917    378.26205    126044.76   -40590.691    2527.5619   -43118.253    8.3016914   0.99086619 
    3500    204.30759    427.31243    125967.39   -40619.527    2541.9748   -43161.502    8.3593068   0.99147481 
    3600    203.84705    463.46687    125870.65   -40660.453    2536.2449   -43196.697    8.4991947   0.99223683 
    3700    201.81783    263.07663    125941.36   -40716.215    2510.9975   -43227.212    8.7475224   0.99167971 
    3800    205.24249    388.31885    125946.79   -40681.614    2553.6068   -43235.221     9.099958   0.99163695 
    3900    204.08533    349.18494    125978.56   -40713.341    2539.2095   -43252.551    9.3086327   0.99138686 
    4000    201.21019      386.544    125937.68   -40720.275    2503.4373   -43223.713    9.4428389   0.99170868 
    4100    204.34493    484.40758    126174.28   -40712.298    2542.4394   -43254.737    9.6634964   0.98984907 
    4200    203.58158    559.58049    126157.73   -40714.613    2532.9418   -43247.555    9.8380234   0.98997888 
    4300    205.91055    362.76004    126134.43   -40708.014    2561.9187   -43269.932    9.9142212   0.99016179 
    4400    207.83622    440.71383    126183.56   -40711.269    2585.8778   -43297.147    10.126246   0.98977625 
    4500    204.35701    521.75168       126107   -40727.763    2542.5898   -43270.353    10.357768   0.99037713 
    4600    204.93073    502.45827    126117.59   -40784.973    2549.7279   -43334.701    10.512652   0.99029396 
    4700    210.56231    274.77968    126100.72   -40723.712    2619.7955   -43343.507    10.625492    0.9904265 
    4800    205.66132    568.58889    125982.81   -40783.285    2558.8178   -43342.103    10.711861    0.9913534 
    4900    206.72571    638.45293    126372.64   -40661.769    2572.0608    -43233.83    10.945865   0.98829538 
    5000    209.47129    251.93521    126455.33   -40629.482    2606.2211   -43235.703    11.179161   0.98764909 
    5100    208.41404    498.84794    126367.47   -40692.933    2593.0669       -43286    11.463927   0.98833575 
    5200    205.95555    419.69664    126308.22   -40745.687    2562.4786   -43308.166    11.577224   0.98879937 
    5300    205.80181    552.88693    126382.87   -40728.002    2560.5658   -43288.568    11.712333   0.98821533 
    5400    202.73373    461.59734     126393.5   -40782.965     2522.393   -43305.358    11.890793   0.98813225 
    5500     204.0973    293.24108    126627.89   -40793.464    2539.3584   -43332.822    12.188986   0.98630317 
    5600    206.37299    458.47891    126841.23   -40800.115    2567.6723   -43367.788    12.281127   0.98464424 
    5700    207.50531    357.81649    126665.09   -40808.787    2581.7606   -43390.548    12.268939   0.98601354 
    5800     201.4516    346.21156    126693.21    -40838.55    2506.4408   -43344.991    12.317148   0.98579466 
    5900    204.54179    517.30235     126837.4   -40884.217    2544.8887   -43429.106    12.410309     0.984674 
    6000    203.76255    386.03956    127028.64   -40880.598    2535.1935   -43415.792     12.66492   0.98319157 
    6100    205.84165    409.29277    127158.32   -40834.752    2561.0615   -43395.813    12.876139   0.98218894 
    6200    204.37727    392.69297    126844.31   -40898.222    2542.8418   -43441.064     12.95849   0.98462039 
    6300    208.01818    416.97033    126848.05   -40863.067    2588.1417   -43451.209    13.144502   0.98459137 
    6400    204.74619    508.13871    126656.16   -40850.923    2547.4319   -43398.355    13.111213   0.98608301 
    6500    212.18636    312.06908    126573.88   -40800.812    2640.0017   -43440.814    13.185588   0.98672403 
    6600    205.36896    323.18558    126768.58   -40874.643    2555.1803   -43429.823    13.293839   0.98520854 
    6700     201.7975    386.68196    126892.34   -40939.829    2510.7446   -43450.574    13.549877   0.98424768 
    6800    203.66348    372.72784    126927.17   -40876.631    2533.9609   -43410.592    13.678096   0.98397759 
    6900    209.90815    478.01178    126931.08   -40823.677    2611.6564   -43435.334    13.668258    0.9839473 
    7000    204.14121    497.24209    127113.04   -40818.035    2539.9048    -43357.94    13.990531   0.98253874 
    7100    205.38837    364.82297    127141.22   -40834.604    2555.4218   -43390.026    14.049279   0.98232099 
    7200    202.90578    398.51689    127064.68   -40886.709    2524.5336   -43411.243    14.302894   0.98291271 
    7300    205.70376    499.17729    127002.83    -40954.99    2559.3459   -43514.336     14.45748   0.98339137 
    7400    201.72256    379.65133    126982.74   -40983.469    2509.8122   -43493.281    14.606995   0.98354697 
    7500    205.84936    326.96682    127063.89    -40948.25    2561.1574   -43509.407    14.731786   0.98291884 
    7600    199.80316    470.43852    127014.87   -41019.156    2485.9312   -43505.087    14.991385   0.98329822 
    7700    204.72672    593.72162    127078.94   -40925.739    2547.1896   -43472.929     15.02969    0.9828024 
    7800    203.44173    402.72994    127069.26   -40903.637    2531.2019   -43434.839    15.009445   0.98287732 
    7900    201.62956    371.59327    126997.86   -40969.409     2508.655   -43478.064    15.054182   0.98342991 
    8000     202.8654    452.10736    127076.85   -40947.911    2524.0313   -43471.942    15.229751   0.98281863 
    8100    205.13812    315.65093    127192.28   -41023.401    2552.3082    -43575.71    15.494521   0.98192668 
    8200    198.96964    369.93258    127338.61    -41058.71    2475.5605    -43534.27    15.666202   0.98079829 
    8300     201.7846     437.0099    127385.46   -41056.526     2510.584    -43567.11    15.757133    0.9804376 
    8400    206.94048    388.91316    127397.01   -41021.906     2574.733   -43596.639    15.757517   0.98034871 
    8500    207.84153    420.06841     127442.8     -40950.4    2585.9437   -43536.344    15.986985   0.97999647 
    8600    203.03473    405.63242    127487.37   -40965.256    2526.1381   -43491.394    16.230588   0.97965383 
    8700    206.46995    415.10893    127561.61    -40963.25    2568.8788   -43532.128    16.402345   0.97908369 
    8800    205.88287    388.24604    127664.38   -41011.329    2561.5744   -43572.904    16.396105    0.9782955 
    8900    204.13954    402.80521    127682.35   -41081.879    2539.8839   -43621.763    16.434133   0.97815781 
    9000    201.37744    407.09751    127475.51    -41044.83    2505.5182   -43550.348    16.457265   0.97974497 
    9100    198.66568    351.57207    127495.99   -41111.904    2471.7787   -43583.683    16.540934   0.97958762 
    9200    204.58753    361.69409    127477.63   -41022.575    2545.4578   -43568.032    16.737783   0.97972866 
    9300    202.86851    255.93753    127429.38   -41063.265      2524.07   -43587.335    16.686862   0.98009967 
    9400     206.0299    539.75726    127491.77    -41033.87    2563.4037   -43597.274    16.852168   0.97962006 
    9500     205.2967    358.02788    127728.55   -41044.151    2554.2812   -43598.432    17.161164   0.97780402 
    9600    203.41528    492.79274    127635.58   -41017.936    2530.8729   -43548.809    17.274316   0.97851623 
    9700    207.04185    465.33763    127740.99   -40959.767    2575.9942   -43535.762    17.248329   0.97770879 
    9800    202.85917    403.37133    127773.18   -41029.846    2523.9537     -43553.8    17.237086   0.97746249 
    9900     203.3337    293.98726    127915.83   -41100.819    2529.8578   -43630.677    17.298953   0.97637244 
   10000    200.34055    362.24086    127920.71   -41105.661    2492.6173   -43598.278    17.593015   0.97633516 
   10100    207.15017    464.07772    127887.02   -41087.221    2577.3419   -43664.563    17.619927   0.97659243 
   10200    200.70452    215.93579     127813.3   -41136.364    2497.1458    -43633.51    17.749847   0.97715567 
   10300    204.26707    564.30406     127909.8   -41121.316    2541.4707   -43662.787    18.000032   0.97641847 
   10400    204.40592    241.60651    127956.35   -41071.304    2543.1983   -43614.503    18.011274   0.97606323 
   10500    205.79354    301.92151    128209.64   -41064.241    2560.4629   -43624.704     18.19381   0.97413494 
   10600    209.24089    226.49821    128063.56   -41023.829    2603.3545   -43627.183    18.335666   0.97524611 
   10700    206.65316    362.32529    128159.34   -41023.916    2571.1581   -43595.074    18.502133   0.97451731 
   10800    208.36817    216.01462    128109.25    -41021.33    2592.4962   -43613.827    18.741603   0.97489829 
   10900    204.88352    331.28264    128048.09   -41046.401    2549.1404   -43595.541    18.759983   0.97536392 
   11000    211.02591    355.69164    128198.69   -41040.906    2625.5636    -43666.47    19.024006   0.97421816 
   11100    205.97956    286.76487    128056.57   -41080.198    2562.7773   -43642.975    19.023856   0.97529935 
   11200    205.01554    412.37739    128100.91   -41077.169    2550.7831   -43627.952    19.050906   0.97496176 
   11300    204.57322    413.93124    128195.13   -41067.584    2545.2797   -43612.864    19.242306    0.9742452 
   11400     206.8559      281.905    128226.68   -41069.601    2573.6806   -43643.281    19.216551   0.97400552 
   11500     203.8209    448.50207    128168.36   -41096.108    2535.9195   -43632.028    19.232606   0.97444869 
   11600    202.18794    312.75767    127980.56   -41097.463    2515.6024   -43613.066    19.511643   0.97587864 
   11700    209.64251    452.06272    128084.68   -40995.321    2608.3514   -43603.673    19.563518   0.97508529 
   11800    204.76505    397.75691    128108.22   -41058.347    2547.6666   -43606.013    19.692484   0.97490615 
   11900    205.70595    316.62857    128036.75   -41081.267     2559.373    -43640.64    19.871385   0.97545034 
   12000    202.79957    349.32843    128024.65   -41090.781    2523.2122   -43613.993    19.883724   0.97554254 
   12100    205.77712    353.35907    128049.14   -41059.184    2560.2586   -43619.443    19.984755   0.97535599 
   12200    204.01198    473.13084    128080.38   -41055.535     2538.297   -43593.832     20.30867   0.97511807 
   12300     206.3268    370.86868    128115.81   -41073.475    2567.0977   -43640.573    20.365388   0.97484836 
   12400    201.25103     321.1689    128139.38    -41045.45    2503.9454   -43549.395    20.505852   0.97466909 
   12500     202.8417    420.16455    128177.13   -41133.356    2523.7364   -43657.093    20.414498   0.97438201 
   12600    203.68453     294.2229    128188.51   -41063.312    2534.2228   -43597.535    20.753189   0.97429551 
   12700    205.68685     496.7455    128324.27   -41037.308    2559.1354   -43596.444     20.74029   0.97326473 
   12800    205.99861    472.00773    128307.63   -41011.516    2563.0143   -43574.531    20.845781     0.973391 
   12900    202.79181    438.59993    128197.22   -41076.684    2523.1156   -43599.799    20.885198   0.97422936 
   13000    207.22556    451.43541    128454.56   -41033.854    2578.2799   -43612.134    20.850139   0.97227756 
   13100    213.66962    447.23943    128585.17   -41051.383    2658.4563   -43709.839     20.90684   0.97129005 
   13200    209.69549    341.62656    128513.81   -40987.283    2609.0105   -43596.294    20.908565   0.97182935 
   13300    206.63209    564.50446    128632.61   -41029.251     2570.896   -43600.147    21.098731   0.97093177 
   13400    209.80656    362.10385    128630.24   -41106.964    2610.3925   -43717.357    21.216587   0.97094971 
   13500    208.42623    294.28996    128432.41   -41153.895    2593.2185   -43747.114    21.357927   0.97244528 
   13600    205.86945    354.90323    128526.51   -41172.502    2561.4073   -43733.909     21.40319   0.97173331 
   13700    207.32574    296.37262    128395.77   -41173.688    2579.5264   -43753.214    21.711425    0.9727228 
   13800    209.29051    441.74833    128537.62   -41094.962    2603.9718   -43698.934    21.834692   0.97164929 
   13900    208.98677    558.38864    128626.31   -41137.479    2600.1928   -43737.671    21.970118   0.97097937 
   14000    207.50533    458.71299    128649.66   -41130.151    2581.7608   -43711.912    22.140657   0.97080314 
   14100    203.44667    335.53329    128561.19   -41118.008    2531.2634   -43649.272    22.294667   0.97147121 
   14200    206.05032    424.80389    128807.99   -41154.258    2563.6577   -43717.916    22.416209   0.96960983 
   14300    202.23396    447.17258    128774.55   -41200.434    2516.1749   -43716.609    22.542714   0.96986156 
   14400    206.03244    387.03861    128751.31   -41180.734    2563.4352    -43744.17    22.576651   0.97003668 
   14500    204.51098    364.43668    128901.43   -41131.042    2544.5054   -43675.547    22.655421   0.96890696 
   14600    207.55879    343.43177    129000.39   -41131.364    2582.4259    -43713.79    22.723997   0.96816368 
   14700    202.59853    413.86186    128965.05   -41178.826    2520.7109   -43699.537    22.904865   0.96842899 
   14800    205.80964    379.32919    129130.89   -41221.664    2560.6632   -43782.327    22.841816   0.96718521 
   14900    201.25804    452.95161    129135.63   -41286.674    2504.0326   -43790.707    22.907045   0.96714972 
   15000    202.16969    364.77179    129022.21   -41306.652    2515.3752   -43822.027     23.04604   0.96799994 
   15100    199.24393    292.75639    129120.44   -41337.313    2478.9733   -43816.286    23.248823    0.9672635 
   15200    201.51863    321.68178    129210.19   -41274.158    2507.2749   -43781.432    23.342953   0.96659169 
   15300    202.32952    424.83527    129341.49    -41295.05    2517.3639   -43812.414     23.18985   0.96561043 
   15400    202.54495    314.42311    129347.35    -41275.46    2520.0443   -43795.504    23.252318    0.9655667 
   15500    202.31021    356.41779     129616.9   -41261.548    2517.1236   -43778.671    23.369259   0.96355867 
   15600     204.4076    359.59823    129618.05   -41202.622    2543.2192   -43745.841     23.61972   0.96355012 
   15700    198.51051    422.15257    129476.08    -41282.81    2469.8481   -43752.658    23.604122   0.96460666 
   15800    199.32117    414.47266    129466.11   -41280.991    2479.9342   -43760.925    23.625626   0.96468097 
   15900    201.92507    313.86471    129652.78    -41319.39    2512.3318   -43831.722    23.646321   0.96329203 
   16000      205.242     332.0132    129858.21   -41269.559    2553.6007    -43823.16    23.814585   0.96176816 
   16100     205.8581    388.21469    129864.91   -41224.989    2561.2661   -43786.255    23.673769   0.96171851 
   16200    203.58768    402.28256    129757.86   -41290.052    2533.0178    -43823.07    23.781919   0.96251198 
   16300    204.05624    495.52259     129763.4   -41315.724    2538.8475   -43854.571    23.831645   0.96247088 
   16400    208.39876    416.33791    129741.99   -41242.483    2592.8767   -43835.359    23.916801   0.96262966 
   16500    206.76631    359.79007     129632.9   -41233.581     2572.566   -43806.147    23.958266   0.96343981 
   16600    205.12469    349.37918     129732.1   -41213.823    2552.1411   -43765.964    24.042329   0.96270308 
   16700    202.31235     391.2832    129757.75   -41255.673    2517.1503   -43772.824    24.277978   0.96251277 
   16800    208.64362    476.84493    129749.05   -41251.925    2595.9232   -43847.849    24.441248    0.9625773 
   16900    205.45829    294.30755    129753.46   -41225.127    2556.2917   -43781.419    24.454809   0.96254459 
   17000    204.09184    453.51119    129679.74   -41245.995    2539.2905   -43785.286    24.531707   0.96309175 
   17100    208.34978     479.4544    129784.64   -41167.625    2592.2674   -43759.893    24.502795   0.96231331 
   17200    206.90765    431.53474    129851.46   -41187.203    2574.3245   -43761.527    24.695915   0.96181817 
   17300    206.68785    385.89249    129966.77   -41251.616    2571.5897   -43823.206    24.833431   0.96096482 
   17400    210.24477    523.61737    129983.22   -41279.732    2615.8446   -43895.576    25.031559   0.96084317 
   17500    208.14602    370.83318    129941.93   -41281.172    2589.7322   -43870.904    24.807591    0.9611485 
   17600    206.79262    289.02683    129853.92   -41269.402    2572.8933   -43842.295    24.933422   0.96179994 
   17700    207.09932     429.3618    129862.72   -41302.545    2576.7093   -43879.254    25.073465   0.96173475 
   17800     202.8965    306.35613    129726.91   -41298.567    2524.4182   -43822.986    25.263526    0.9627416 
   17900    207.21092    454.12274    129836.45   -41266.575    2578.0978   -43844.672    25.279969   0.96192934 
   18000    206.85228    234.93372    129788.12   -41227.743    2573.6356   -43801.379    25.320832   0.96228754 
   18100     203.8348    351.88892    129822.66   -41329.305    2536.0925   -43865.397    25.355483   0.96203153 
   18200    207.77121    494.21226     129600.2   -41323.956    2585.0688   -43909.025    25.374673   0.96368289 
   18300    208.18871    361.73712    129751.23   -41242.194    2590.2634   -43832.458    25.305003   0.96256113 
   18400    204.29926    329.99355    129539.62   -41296.631    2541.8713   -43838.503    25.507804   0.96413351 
   18500    208.60896    495.89702    129771.89   -41276.011    2595.4921   -43871.504    25.699551   0.96240787 
   18600    205.74104    353.10403     129725.4   -41315.559    2559.8096   -43875.368    25.819494   0.96275281 
   18700    205.64352    427.99707    129635.92    -41279.27    2558.5963   -43837.866    25.684039   0.96341736 
   18800     210.7163    383.01723    129712.64   -41237.339    2621.7114   -43859.051    25.757016   0.96284751 
   18900    202.97685    407.48324    129790.88   -41272.713    2525.4179   -43798.131    25.789946   0.96226706 
   19000    205.48422    462.14708    129876.24   -41259.205    2556.6143   -43815.819    25.861027   0.96163461 
   19100    199.94602    520.59812    129788.08   -41304.817    2487.7086   -43792.526    25.854262   0.96228781 
   19200    203.61403     295.2671    129728.48   -41274.425    2533.3456   -43807.771    26.007721   0.96272993 
   19300    210.45108    383.89049    129753.81   -41211.735    2618.4116   -43830.147    26.029175   0.96254203 
   19400    203.55998     270.0064    129685.01   -41219.864    2532.6732   -43752.538    26.056547   0.96305266 
   19500    208.80482    394.31588    129860.76    -41212.55    2597.9289   -43810.479    26.279947    0.9617493 
   19600    202.98207    239.03849    129608.46   -41254.372    2525.4828   -43779.855    26.387525   0.96362141 
   19700    208.64827    471.84835    129700.14   -41239.889    2595.9811    -43835.87    26.550208   0.96294032 
   19800    203.32069    316.67016    129805.72   -41285.901    2529.6959   -43815.597    26.608843   0.96215704 
   19900     208.4593    380.24961    129869.93   -41300.834      2593.63   -43894.464     26.51026   0.96168139 
   20000    205.33996    411.70415    129742.44   -41356.861    2554.8195    -43911.68    26.498941   0.96262631 
   20100    205.77912    422.03919    129636.91   -41306.952    2560.2835   -43867.235    26.512461   0.96340999 
   20200    203.72477    351.39717    129616.95   -41337.192    2534.7235   -43871.916    26.653639   0.96355835 
   20300    205.15173    370.99339    129642.74   -41359.739    2552.4775   -43912.217    26.753299   0.96336663 
   20400    201.98685    412.76379    129683.03   -41354.999    2513.1005     -43868.1    26.793064   0.96306733 
   20500    202.18576    315.48329    129552.44   -41331.998    2515.5753   -43847.573    26.871089   0.96403814 
   20600    201.47247    462.00208    129762.78   -41361.432    2506.7006   -43868.133     27.07796   0.96247543 
   20700    209.81458    389.73464    129722.55   -41312.918    2610.4923    -43923.41    26.993354   0.96277396 
   20800    204.50079    378.47047    129714.87   -41311.569    2544.3786   -43855.947    27.058096   0.96283092 
   20900    202.14228    485.55831    129620.42   -41343.621    2515.0342   -43858.655    26.999231   0.96353255 
   21000    199.82245    363.15767    129553.77   -41405.639    2486.1712    -43891.81    27.133146   0.96402819 
   21100    201.28834    343.48224    129691.42   -41416.495    2504.4097   -43920.905    27.318758   0.96300501 
   21200    201.72243    484.69925    129801.21   -41387.227    2509.8105   -43897.038     27.42604   0.96219053 
   21300    199.96413    407.42923    129881.19   -41411.381    2487.9339   -43899.315    27.510179   0.96159799 
   21400    203.69894     266.7948    129812.71   -41388.392    2534.4021   -43922.794    27.490976   0.96210525 
   21500    206.63194    468.35327    129771.64   -41374.333    2570.8942   -43945.227    27.775691   0.96240972 
   21600     206.7036    371.36196    129779.98   -41324.601    2571.7857   -43896.387    27.683381    0.9623479 
   21700    207.67242    333.35817    129832.51   -41311.183    2583.8397   -43895.022    27.906806   0.96195855 
   21800    208.20284      507.328    129937.25   -41295.988    2590.4392   -43886.428      27.9371   0.96118311 
   21900    208.84533    526.52885     129825.2   -41320.071    2598.4329   -43918.504    27.855454   0.96201269 
   22000    204.81692    425.98953    129812.21   -41358.849    2548.3119    -43907.16    27.787587   0.96210893 
   22100    205.44997    452.19232    129733.74   -41297.388    2556.1882   -43853.576    27.801609    0.9626909 
   22200    205.16885    441.87814    129806.89    -41335.82    2552.6905    -43888.51    27.877827   0.96214841 
   22300    212.03741    449.02196    129825.77   -41324.336    2638.1485   -43962.485    27.992432   0.96200848 
   22400    204.95658    377.49074    129957.45   -41308.218    2550.0495   -43858.267    28.145288    0.9610337 
   22500    211.75004    469.00906    129935.69   -41319.538    2634.5731   -43954.111    28.212674   0.96119464 
   22600    208.03341    326.19506    129855.79   -41290.874    2588.3311   -43879.205    28.334835   0.96178608 
   22700    208.31418    276.48232    130067.09   -41304.457    2591.8244   -43896.281    28.523957   0.96022363 
   22800    204.98014     478.9294    129870.82   -41286.572    2550.3426   -43836.914    28.481705   0.96167479 
   22900    205.69459     416.6158     129980.7   -41320.929    2559.2318   -43880.161    28.716791   0.96086181 
   23000    208.62875    417.17971    130009.71   -41305.544    2595.7383   -43901.282    28.571725   0.96064743 
   23100    199.93679    443.83522    130024.55     -41403.3    2487.5938   -43890.894    28.688281   0.96053774 
   23200    204.19924    421.14119     130029.9   -41345.936    2540.6268   -43886.563    28.561795   0.96049828 
   23300    204.46082    440.20067    130127.48    -41400.73    2543.8813   -43944.611    28.774328   0.95977796 
   23400     208.8185     416.5382    130122.55   -41339.604    2598.0991   -43937.703    28.845731   0.95981438 
   23500    205.51979    400.52957    130082.21   -41369.999     2557.057   -43927.056    28.867312     0.960112 
   23600    203.61334    411.15254    129978.17   -41339.846     2533.337   -43873.183    28.806702   0.96088055 
   23700    205.57965    475.02502     130098.9   -41374.711    2557.8017   -43932.513    28.806493   0.95998881 
   23800    203.73303    404.04258    130051.61   -41431.261    2534.8263   -43966.087    28.983894   0.96033792 
   23900    206.41178    308.08781    129995.64   -41450.461     2568.155   -44018.616    29.060492   0.96075136 
   24000     201.6417    460.50177    130048.14   -41383.269    2508.8061   -43892.075    29.263718   0.96036354 
   24100    205.15631    453.63797    129942.51    -41378.38    2552.5346   -43930.914    29.250267   0.96114419 
   24200    202.69609    420.01368    129942.69    -41432.27    2521.9247   -43954.195    29.320992   0.96114289 
   24300    201.45163    388.40692    130035.36   -41409.316    2506.4412   -43915.758    29.305571   0.96045793 
   24400    199.96897    314.34535    130052.47   -41456.798    2487.9942   -43944.792    29.358372   0.96033154 
   24500    201.13627     470.7453    130065.45   -41406.021    2502.5175   -43908.538    29.443897   0.96023573 
   24600     207.3606    392.37683    130079.91   -41408.626      2579.96   -43988.586    29.288174   0.96012898 
   24700    204.08932    328.74577    130056.62   -41430.159    2539.2591   -43969.418    29.436438   0.96030093 
   24800     203.7637    294.71756    130169.86   -41434.217    2535.2078   -43969.425    29.511401   0.95946549 
   24900    209.30709    367.15245     130258.8   -41405.275    2604.1781   -44009.453    29.410001   0.95881037 
   25000    207.98655    533.17359    130460.96   -41398.288     2587.748   -43986.036    29.628598   0.95732465 
   25100    205.33919     409.4619    130440.82   -41406.724    2554.8099   -43961.534    29.649382   0.95747243 
   25200    203.28104    328.24537     130513.3   -41449.859    2529.2025   -43979.062     29.59029    0.9569407 
   25300    205.59861    499.53685    130518.19   -41458.941    2558.0375   -44016.978     29.60917    0.9569049 
   25400    202.80524    338.40264    130371.98   -41450.409    2523.2827   -43973.692    29.766731   0.95797805 
   25500    204.11578    343.89121    130370.84   -41412.462    2539.5884    -43952.05    29.895792   0.95798642 
   25600    203.70601    432.57486    130295.46   -41487.159    2534.4901   -44021.649    29.951463   0.95854064 
   25700    201.68922    394.18002    130211.82   -41494.819    2509.3973   -44004.216    30.005133   0.95915634 
   25800    202.47793    457.47206    130264.36   -41470.529    2519.2104   -43989.739    30.063585    0.9587695 
   25900    205.64899    339.70987    130200.27   -41422.009    2558.6644   -43980.673    29.966339   0.95924141 
   26000    205.09499     418.2012    130096.97   -41360.458    2551.7716   -43912.229    30.051809   0.96000305 
   26100    202.95052    289.30637    130234.34   -41425.452    2525.0903   -43950.542    30.310781   0.95899045 
   26200    206.20644    383.13785    130315.29   -41406.359    2565.6002   -43971.959    30.462557   0.95839479 
   26300    202.48694    347.20211    130224.06   -41387.979    2519.3225   -43907.301    30.333715   0.95906619 
   26400    207.24969    344.27752    130191.36   -41383.511    2578.5802   -43962.091    30.362272   0.95930706 
   26500    203.34875    469.09942    130428.95   -41418.951     2530.045   -43948.996    30.452929   0.95755957 
   26600    203.24104    343.13589    130565.77   -41461.447    2528.7049   -43990.152     30.69555   0.95655614 
   26700    204.99571    439.35776    130462.41   -41499.606    2550.5364   -44050.142     30.69521   0.95731398 
   26800    208.84484    489.06255    130610.45   -41443.266    2598.4268   -44041.693    30.751771   0.95622893 
   26900    203.89966    309.55062    130702.98   -41457.375    2536.8995   -43994.275    30.787671   0.95555201 
   27000     202.9472    457.14148    130715.37   -41493.477     2525.049   -44018.526    30.716314   0.95546138 
   27100    205.32207    229.16327    130588.27   -41504.548    2554.5969   -44059.145    30.802368   0.95639138 
   27200    206.13385    363.15631    130494.61   -41523.732     2564.697   -44088.429    30.953694   0.95707775 
   27300    200.60576    363.07709    130471.16   -41529.034     2495.917   -44024.951    30.827214   0.95724976 
   27400    206.83304     425.4248    130416.02   -41480.813    2573.3962   -44054.209    30.771875   0.95765452 
   27500    206.99227    423.56626     130594.1   -41420.014    2575.3774   -43995.391    30.958253   0.95634864 
   27600    200.93326    71.437398    130374.79   -41452.141    2499.9917   -43952.133    30.929122   0.95795736 
   27700    204.50271    529.19652    130145.98   -41453.893    2544.4025   -43998.296    31.083236   0.95964159 
   27800    205.52642     373.8469    130211.84   -41394.916    2557.1395   -43952.055    31.066786   0.95915622 
   27900    209.85371    560.24047    130268.19   -41411.456    2610.9791   -44022.435    31.177763    0.9587413 
   28000    201.92298    325.07411    130281.71   -41453.007    2512.3057   -43965.313    31.437185    0.9586418 
   28100     202.8286    431.85678    130151.11   -41426.476    2523.5734   -43950.049    31.327606   0.95960374 
   28200    203.40326    379.66847     130159.2   -41464.373    2530.7232   -43995.096    31.339198   0.95954407 
   28300    205.48582    450.98333    130054.19   -41453.529    2556.6342   -44010.164    31.312553   0.96031883 
   28400    203.88698    501.80468    130087.47   -41494.689    2536.7416    -44031.43     31.43257    0.9600732 
   28500    202.21963    432.07467    129986.26   -41515.131    2515.9966   -44031.128    31.358068   0.96082074 
   28600    204.35915    662.48133    130129.25   -41471.572    2542.6164   -44014.189    31.310093   0.95976493 
   28700    205.14431    433.32104    130221.99   -41482.368    2552.3852   -44034.753    31.448628    0.9590814 
   28800    206.06623    274.54155    130126.32   -41450.296    2563.8556   -44014.151    31.557972   0.95978652 
   28900    203.46949    370.18571    130166.54   -41414.145    2531.5472   -43945.693     31.66495   0.95948999 
   29000    205.50296    297.67208    130208.04   -41482.058    2556.8475   -44038.905    31.773868   0.95918417 
   29100    204.16769    281.18176       130268   -41425.255    2540.2342   -43965.489    31.864304   0.95874268 
   29200    206.57211    384.40672    130307.53   -41391.922    2570.1497   -43962.072     31.83936   0.95845183 
   29300    202.95641    493.56514    130232.69   -41447.998    2525.1636   -43973.161    31.733678    0.9590026 
   29400    203.70814    384.21835    130264.28   -41494.503    2534.5165    -44029.02    31.874244   0.95877004 
   29500    201.34707    518.55049    130109.68   -41528.002    2505.1403   -44033.142    32.103065   0.95990931 
   29600     204.3795    527.21926    130216.13   -41449.927    2542.8695   -43992.796    32.178871   0.95912461 
   29700    202.12581    441.76126    130265.04    -41498.49    2514.8294    -44013.32    32.329586   0.95876446 
   29800    205.97897    398.03529    130104.23    -41493.79      2562.77    -44056.56    32.219917   0.95994949 
   29900    201.10544    445.21597    130106.82   -41505.476     2502.134    -44007.61    32.262352   0.95993041 
   30000    206.26591    385.61052    130045.35   -41477.284      2566.34   -44043.624     32.23274   0.96038415 
   30100    204.09908    553.93639    130219.58   -41468.697    2539.3806   -44008.077    32.491376    0.9590992 
   30200    202.23975    305.37423    130239.49   -41481.565     2516.247   -43997.812     32.56326   0.95895253 
   30300    203.67372    334.10828    130251.41    -41438.36    2534.0882   -43972.449    32.688596   0.95886478 
   30400     205.1506    353.22266    130333.83   -41420.087    2552.4634    -43972.55    32.788087   0.95825839 
   30500    206.55446    414.51639    130292.14    -41427.02    2569.9302    -43996.95    32.913648   0.95856501 
   30600     206.6829    281.39621    130193.04   -41421.928    2571.5282   -43993.456    32.827221   0.95929468 
   30700    203.91037    188.44603    130055.34   -41423.443    2537.0327   -43960.475    32.724437   0.96031039 
   30800    209.96691    379.91825    130089.11    -41364.73    2612.3875   -43977.118    32.598232   0.96006108 
   30900    201.59659    355.16972    130114.54   -41476.063    2508.2448   -43984.308     32.68715   0.95987346 
   31000    202.35652    478.17879    130156.62   -41514.036    2517.6998   -44031.736    32.740898   0.95956309 
   31100    204.91744    517.70615    130287.36   -41504.829    2549.5625   -44054.391    33.004118   0.95860022 
   31200    201.85833    325.61393    130239.22   -41517.027    2511.5014   -44028.528    33.154678   0.95895452 
   31300    205.94682    279.80071    130329.74   -41478.225    2562.3699   -44040.595    33.308337   0.95828851 
   31400    205.94278    467.98695    130543.91   -41437.573    2562.3198   -43999.892    33.240928    0.9567163 
   31500    200.97705    442.18826     130391.4   -41479.503    2500.5366   -43980.039    33.158845   0.95783537 
   31600    206.85734    475.45096    130320.78   -41422.622    2573.6985   -43996.321    33.119307    0.9583544 
   31700    207.20771    427.40322    130469.09   -41450.861    2578.0579   -44028.919    33.211797   0.95726499 
   31800    209.31471    425.41347    130255.33   -41386.764     2604.273   -43991.037     33.34358   0.95883596 
   31900    204.79063    336.78448    130073.09   -41383.771    2547.9847   -43931.756    33.445503    0.9601793 
   32000    207.61765    372.39938    130205.82   -41368.634    2583.1583   -43951.792    33.604549   0.95920053 
   32100    204.95996    296.68911    130144.96   -41370.758    2550.0915    -43920.85    33.643851   0.95964909 
   32200      205.273    559.56685     130129.4   -41357.647    2553.9864   -43911.633    33.636806   0.95976383 
   32300    205.07385    426.63806    130142.59   -41338.236    2551.5085   -43889.745    33.637718   0.95966654 
   32400    204.46813    466.44397    130221.58   -41404.667    2543.9723   -43948.639     33.57371   0.95908446 
   32500    207.72899    410.25388    130182.66   -41411.793    2584.5436   -43996.336    33.635405   0.95937118 
   32600    208.20231    486.36319    130096.09   -41356.629    2590.4325   -43947.062    33.572629   0.96000955 
   32700    207.90334    339.00777    130132.67   -41428.012    2586.7128   -44014.725    33.672072    0.9597397 
   32800    202.60465    405.23123     130113.2   -41463.265    2520.7871   -43984.052    33.897052   0.95988334 
   32900    200.14065    440.80716    130111.09   -41469.191    2490.1302   -43959.321    33.947762   0.95989887 
   33000    205.16809    452.11865    130341.73    -41526.79    2552.6811   -44079.472    33.790397   0.95820032 
   33100    203.16599     384.8725    130276.53   -41457.166    2527.7712   -43984.938    34.056274   0.95867988 
   33200    202.95414    349.57461    130234.92     -41493.1    2525.1353   -44018.235    34.083817   0.95898617 
   33300    206.62359    453.51322    130305.51   -41422.711    2570.7903   -43993.502    34.088467    0.9584667 
   33400    203.16626    281.96874    130224.73   -41497.988    2527.7746   -44025.763    34.228946   0.95906122 
   33500    204.34716    379.33816    130260.81   -41463.395    2542.4671   -44005.862     34.25357   0.95879558 
   33600    204.83843    383.32075    130234.87   -41445.518    2548.5795   -43994.098    34.369727   0.95898654 
   33700    203.11362    375.13463    130356.43   -41442.602    2527.1196   -43969.722    34.368504   0.95809233 
   33800    200.96295     306.7246    130224.04    -41435.92    2500.3612   -43936.281    34.350133   0.95906629 
   33900    205.56678    385.14566    130205.59   -41450.899    2557.6415    -44008.54    34.309048   0.95920221 
   34000    207.80697    445.05323    130177.38   -41424.298    2585.5138   -44009.812    34.558948   0.95941011 
   34100    203.20157    442.31635    130092.77   -41458.813    2528.2138   -43987.027    34.589747   0.96003405 
   34200    205.11449    338.27416    130123.44   -41469.451    2552.0142   -44021.465     34.53088    0.9598078 
   34300    202.01622    396.68981    130135.29   -41512.934    2513.4658     -44026.4     34.78033   0.95972038 
   34400    204.81165    316.07357    130021.39   -41443.689    2548.2463   -43991.935    34.752429   0.96056115 
   34500    202.08727    372.08186    129992.42   -41460.455    2514.3499   -43974.805     34.67601   0.96077518 
   34600    205.57457    344.71359    130080.19   -41456.349    2557.7385   -44014.087    34.763927   0.96012691 
   34700    202.10288    633.51886    130281.97   -41537.112    2514.5441   -44051.656    34.964046   0.95863988 
   34800    204.30268    267.60614    130172.32   -41522.142    2541.9138   -44064.056    34.882948   0.95944735 
   34900    202.57271    396.93388    130131.89   -41534.893    2520.3896   -44055.282     34.88428   0.95974544 
   35000    199.48174     425.5393    130130.37   -41597.162    2481.9321   -44079.094    34.859015   0.95975669 
   35100    199.81181     466.2499    130187.58   -41532.943    2486.0387   -44018.981    34.851474   0.95933493 
   35200    202.78199    346.85876    130230.89   -41540.327    2522.9934    -44063.32    35.066851   0.95901585 
   35300    208.41291     332.5539    130059.99   -41529.955    2593.0528   -44123.008      35.2351   0.96027603 
   35400    203.66291    364.98362    130086.65   -41543.109    2533.9538   -44077.062    35.174899   0.96007924 
   35500    206.36419    490.27381    130059.28    -41459.03    2567.5629   -44026.593    35.208963   0.96028125 
   35600    201.81899    490.40031    130052.89    -41506.33     2511.012   -44017.342    35.106564   0.96032847 
   35700    204.74814    528.46233    130073.05   -41472.486    2547.4561   -44019.942    34.978948   0.96017958 
   35800    204.99355    385.09182    130148.12   -41512.825    2550.5095   -44063.334    35.264923   0.95962581 
   35900    207.81379    348.55441    130184.32    -41459.71    2585.5986   -44045.308    35.309857   0.95935895 
   36000    207.67437    364.71928    130382.32   -41429.212    2583.8639   -44013.076    35.619082   0.95790207 
   36100    208.30341    340.57643    130294.69   -41451.332    2591.6904   -44043.022    35.479546    0.9585463 
   36200    206.65315    408.37496    130288.84   -41480.402    2571.1581    -44051.56    35.506514   0.95858931 
   36300     202.9235    244.18773    130148.19    -41539.32    2524.7542   -44064.075    35.341271   0.95962528 
   36400     205.3371    445.97794    130101.48   -41480.043    2554.7838   -44034.827    35.638517   0.95996978 
   36500    206.08795    382.59717    130186.98    -41457.27     2564.126   -44021.396    35.671498   0.95933935 
   36600    204.08701    463.34213    130120.81   -41563.669    2539.2304   -44102.899    35.764846   0.95982719 
   36700    202.17984     284.8178     130098.8     -41502.5    2515.5016   -44018.001    35.870695    0.9599896 
   36800    204.56773    497.75659     130229.2   -41488.293    2545.2114   -44033.504    36.032493   0.95902834 
   36900    202.93514    400.31184    130293.23   -41506.196    2524.8989   -44031.095    36.171594     0.958557 
   37000    206.46965    379.14569    130370.18   -41442.665     2568.875    -44011.54     35.95247   0.95799122 
   37100    208.22354    359.44089    130242.72   -41428.199    2590.6967   -44018.896    35.832259   0.95892879 
   37200    203.22713    336.05818    130175.24   -41487.044    2528.5319   -44015.576    35.880511   0.95942589 
   37300    203.95705    425.21495    130285.55   -41510.943    2537.6135   -44048.557    35.969817   0.95861352 
   37400    200.94021    258.16297    130319.84   -41546.162    2500.0783    -44046.24    36.173853   0.95836128 
   37500    202.94435    406.97615    130344.12    -41562.92    2525.0135   -44087.933    36.143105   0.95818275 
   37600    203.70337    403.02768    130327.26   -41516.945    2534.4572   -44051.402     36.15395    0.9583067 
   37700    201.84806    415.15614    130316.03   -41519.445    2511.3736   -44030.818    36.126857   0.95838931 
   37800    201.47507    404.72081    130333.61   -41612.317    2506.7329   -44119.049    36.145159   0.95826003 
   37900     201.8195    442.73836    130087.07   -41570.436    2511.0183   -44081.455    36.196884   0.96007612 
   38000    201.49038    354.95537    130160.44   -41534.485    2506.9233   -44041.409    36.364019   0.95953491 
   38100    201.92764    429.11161    130207.93   -41495.155    2512.3637   -44007.519    36.633065   0.95918496 
   38200    202.43601     260.7018    130374.57   -41501.723    2518.6888   -44020.412     36.50922     0.957959 
   38300     208.3562    317.56176    130376.68   -41439.249    2592.3472   -44031.596    36.417664   0.95794346 
   38400    207.32156    481.11721    130436.35   -41491.063    2579.4744   -44070.538    36.388347   0.95750525 
   38500    205.36945    438.85024     130446.7   -41522.763    2555.1864   -44077.949    36.316541   0.95742926 
   38600    206.12603     277.8696    130322.53   -41489.029    2564.5997   -44053.628    36.568994   0.95834149 
   38700    202.80636    333.57266    130192.73   -41501.727    2523.2967   -44025.023    36.536129     0.959297 
   38800    204.08095    314.62736    130206.18   -41522.024    2539.1549   -44061.179    36.552658   0.95919784 
   38900    207.56269    474.71174    130401.59   -41484.135    2582.4745   -44066.609    36.644105   0.95776047 
   39000    206.68646    412.33305    130343.56   -41533.328    2571.5725     -44104.9    36.675436   0.95818691 
   39100    205.27684    324.84143    130219.54   -41508.891    2554.0341   -44062.925    36.723056   0.95909944 
   39200    202.34869    342.18383    130361.56   -41541.485    2517.6024   -44059.087    36.868694   0.95805458 
   39300    205.48504    405.39488     130245.7   -41541.939    2556.6246   -44098.564    36.649165   0.95890684 
   39400    204.34639    416.42527    130483.54   -41504.695    2542.4576   -44047.153    36.727839   0.95715898 
   39500    207.43406    321.58474    130275.67   -41492.026    2580.8741     -44072.9    36.790378   0.95868626 
   39600    207.31507    453.44839    130198.79   -41529.878    2579.3936   -44109.271    36.883827   0.95925231 
   39700    205.70764    450.34455    130252.02   -41489.791    2559.3941   -44049.185     36.97585   0.95886027 
   39800    206.74641    325.59842    130173.49   -41557.735    2572.3184   -44130.053    37.264475   0.95943877 
   39900    202.67787    318.98534    130322.94   -41589.682     2521.698    -44111.38    37.312929   0.95833852 
   40000     200.9316    321.55933    130357.73   -41614.983    2499.9712   -44114.954    37.176154   0.95808273 
   40100     205.4837    446.98957    130398.96   -41522.957    2556.6079   -44079.565    37.229203    0.9577798 
   40200    204.82414    555.13029    130505.92   -41542.678    2548.4017   -44091.079    37.270568   0.95699484 
   40300     205.9973     414.2366    130452.19   -41528.771    2562.9981   -44091.769    37.310306   0.95738897 
   40400    206.00748    372.34936    130449.15   -41450.274    2563.1247   -44013.399    37.359421    0.9574113 
   40500    207.73525    395.72696     130294.5   -41465.502    2584.6214   -44050.124    37.383579    0.9585477 
   40600    208.66382    411.08313    130519.44   -41513.221    2596.1747   -44109.396    37.350052   0.95689572 
   40700    202.36866    552.67909    130528.08   -41556.257    2517.8508   -44074.108    37.367061   0.95683238 
   40800    197.71736    379.51702     130492.2   -41595.704    2459.9799   -44055.683    37.529142   0.95709545 
   40900    203.59641    415.62418    130292.07   -41611.792    2533.1264   -44144.918    37.564621   0.95856554 
   41000    202.48933    411.04751    130437.68   -41535.726    2519.3522   -44055.078    37.672842   0.95749551 
   41100    207.56123    425.20713    130486.57   -41529.967    2582.4563   -44112.424    37.842465   0.95713676 
   41200    209.21246    496.76181    130591.64   -41558.802    2603.0008   -44161.802    37.831377   0.95636666 
   41300    196.79562    302.01898    130624.71    -41704.57    2448.5116   -44153.081    37.743995   0.95612452 
   41400    201.05297    503.40291    130526.65   -41649.996    2501.4811   -44151.477    37.604508   0.95684286 
   41500    204.07395     453.9862    130529.29    -41649.04    2539.0679   -44188.108    37.838458   0.95682346 
   41600    202.34161    372.83401    130502.08   -41626.972    2517.5143   -44144.487    38.139669   0.95702297 
   41700    205.80534    431.38557    130426.09   -41604.891    2560.6097   -44165.501    38.081338   0.95758055 
   41800    204.84343    375.18344    130557.53   -41607.857    2548.6417   -44156.499    38.106963   0.95661654 
   41900    206.70352    308.10479    130482.49   -41577.738    2571.7847   -44149.523    38.032687    0.9571667 
   42000    204.53274    499.18235    130415.65   -41565.849    2544.7761   -44110.626    38.118241   0.95765722 
   42100    203.88287    342.89396    130486.87   -41568.565    2536.6906   -44105.256    38.342088   0.95713451 
   42200    205.57468    480.82762    130389.74   -41516.658    2557.7399   -44074.397    38.266217   0.95784751 
   42300     210.6428    446.43822    130353.03   -41500.455    2620.7969   -44121.252    38.259088   0.95811726 
   42400    204.39561    398.18027    130366.87   -41530.041      2543.07   -44073.111    38.717901   0.95801557 
   42500    205.36924    414.48237    130452.65   -41532.485    2555.1838   -44087.669    38.413471   0.95738565 
   42600     207.2419    394.21444    130502.29   -41541.732    2578.4832   -44120.215    38.560686   0.95702146 
   42700    207.50459    395.05123    130629.38   -41565.105    2581.7516   -44146.857    38.631092   0.95609037 
   42800    204.51268    454.20246    130671.86   -41527.869    2544.5266   -44072.396    38.663834   0.95577955 
   42900    205.46155    394.69932    130656.19   -41599.049    2556.3323   -44155.382    38.870765   0.95589418 
   43000    203.89244    337.53924    130579.06   -41618.757    2536.8096   -44155.567    38.757186   0.95645883 
   43100    206.27309    497.69997    130754.92   -41597.255    2566.4294   -44163.684    38.824112   0.95517238 
   43200    205.29354    418.12621     130690.7   -41558.959    2554.2419   -44113.201     38.99286   0.95564176 
   43300    208.08882    489.49457    130860.51   -41574.565    2589.0205   -44163.586    39.117121   0.95440172 
   43400    208.83829    625.96186    130947.32   -41532.994    2598.3453    -44131.34    39.078795   0.95376897 
   43500    207.83442    527.76861    130896.09   -41539.833    2585.8553   -44125.688    38.991013   0.95414227 
   43600    209.14615    520.15338    131175.71   -41453.725    2602.1758   -44055.901    38.901374   0.95210835 
   43700    205.53583    375.91716    131192.11   -41489.575    2557.2565   -44046.832    38.994095   0.95198932 
   43800    205.37466    373.45579    131254.67   -41503.305    2555.2513   -44058.556     39.13014   0.95153563 
   43900     207.4578    453.45004    131155.11   -41546.963    2581.1694   -44128.132    39.227695    0.9522579 
   44000    203.68671    361.35355    131041.57   -41582.668    2534.2499   -44116.918    39.308699   0.95308299 
   44100    205.53478    371.52712    131103.91   -41610.426    2557.2434   -44167.669    39.245326    0.9526298 
   44200    203.78672    475.97032    131167.61   -41646.008    2535.4942   -44181.503    39.571124   0.95216717 
   44300    203.01653    339.88346    130949.43   -41643.881    2525.9115   -44169.793    39.608229   0.95375361 
   44400    205.72312    485.82307    131019.58   -41615.713    2559.5868     -44175.3    39.584105   0.95324293 
   44500    206.21894     318.5168    131161.58   -41646.316    2565.7556   -44212.072    39.634085   0.95221094 
   44600    199.88932      441.564    130885.74    -41709.11    2487.0031   -44196.113    39.536182    0.9542177 
   44700    203.79564    469.16671       130950   -41689.348    2535.6052   -44224.953    39.498812   0.95374947 
   44800    202.41002    411.41366    130815.81   -41664.981    2518.3655   -44183.347    39.641565   0.95472783 
   44900    209.03538    377.37016    130914.52   -41640.673    2600.7976   -44241.471    39.772243   0.95400795 
   45000    202.31011     391.1776    130909.07   -41651.652    2517.1224   -44168.774      39.8217   0.95404767 
   45100    205.83133    478.90834    130744.53   -41584.974    2560.9331   -44145.907    39.646107   0.95524829 
   45200    207.33937    358.74066     130741.3   -41636.941    2579.6959   -44216.636    39.895841   0.95527189 
   45300    201.23493    412.67549    130651.27   -41656.399    2503.7451   -44160.144     39.73394   0.95593014 
   45400    205.17828     423.2524    130652.51   -41629.852    2552.8079    -44182.66    39.738932   0.95592108 
   45500    204.46689    468.05818    130708.34   -41628.355    2543.9568   -44172.312    39.822733   0.95551281 
   45600    208.19908    294.86766    130829.15   -41623.249    2590.3924   -44213.642    40.030714   0.95463047 
   45700    207.68001    358.76347    130725.52    -41636.77    2583.9342   -44220.704     39.95424   0.95538721 
   45800     207.0594    309.63511    130752.77   -41583.073    2576.2126   -44159.286    39.973705   0.95518812 
   45900    208.43177    474.63267    130713.13   -41516.828    2593.2875   -44110.116    39.827963   0.95547775 
   46000    208.27957    435.97997    130760.33   -41489.425    2591.3939   -44080.818    39.881277   0.95513289 
   46100    209.96055    391.55895     130637.7   -41443.301    2612.3084    -44055.61    39.744811    0.9560295 
   46200    213.10614    480.43603    130657.89   -41442.717    2651.4456   -44094.163    39.770826   0.95588175 
   46300    209.04853    223.06393    130605.79   -41466.695    2600.9612   -44067.656    40.044714   0.95626305 
   46400    208.70647    324.63494     130590.7   -41509.536    2596.7052   -44106.241    40.099892   0.95637359 
   46500     208.7006    516.26908    130490.86   -41521.859    2596.6323   -44118.491    40.262711   0.95710527 
   46600    207.56593    406.82427    130719.74   -41516.071    2582.5148   -44098.586    40.205662   0.95542947 
   46700    203.83793    535.69124     130732.5    -41598.04    2536.1313   -44134.172    40.312801   0.95533623 
   46800    204.74392    442.93813    130792.87   -41650.139    2547.4036   -44197.542    40.382548   0.95489525 
   46900     205.7555    238.70752    130750.52   -41581.733    2559.9896   -44141.723    40.345708   0.95520458 
   47000     205.8062    498.43231    130864.94   -41572.784    2560.6204   -44133.404     40.59427    0.9543694 
   47100    205.62397    299.01411    130844.88   -41549.954    2558.3531   -44108.307    40.450552   0.95451571 
   47200    206.17549    453.83325    130777.46   -41596.254    2565.2151   -44161.469    40.346011   0.95500775 
   47300    200.89684    441.86643    130687.98   -41609.087    2499.5386   -44108.626     40.57915   0.95566169 
   47400    209.23937    485.92544    130749.43   -41566.604    2603.3355   -44169.939    40.624524    0.9552125 
   47500    207.02183    466.97067    130599.41    -41514.22    2575.7451   -44089.965    40.692769    0.9563098 
   47600    207.76233    329.68398    130779.22   -41487.892    2584.9584    -44072.85    40.654312    0.9549949 
   47700    209.49998    443.92333    130665.94    -41534.39     2606.578   -44140.968    40.665479   0.95582287 
   47800    210.39392     414.2164    130636.51   -41539.735    2617.7004   -44157.436    40.707512   0.95603816 
   47900    203.46167    263.33848    130757.51   -41627.848      2531.45   -44159.298    40.770312   0.95515352 
   48000    206.48036    534.09665    130560.89   -41653.777    2569.0082   -44222.785    40.721836   0.95659187 
   48100    205.09953      447.126    130576.95   -41619.393     2551.828   -44171.221    40.802702   0.95647425 
   48200    207.11734    388.94328    130575.28   -41644.997    2576.9334    -44221.93    40.924893   0.95648649 
   48300    206.12782    417.70239    130547.18    -41627.28    2564.6219   -44191.902    41.039196   0.95669235 
   48400    206.29176    412.64349     130760.1   -41554.168    2566.6616   -44120.829    41.391583   0.95513456 
   48500    207.62903    389.79115    130750.74   -41619.829    2583.2999   -44203.129    41.418566   0.95520296 
   48600    203.54532    446.53607    130700.23   -41626.028    2532.4907   -44158.519    41.217984   0.95557205 
   48700    207.79699    449.05711    130726.78   -41602.154    2585.3896   -44187.543    41.381247   0.95537803 
   48800    205.35405      362.479    130901.47   -41639.072    2554.9949   -44194.067    41.340976   0.95410307 
   48900    207.68726    499.66331    130676.87   -41635.544    2584.0243   -44219.569    41.282214   0.95574291 
   49000    198.56066    385.40403     130830.6   -41669.121    2470.4721   -44139.593    41.207726   0.95461988 
   49100    202.92852    357.13331     130813.3   -41671.854    2524.8166   -44196.671    41.233144   0.95474613 
   49200    203.79494    472.02461     130898.9   -41693.903    2535.5965   -44229.499    41.497054   0.95412179 
   49300    205.08364     468.5332    130875.39   -41660.637    2551.6304   -44212.267    41.683737   0.95429314 
   49400    203.44432    415.88446    130762.01   -41642.569    2531.2341   -44173.803    41.587403   0.95512058 
   49500    205.17279    293.67586    130765.85   -41647.363    2552.7395   -44200.102    41.633975   0.95509254 
   49600    205.17817    291.70428    130809.03   -41644.563    2552.8065    -44197.37    41.734986   0.95477729 
   49700    205.93764    481.19992    130799.68   -41661.666    2562.2557   -44223.921    41.618291   0.95484555 
   49800    205.64436    240.60724    130864.47   -41706.609    2558.6068   -44265.216    41.645716   0.95437279 
   49900    207.73082    261.63622    130896.14   -41600.464    2584.5663   -44185.031    41.507454    0.9541419 
   50000    207.08924    304.31593    130901.59   -41630.483    2576.5838   -44207.066    41.695659   0.95410215 
   50100    207.26008    525.81349    130937.33   -41642.765    2578.7095   -44221.475    41.788454   0.95384173 
   50200    206.78267    507.40092    131046.48   -41680.601    2572.7695    -44253.37    41.975803   0.95304728 
   50300    207.26237    441.99196    131079.74   -41663.933    2578.7379   -44242.671    41.917451   0.95280542 
   50400    203.91671    454.05983    131102.83   -41692.143    2537.1115   -44229.254    42.098457   0.95263765 
   50500    206.52289    269.24888    131093.17   -41733.882    2569.5374   -44303.419    42.089558   0.95270788 
   50600    199.23463    322.39254     131034.6   -41747.872    2478.8575    -44226.73     41.97334   0.95313367 
   50700    203.93811    368.44495     131032.6   -41751.285    2537.3778   -44288.663     41.87109   0.95314822 
   50800     203.5253    448.22491     130964.7    -41740.13    2532.2417   -44272.372    41.774668   0.95364237 
   50900    205.54227    362.04939    131035.03   -41658.461    2557.3366   -44215.798    42.089914   0.95313053 
   51000    203.97504    249.13144    130960.84   -41693.021    2537.8373   -44230.858    41.913716   0.95367052 
   51100    204.97834    266.38369    130971.44   -41731.396    2550.3203   -44281.716     42.14874   0.95359334 
   51200    206.95849    419.55839    130777.25   -41717.839     2574.957   -44292.796    42.255994   0.95500931 
   51300    202.31488    531.82078    130881.14    -41772.58    2517.1817   -44289.762    42.214002   0.95425122 
   51400    204.94348    511.04738     130903.7   -41771.605    2549.8865   -44321.491    42.300028   0.95408682 
   51500    200.58585    521.03888    130781.81   -41761.311    2495.6693   -44256.981    42.362361   0.95497604 
   51600    201.34345    140.44837    130866.83   -41715.386    2505.0952   -44220.482      42.4482   0.95435559 
   51700    200.96684    504.32254    130853.73   -41697.705    2500.4096   -44198.115    42.613828   0.95445115 
   51800    204.73403    487.52412    130892.99   -41727.332    2547.2806   -44274.612    42.683313   0.95416489 
   51900    199.96378    401.69961    130802.85   -41752.962    2487.9296   -44240.891    42.547822   0.95482238 
   52000    200.40276    233.28696    130705.96   -41764.857    2493.3913   -44258.248    42.719125   0.95553022 
   52100    198.18817    455.90735     130619.1   -41710.186    2465.8376   -44176.024    42.514203   0.95616561 
   52200    201.09619    645.73633    130748.16   -41723.819    2502.0189   -44225.837    42.672949   0.95522176 
   52300    202.56071    317.08413    130712.64   -41707.518    2520.2403   -44227.759    42.762146   0.95548135 
   52400    202.89614    458.64132    130771.82   -41652.936    2524.4137   -44177.349    42.900246   0.95504896 
   52500    206.33736     457.5845     130661.2   -41649.709    2567.2291   -44216.938    42.908962   0.95585756 
   52600    206.21903    501.05717    130713.51   -41673.183    2565.7567    -44238.94    42.851674   0.95547498 
   52700    204.22569    358.67274    130757.08   -41686.092    2540.9558   -44227.048    42.853286    0.9551566 
   52800    204.93897    257.61303    130619.77   -41651.746    2549.8304   -44201.576     42.67026   0.95616068 
   52900    205.30667    439.08484    130717.15   -41646.527    2554.4053   -44200.933    42.858815   0.95544836 
   53000    205.17934    315.52079    130710.89   -41629.946    2552.8211   -44182.767    43.075166   0.95549417 
   53100    204.56104    333.78942    130524.95   -41669.676    2545.1282   -44214.805    43.040592   0.95685529 
   53200     205.8152    301.54527    130615.94   -41656.493    2560.7324   -44217.226    43.036417   0.95618872 
   53300    206.06125    347.94045    130573.01   -41647.755    2563.7937   -44211.549    42.915064   0.95650312 
   53400    203.46707    359.31035     130716.8   -41722.363    2531.5172    -44253.88    42.786464   0.95545099 
   53500    203.09427    495.69963     130588.2   -41729.541    2526.8789    -44256.42    42.937976   0.95639187 
   53600      201.707    406.55178    130542.77   -41727.379    2509.6185   -44236.998    43.074768   0.95672466 
   53700    203.75515     343.0697    130467.43   -41750.344    2535.1015   -44285.446    43.134487   0.95727717 
   53800    203.86487    409.98312    130474.72   -41645.426    2536.4665   -44181.893    43.229299   0.95722367 
   53900     200.3664    286.96941     130530.3   -41691.645     2492.939   -44184.584    43.227398   0.95681612 
   54000    206.42964    559.56327    130682.05   -41670.119    2568.3771   -44238.496    43.254108   0.95570503 
   54100    202.04225    336.56809    130698.42   -41688.433    2513.7897   -44202.223    43.139003   0.95558531 
   54200    202.41705    303.45186    130640.15   -41663.416    2518.4529   -44181.869    43.306307   0.95601151 
   54300    207.72974    235.48597    130461.88   -41647.567    2584.5529    -44232.12    43.386514   0.95731789 
   54400    204.71332    364.12209    130578.17    -41669.63    2547.0229   -44216.653    43.576063   0.95646534 
   54500    205.49604    483.41998     130626.5   -41658.333    2556.7614   -44215.095    43.453015   0.95611144 
   54600    208.40598    372.16729    130726.51   -41570.992    2592.9666   -44163.958    43.748044   0.95537997 
   54700    209.14209    411.21554    130540.57   -41579.995    2602.1252    -44182.12    43.662027   0.95674083 
   54800    202.60425    472.18828    130415.96   -41647.248    2520.7821    -44168.03    43.825991   0.95765494 
   54900    204.12863    312.93877    130511.72   -41680.674    2539.7483   -44220.422    43.960818   0.95695228 
   55000    203.22598    410.08383    130586.94   -41740.386    2528.5175   -44268.903    43.663969    0.9564011 
   55100    199.70137    467.72563    130348.11   -41702.604    2484.6647   -44187.268    43.652751   0.95815343 
   55200     204.1715    419.59329    130500.69   -41704.049    2540.2816    -44244.33    43.801697    0.9570332 
   55300    206.43587    340.09262    130657.21   -41657.476    2568.4546    -44225.93     44.11924   0.95588671 
   55400    207.66461    468.02343    130698.68   -41629.426    2583.7426   -44213.169    44.049641   0.95558341 
   55500    208.62741    348.22228    130584.54    -41580.35    2595.7216   -44176.071    43.879547   0.95641865 
   55600    203.78672     417.8604    130520.64   -41627.367    2535.4942   -44162.861    43.723282    0.9568869 
   55700    208.62955    431.59575    130579.68   -41609.711    2595.7482   -44205.459    43.831518   0.95645425 
   55800    205.57226    332.02968    130572.38   -41613.401    2557.7098   -44171.111    43.810013   0.95650773 
   55900      208.204    351.09979    130569.92   -41577.857    2590.4536    -44168.31    43.863484   0.95652573 
   56000    207.46587    448.34845    130510.19   -41570.495    2581.2699   -44151.765    43.960103    0.9569635 
   56100    207.75368    384.99825    130481.93   -41551.135    2584.8508   -44135.986    44.189826    0.9571708 
   56200    204.00498    398.21704    130470.87   -41557.087    2538.2097   -44095.297    44.099146   0.95725195 
   56300    211.29139    334.18363    130486.85   -41598.105    2628.8665   -44226.972     43.99217   0.95713467 
   56400    204.26456    435.10524    130532.26   -41577.127    2541.4395   -44118.567     44.06139   0.95680175 
   56500    202.13484    217.63809    130515.57   -41659.619    2514.9417   -44174.561     43.96492    0.9569241 
   56600    204.29897    584.31621    130485.61   -41670.327    2541.8676   -44212.195      44.1418   0.95714378 
   56700    204.56691    521.57824    130668.47    -41719.44    2545.2013   -44264.641     44.10212   0.95580432 
   56800     201.7467    464.74812    130588.05    -41658.13    2510.1125   -44168.242    44.091783   0.95639298 
   56900    205.94254    399.76967     130600.9   -41647.539    2562.3167   -44209.855     44.00363   0.95629888 
   57000    210.79795    454.04907    130681.21   -41604.509    2622.7273   -44227.236    44.335264   0.95571114 
   57100    207.72754    345.21931    130778.03   -41675.479    2584.5256   -44260.004    44.314844   0.95500359 
   57200    205.21061    385.89528    130692.17   -41718.995    2553.2102   -44272.205    44.403703   0.95563098 
   57300    202.87701    512.01014    130622.47   -41771.588    2524.1756   -44295.764    44.404583   0.95614092 
   57400    200.14134    512.07319    130676.07   -41778.775    2490.1387   -44268.914    44.281557   0.95574876 
   57500    201.76567    248.75286    130752.68   -41829.056    2510.3485   -44339.404    44.108864   0.95518874 
   57600    202.13817    459.88414    130791.62   -41779.833    2514.9832   -44294.816    44.200894   0.95490436 
   57700      201.185    474.36933    130731.75   -41817.799    2503.1239   -44320.923    44.215261    0.9553417 
   57800     199.6388    447.89732    130785.19   -41845.739    2483.8862   -44329.625    44.508157   0.95495133 
   57900    202.19032    348.26858    130763.91   -41823.948     2515.632    -44339.58    44.386609   0.95510674 
   58000    202.31289    439.42874    130735.23   -41820.274    2517.1569   -44337.431    44.590642   0.95531623 
   58100    202.83089    365.59187    130931.29   -41754.621    2523.6019   -44278.222    44.453229   0.95388571 
   58200    203.94086    438.71129    130848.71   -41711.507     2537.412   -44248.919    44.385083   0.95448773 
   58300    206.26397    340.31049    130796.33   -41653.719    2566.3159   -44220.035    44.266803   0.95487002 
   58400    207.81835    428.95074    130647.22   -41655.012    2585.6553   -44240.667    44.374671   0.95595979 
   58500    204.70933    254.48768    130799.04   -41660.087    2546.9732   -44207.061    44.368215   0.95485022 
   58600    207.80713    468.56008    130711.76    -41629.04    2585.5158   -44214.556    44.493287   0.95548783 
   58700    204.96795    376.58715    130684.07   -41634.986    2550.1909   -44185.177    44.413625   0.95569021 
   58800    207.99023    532.82457     130654.7   -41686.134    2587.7939   -44273.928    44.463664   0.95590509 
   58900    204.37552    461.92885    130812.31    -41731.63      2542.82    -44274.45    44.459037   0.95475337 
   59000    201.08569    390.74607     130811.6   -41710.981    2501.8882   -44212.869    44.424612   0.95475853 
   59100     203.4615    318.73654    130751.31    -41708.83    2531.4478   -44240.278    44.458835   0.95519875 
   59200    205.28297    379.88016    130660.97   -41724.065    2554.1104   -44278.176    44.725518    0.9558592 
   59300    203.35134    260.90368    130826.57   -41723.459    2530.0772   -44253.537    44.649904   0.95464926 
   59400    201.75674    575.74516    130838.86   -41780.815    2510.2375   -44291.053    44.769163   0.95455965 
   59500    205.80133    419.27073    130877.28   -41749.723    2560.5598   -44310.283    44.829388    0.9542794 
   59600     205.8981    406.75654    130957.09    -41739.98    2561.7638   -44301.744    44.667072   0.95369782 
   59700    202.39368    388.33354     131015.3   -41761.546    2518.1622   -44279.708    44.659619   0.95327406 
   59800    204.57149    520.82847    131108.64   -41759.834    2545.2582   -44305.092    44.785824   0.95259545 
   59900    203.80848    333.38552    131022.93    -41734.11    2535.7649   -44269.875     44.76756   0.95321859 
   60000    199.71201     160.7906    131071.81   -41778.135    2484.7971   -44262.932    44.833935   0.95286308 
   60100    206.18029    408.31517    131187.51   -41742.947    2565.2748   -44308.221    44.825788   0.95202275 
   60200    206.38439    455.62426    131225.51   -41728.424    2567.8142   -44296.238    44.852187   0.95174708 
   60300    206.30822     416.1885    131095.94   -41693.945    2566.8665   -44260.811    44.644028   0.95268774 
   60400    209.13865    399.02123    131103.29   -41650.723    2602.0824   -44252.806    44.942193   0.95263432 
   60500    206.56065    466.99265    131122.95   -41685.699    2570.0072   -44255.706    45.028095   0.95249145 
   60600    205.77964    299.53562    131010.09   -41736.012      2560.29   -44296.302    45.082601     0.953312 
   60700    204.30171     277.3758    130909.67   -41750.816    2541.9017   -44292.718    45.045018   0.95404327 
   60800    209.12559    529.58781    130976.13   -41699.381    2601.9199   -44301.301    44.921989   0.95355918 
   60900    205.75359    327.21352    131083.44   -41706.645    2559.9659   -44266.611    44.925636   0.95277853 
   61000    207.11813    338.31211    130856.08   -41746.152    2576.9433   -44323.095    44.945556   0.95443396 
   61100     201.8403    469.26574    130938.55    -41777.42     2511.277   -44288.697    45.086972   0.95383285 
   61200    203.36799    552.70875    130893.84   -41776.099    2530.2845   -44306.383    45.293146   0.95415864 
   61300    202.96516    390.05037    130944.68   -41754.562    2525.2725   -44279.834    45.222859   0.95378823 
   61400    205.13145    411.43658    130997.27    -41773.56    2552.2253   -44325.785    45.311999   0.95340532 
   61500    200.16613    283.62883    130858.06   -41762.183    2490.4472    -44252.63    45.084334   0.95441958 
   61600    205.23528    338.58752    131015.57   -41725.823    2553.5171    -44279.34    45.073022   0.95327216 
   61700    200.26924    536.41374    130910.81   -41794.875    2491.7301   -44286.605    45.094238   0.95403499 
   61800    201.56643    420.00668    131000.17   -41852.681    2507.8696   -44360.551    45.106166    0.9533842 
   61900    201.75942    317.47102    131086.07   -41798.359    2510.2708   -44308.629     45.19256   0.95275947 
   62000    206.07727    360.97256    130911.53   -41750.957     2563.993    -44314.95    45.230866   0.95402971 
   62100    205.42254    428.12123    130888.34   -41767.237     2555.847   -44323.084    45.450016   0.95419875 
   62200    204.95349    360.02122    131010.88   -41717.961    2550.0111   -44267.972    45.380444   0.95330627 
   62300    205.52768    479.63039    131073.53   -41757.081    2557.1551   -44314.236    45.410244   0.95285056 
   62400    202.71908    470.04567    131111.68   -41709.334    2522.2108   -44231.545    45.394976   0.95257332 
   62500    209.50835    360.90264    131160.97   -41725.137    2606.6822   -44331.819    45.237512   0.95221535 
   62600    206.96824    435.81474    131126.87   -41729.001    2575.0784   -44304.079    45.371611   0.95246298 
   62700    202.06387     414.9341    131020.81   -41751.873    2514.0587   -44265.931    45.494547   0.95323398 
   62800     206.5026    339.17322    131219.07   -41735.966    2569.2849   -44305.251    45.600697   0.95179372 
   62900    203.35237    452.66194    131178.83   -41688.513      2530.09   -44218.603    45.652653   0.95208569 
   63000      207.637    445.31117    131326.51   -41648.303     2583.399   -44231.702    45.564993    0.9510151 
   63100    207.51969    376.23845    131211.88   -41641.577    2581.9395   -44223.516    45.695959   0.95184589 
   63200    207.65388     376.4767    131315.43   -41678.269     2583.609   -44261.878    45.586018   0.95109535 
   63300    204.11895    351.84357    131132.17   -41714.361    2539.6279   -44253.989    45.544117   0.95242447 
   63400    204.39952    431.50083    131163.58   -41643.332    2543.1186    -44186.45    45.673582   0.95219643 
   63500    202.70287    317.17169    131106.63   -41733.307    2522.0091   -44255.316    45.690322   0.95261005 
   63600    206.03319    401.35642    131180.16   -41741.292    2563.4446   -44304.736    45.792254   0.95207606 
   63700    206.65608    397.26895    131252.13   -41742.822    2571.1945   -44314.017    46.000151     0.951554 
   63800    202.00563    454.00793    131169.86   -41837.932     2513.334   -44351.266    45.754337    0.9521508 
   63900    201.64924    470.35939    131174.76   -41828.459       2508.9   -44337.359     45.83681   0.95211526 
   64000    202.31338    356.14825    131269.52   -41818.428    2517.1631   -44335.592    45.730145   0.95142799 
   64100     204.9983    199.95773    131175.67   -41740.179    2550.5686   -44290.748    45.738824   0.95210866 
   64200    204.70354    438.51852    131355.23   -41734.819    2546.9012    -44281.72    45.722927   0.95080713 
   64300    208.66375    460.89662    131400.52   -41661.706    2596.1738    -44257.88    45.990189   0.95047943 
   64400    207.31899    402.25191    131389.68   -41692.443    2579.4423   -44271.886    46.117606   0.95055782 
   64500    208.73041    436.55476    131452.67   -41690.952    2597.0032   -44287.955    46.089882   0.95010239 
   64600     205.3486    413.72655    131334.12   -41737.723    2554.9269    -44292.65    46.057036   0.95095996 
   64700    202.93601    353.22824    131267.39    -41756.26    2524.9098    -44281.17    45.931417    0.9514434 
   64800    202.95346    359.60334    131319.44    -41766.39    2525.1269   -44291.517    46.130574   0.95106628 
   64900    201.16825     470.4342    131401.36   -41755.298    2502.9154   -44258.213    46.144525   0.95047336 
   65000     207.1961    507.43394    131369.76   -41721.543    2577.9134   -44299.456    46.096291   0.95070197 
   65100    206.08664    395.64815    131311.81   -41741.385    2564.1096   -44305.495    46.132265   0.95112152 
   65200    207.55174    458.99803    131538.77    -41731.76    2582.3383   -44314.099    46.382371   0.94948046 
   65300    207.91738     453.1001    131489.39   -41730.705    2586.8875   -44317.592    46.332389   0.94983706 
   65400    204.37787    335.02785    131654.62   -41675.954    2542.8493   -44218.803      46.1847   0.94864497 
   65500    205.29731     487.8567    131509.48   -41743.923    2554.2889   -44298.212    46.313873    0.9496919 
   65600     204.9906    414.40658    131674.93   -41780.627    2550.4728     -44331.1    46.497244   0.94849866 
   65700    205.67295    500.32332    131711.96   -41832.259    2558.9625   -44391.221    46.528363     0.948232 
   65800    202.73445     413.6973    131710.85   -41839.077     2522.402   -44361.479    46.398713   0.94823996 
   65900    203.23775    430.77888    131669.45   -41812.743    2528.6639   -44341.407    46.582678   0.94853814 
   66000    208.88127    252.32506    131781.73   -41733.356    2598.8801   -44332.236    46.567806   0.94772993 
   66100    205.75043    444.01512    131751.71   -41684.527    2559.9265   -44244.454     46.36429   0.94794592 
   66200    208.58063    307.59334    131561.64   -41670.291    2595.1396   -44265.431    46.382469   0.94931539 
   66300    204.29934    339.84329    131598.55    -41705.63    2541.8722   -44247.502    46.511262   0.94904914 
   66400    211.31151     408.2366    131560.85   -41741.915    2629.1169   -44371.032    46.590884   0.94932113 
   66500    203.48439    417.46288    131602.45   -41767.387    2531.7326    -44299.12    46.576241   0.94902102 
   66600    205.12377    391.14651    131647.64   -41788.509    2552.1297   -44340.639    46.647647   0.94869523 
   66700    205.72583    400.37794    131717.44   -41817.455    2559.6205   -44377.075    46.554817   0.94819249 
   66800    205.17715    419.56404    131704.26   -41765.042    2552.7939   -44317.836    46.485565   0.94828742 
[...]
   84600      204.702    389.36928    132565.37   -42047.941     2546.882   -44594.823    50.855722   0.94212758 
   84700    200.54508    421.04553    132462.33   -42071.595     2495.162   -44566.757    50.889538   0.94286043 
   84800    201.81174    446.19297    132344.52   -42034.595    2510.9218   -44545.517     50.94828   0.94369976 
   84900    205.15274    222.63341     132325.9   -42015.918    2552.4901   -44568.408    50.929884   0.94383256 
   85000    203.40278    430.85358    132300.64   -41975.523    2530.7173   -44506.241     50.86647   0.94401276 
   85100    207.73866    517.44604    132350.76   -41973.891    2584.6639   -44558.555    50.831804   0.94365529 
   85200    203.83931    377.95463    132486.04   -41984.531    2536.1486    -44520.68    50.840185   0.94269174 
   85300    201.88106    373.06285    132545.54   -42030.314    2511.7842   -44542.099      50.7638   0.94226854 
   85400    205.67136     479.1597    132332.27   -42015.858    2558.9428   -44574.801    50.598412   0.94378714 
   85500    203.38469    394.23441    132348.87   -41989.221    2530.4922   -44519.713    50.685562    0.9436687 
   85600    205.28605    340.88826    132277.32   -41962.856    2554.1487   -44517.004    50.656694   0.94417918 
   85700    202.12451     414.5888    132432.21   -42004.648    2514.8131   -44519.462    50.829073   0.94307489 
   85800    203.59159    409.16804    132536.66   -42007.536    2533.0664   -44540.602    50.914856   0.94233168 
   85900    204.38572    372.18763    132656.23   -41918.187    2542.9469   -44461.134    51.046224    0.9414823 
   86000    209.66403      534.661    132718.19   -41981.501    2608.6191    -44590.12    51.127685   0.94104278 
   86100    207.41517    410.28441    132762.81   -41981.819     2580.639   -44562.458    51.209491   0.94072648 
   86200    206.49012    370.31499    132678.81   -41952.108    2569.1297   -44521.238    51.166234   0.94132206 
   86300    203.03386    354.78794    132631.95   -41985.527    2526.1272   -44511.654    51.081981   0.94165462 
   86400    205.86847    422.24984    132644.34   -42005.898    2561.3951   -44567.294    51.188844   0.94156669 
   86500    204.75205    425.66943    132714.09   -41994.009    2547.5048   -44541.514    51.297897   0.94107181 
   86600    204.12099    409.75898    132732.52   -41937.982    2539.6532   -44477.635    51.241648   0.94094117 
   86700    206.56925    469.28268    132691.25    -41925.47    2570.1142   -44495.584    51.283471    0.9412338 
   86800    206.63044    303.12292    132701.41   -42004.847    2570.8755   -44575.722    51.155898   0.94116176 
   86900    205.67286     364.7812    132674.86   -41976.102    2558.9614   -44535.064    51.204591    0.9413501 
   87000    205.84078    397.58733    132751.31   -41977.834    2561.0506   -44538.885    51.264953   0.94080797 
   87100    204.55794    420.58143    132768.61   -42009.862    2545.0897   -44554.952    51.162783   0.94068542 
   87200    206.79157    399.83171    132748.68   -42000.802    2572.8802   -44573.682    51.208073    0.9408266 
   87300    205.77745    433.22238    132757.31   -42013.544    2560.2626   -44573.807    51.239684   0.94076545 
   87400    209.50559    375.72112     132663.1    -42018.23    2606.6479   -44624.878    51.377803   0.94143353 
   87500     204.6333    455.18681    132607.35   -42030.388    2546.0273   -44576.415    51.414717   0.94182936 
   87600    201.93373    347.27325    132550.03   -42047.383    2512.4395   -44559.822     51.40259   0.94223662 
   87700    207.11497    544.50998    132474.13   -42047.534     2576.904   -44624.438    51.185643   0.94277648 
   87800    203.58374    242.24535    132638.28   -42024.162    2532.9688    -44557.13    51.239359   0.94160968 
   87900    203.60534    334.01194    132612.21   -42038.078    2533.2375   -44571.316    51.046742   0.94179478 
   88000    204.37705    481.09732    132481.64   -42061.169    2542.8391   -44604.008    51.160334   0.94272302 
   88100    203.66047    389.14197    132526.79   -41999.787    2533.9234   -44533.711    51.204356   0.94240183 
   88200    207.20644    446.63236    132650.09    -41972.64    2578.0421   -44550.682    51.468899   0.94152584 
   88300    204.97707     539.3108    132644.18    -42007.61    2550.3045   -44557.914    51.492789   0.94156781 
   88400    203.11062    517.56673    132744.55   -42110.221    2527.0823   -44637.303    51.366014   0.94085585 
   88500    205.80512    452.90302    132612.57   -42015.799    2560.6069   -44576.406    51.374117   0.94179227 
   88600    204.91267    388.60445     132664.6   -41978.448    2549.5032   -44527.951      51.3638   0.94142291 
   88700    204.41378    354.37254    132623.21    -41958.94     2543.296   -44502.236    51.278014   0.94171668 
   88800    208.24956    469.53843    132636.52   -41898.186    2591.0205   -44489.206    51.440123   0.94162217 
   88900    211.16173    585.62213     132674.2   -41945.082    2627.2534   -44572.336     51.67747   0.94135478 
   89000    208.26567    479.18698    132752.02    -41928.15    2591.2208   -44519.371    51.545387   0.94080293 
   89100    202.92046    391.36914    132663.99   -42021.278    2524.7163   -44545.994    51.472907    0.9414272 
   89200    203.87102    352.52562    132563.26   -42047.923    2536.5431   -44584.466    51.231873   0.94214261 
   89300    200.40282    330.89419    132620.03   -42057.214    2493.3921   -44550.607    51.444656   0.94173928 
   89400       199.17    362.86509    132544.48   -42078.725    2478.0535   -44556.778    51.296693   0.94227604 
   89500    198.65105    253.91773    132478.77   -42115.195    2471.5967   -44586.792    51.380382   0.94274345 
   89600    199.89708    338.17116    132375.96   -42155.251    2487.0997   -44642.351    51.394077   0.94347562 
   89700    198.35195    422.83432    132223.51   -42110.735    2467.8753    -44578.61    51.482883   0.94456341 
   89800    197.90954    428.81577    132447.17   -42078.926    2462.3709   -44541.297     51.65303   0.94296837 
   89900    199.43166    381.22043    132496.46   -42135.044     2481.309   -44616.353     51.54886   0.94261759 
   90000    201.87057    329.25702    132432.44   -42053.342    2511.6537   -44564.996    51.526881   0.94307323 
   90100    201.78515    422.80566    132528.94    -42053.79    2510.5909   -44564.381    51.517969   0.94238658 
   90200    205.17559    415.80297    132536.74   -42086.437    2552.7744   -44639.211    51.504196   0.94233111 
   90300    201.09876    452.43765    132625.11   -42093.055    2502.0509   -44595.106    51.532038   0.94170324 
   90400    200.16916    346.46715    132547.25   -42084.574    2490.4849   -44575.059    51.397538   0.94225639 
   90500    201.67283    363.94456    132622.36    -42058.65    2509.1934   -44567.843    51.400404   0.94172272 
   90600    208.20796    366.79567    132644.98   -41976.343    2590.5028   -44566.846    51.538726   0.94156211 
   90700     208.5534    459.53428    132831.11   -41984.566    2594.8008   -44579.367    51.856833   0.94024278 
   90800    209.78195    477.11189     132615.3   -42021.613    2610.0862     -44631.7    51.664161   0.94177284 
   90900    201.37786    331.47797    132669.14   -42112.951    2505.5234   -44618.475    51.608296   0.94139071 
   91000    206.94342    379.25432    132652.82   -42132.621    2574.7695    -44707.39    51.672919   0.94150648 
   91100    203.78392    260.42749    132780.18   -42117.874    2535.4593   -44653.333     51.61061   0.94060341 
   91200       204.22    420.65162     132811.1   -42083.729     2540.885   -44624.615    51.745842   0.94038441 
   91300    202.98333    366.76407    132776.19   -41995.216    2525.4985   -44520.714    51.846863   0.94063166 
   91400    205.64407    363.01475    132665.35   -41977.317    2558.6032    -44535.92    51.623517    0.9414176 
   91500     208.8521    466.80291    132664.25   -41985.148    2598.5172   -44583.665    51.674939   0.94142535 
   91600    210.12567    418.58375    132805.31   -42025.561    2614.3628   -44639.924    51.637171   0.94042543 
   91700    205.64988    473.59931     132740.9   -42091.967    2558.6755   -44650.642    51.619132   0.94088174 
   91800    205.66804    285.59787    132869.07   -42067.873    2558.9014   -44626.774    51.670773   0.93997418 
   91900    204.63309    208.06038    132934.21   -42080.991    2546.0247   -44627.015    51.803416   0.93951358 
   92000    205.41991    407.47304    132848.73    -42087.58    2555.8142   -44643.394    52.018003   0.94011805 
   92100    201.01047    338.25035     132757.3   -42134.142    2500.9524   -44635.095    51.797771   0.94076552 
   92200    204.48215    402.08615    132742.83   -42071.344    2544.1467    -44615.49    51.774415   0.94086809 
   92300     204.6689    424.16673    132652.79    -41997.24    2546.4703    -44543.71     51.88695   0.94150667 
   92400    208.75791    518.91962     132746.7    -41999.71    2597.3453   -44597.055    51.866499   0.94084067 
   92500    204.79722    338.34126    132729.72   -42047.946    2548.0668   -44596.013    51.839151   0.94096099 
   92600    206.14644    335.87457    132739.44   -42018.982    2564.8536   -44583.836    51.808535   0.94089209 
   92700    206.24693    441.96484    132774.86   -42008.191     2566.104   -44574.295    51.742219   0.94064111 
   92800    206.21544     446.6158     132771.6   -42054.707    2565.7121   -44620.419    51.756187   0.94066424 
   92900    205.91006    444.46498    132790.71   -42035.292    2561.9126   -44597.205     51.65957   0.94052886 
   93000    205.12464    316.11251    132898.51   -42070.899    2552.1404   -44623.039    51.825852   0.93976592 
   93100    202.14061     370.8689     132925.6   -42014.983    2515.0135   -44529.997    51.762904   0.93957439 
   93200    204.94332    379.55778    132809.57   -42028.811    2549.8845   -44578.696    51.777537   0.94039529 
   93300    205.09334    417.45605     132792.3   -42053.094     2551.751   -44604.845    51.854319   0.94051759 
   93400     203.5805    508.13338    132669.22   -42085.528    2532.9284   -44618.457    51.887471    0.9413901 
   93500    202.15115    422.85422    132888.34   -42129.452    2515.1447   -44644.597     51.87693   0.93983785 
   93600    198.73711    372.78636    132801.69   -42192.951    2472.6675   -44665.618    51.588215   0.94045106 
   93700    202.22099    434.60836    132751.05   -42157.803    2516.0135   -44673.816    51.588005   0.94080985 
   93800    203.75116    425.60328    132779.49   -42123.124    2535.0518   -44658.176    51.542896   0.94060829 
   93900    203.53421    421.79917    132753.56   -42101.338    2532.3526   -44633.691    51.611021     0.940792 
   94000    203.93078    381.53036    132859.28   -42110.377    2537.2866   -44647.663    51.619516    0.9400434 
   94100    204.30458    417.49424    133025.32   -42114.825    2541.9374   -44656.762    51.845881   0.93887008 
   94200    204.21173    389.72601     132973.5   -42108.045    2540.7821   -44648.827    51.899938   0.93923597 
   94300    204.83687    252.96267    132847.04   -42062.805    2548.5601   -44611.365    51.756594   0.94013002 
   94400     207.9452    340.58418    132908.57   -42047.209    2587.2336   -44634.443    51.796831   0.93969481 
   94500     209.2697     453.2364    132792.55   -41992.676     2603.713   -44596.389     51.77156   0.94051579 
   94600    209.54937    459.49636    132828.05   -42035.965    2607.1925   -44643.158     51.69832   0.94026441 
   94700    206.51185    297.56809    132708.95   -42085.791       2569.4   -44655.191    51.848674   0.94110827 
   94800    203.71215    463.52748     132708.8   -42075.712    2534.5664   -44610.278     51.73582   0.94110933 
   94900    204.13251    500.45642    132662.75   -42040.533    2539.7965    -44580.33     51.58827   0.94143599 
   95000    206.45291    424.01261    132706.93   -42030.971    2568.6667   -44599.638    51.747474   0.94112261 
   95100    206.87677    523.93813    132744.94    -42024.31    2573.9404    -44598.25    51.882395   0.94085314 
   95200    200.01278    377.66831    132747.91   -42046.098    2488.5393   -44534.638    51.753174   0.94083207 
   95300    211.28048    389.86026     132759.7   -41961.438    2628.7308   -44590.168    51.909544   0.94074853 
   95400    204.49888    342.01737    132676.48   -42017.335    2544.3549    -44561.69    51.801029   0.94133858 
   95500    208.83213     428.7569     132655.2   -42032.971    2598.2687   -44631.239    51.949716   0.94148957 
   95600    208.73276    417.16327    132814.95   -42034.247    2597.0324   -44631.279    52.162739   0.94035715 
   95700    204.24376    287.74239    132705.62   -42094.007    2541.1806   -44635.188    51.859405   0.94113189 
   95800    204.52623    464.46723    132672.86   -42143.443    2544.6952   -44688.138    51.878809   0.94136425 
   95900    207.43868    434.68989    132821.56   -42090.367    2580.9315   -44671.299    51.766182   0.94031041 
   96000    201.04056    445.30338    132772.85   -42162.301    2501.3267   -44663.628    51.995529   0.94065538 
   96100    205.62556    280.77836    132879.86   -42113.556    2558.3729   -44671.929    52.076782   0.93989785 
   96200     199.7465    401.13652    132867.32   -42146.255    2485.2262   -44631.481    52.125226   0.93998651 
   96300    204.92474    475.72332    132742.73   -42084.314    2549.6534   -44633.967    51.895542   0.94086881 
   96400     206.6464    419.27908    132880.88   -42069.869     2571.074   -44640.943    51.839833   0.93989064 
   96500    201.49453    404.97799    132698.02    -42109.28     2506.975   -44616.255    51.955078   0.94118576 
   96600    207.72228    443.59496    132880.09   -42098.839    2584.4601   -44683.299    52.014549   0.93989619 
   96700    202.47158    300.87771    132883.55   -42171.473    2519.1314   -44690.604    52.011605   0.93987174 
   96800    199.92377    365.05009    132803.15   -42218.637    2487.4318   -44706.069    51.888238   0.94044073 
   96900    200.75973    384.29066     132864.4   -42157.742    2497.8327   -44655.575    51.965917   0.94000721 
   97000    202.86277    282.31895     132749.8   -42155.941    2523.9986   -44679.939     52.13299   0.94081867 
   97100    199.52181    359.46481    132666.73   -42142.756    2482.4306   -44625.187    52.071205   0.94140778 
   97200     202.4072    393.87237    132683.95   -42146.958    2518.3304   -44665.288    52.153605   0.94128562 
   97300    201.75892    453.27388    132717.98   -42133.794    2510.2645   -44644.059    52.073522   0.94104422 
   97400    200.78498    496.31112    132627.49   -42133.604    2498.1469   -44631.751    51.971394   0.94168631 
   97500    203.80811    394.65157    132686.14   -42049.331    2535.7603   -44585.091    52.141635   0.94127005 
   97600    207.98399     360.2745     132730.4   -42110.858    2587.7163   -44698.575    52.172215   0.94095618 
   97700    203.57856    377.58604     132860.2    -42044.57    2532.9044   -44577.474    52.151225    0.9400369 
   97800    205.97843    250.19664    132825.78   -42016.652    2562.7633   -44579.415    51.970892   0.94028051 
   97900    205.56439    458.04652    132861.75   -41979.285    2557.6118   -44536.896    52.067729   0.94002595 
   98000    206.06022    362.28838     132907.1   -42004.288    2563.7809   -44568.069     52.06417   0.93970519 
   98100    205.29359    420.41559    132884.52   -42082.909    2554.2425   -44637.151    52.193015   0.93986486 
   98200    209.52527    431.05836    132976.38    -42061.34    2606.8927   -44668.233    52.354895   0.93921559 
   98300    203.92656    378.06807    132891.71   -42082.828    2537.2341   -44620.062    52.221041   0.93981401 
   98400    202.74107    498.05437    132911.97   -42089.843    2522.4844   -44612.328    52.153097   0.93967077 
   98500     204.1509    422.67531    132753.38   -42086.799    2540.0253   -44626.824     52.15568   0.94079328 
   98600    206.49653    493.98079    132862.92   -42112.695    2569.2094   -44681.904    52.082309   0.94001769 
   98700    200.06261    437.89931    132884.34   -42162.686    2489.1593   -44651.845    52.220331   0.93986613 
   98800    204.36461    313.56584    132739.99   -42134.962    2542.6843   -44677.646    52.292884   0.94088819 
   98900    202.03036    427.03029    132758.52    -42139.04    2513.6417   -44652.682    52.265872   0.94075691 
   99000    199.13096    311.09843       132818    -42182.91    2477.5678   -44660.478    52.125612    0.9403356 
   99100    204.17688    393.47169    132928.93   -42103.869    2540.3486   -44644.218    52.177759   0.93955086 
   99200    200.71252    377.13214    132825.86   -42093.393    2497.2453   -44590.639     52.15811   0.94027991 
   99300     205.0544     335.9504    132821.34    -42048.69    2551.2666   -44599.957    52.308182   0.94031194 
   99400    204.26157    357.43097    132787.24   -42016.861    2541.4022   -44558.263    52.466312   0.94055337 
   99500    208.81485    449.52219     132882.5   -41897.729    2598.0537   -44495.783    52.501141   0.93987912 
   99600     209.6262    524.92247    132875.14   -41921.185    2608.1485   -44529.333    52.196242   0.93993119 
   99700     207.7908    449.49101    132983.58   -41927.842    2585.3126   -44513.155    52.140517   0.93916473 
   99800    206.87961    462.36373    132892.02   -41958.922    2573.9757   -44532.897    52.057678   0.93981183 
   99900    207.07109    459.28472    132982.87   -42014.814    2576.3581   -44591.172    52.055299   0.93916979 
  100000    207.11238    350.31959    132921.03   -42024.046    2576.8717   -44600.918    52.226845   0.93960668 
  100100    206.75751    356.41519    133101.82   -41957.014    2572.4565    -44529.47    52.304288   0.93833044 
  100200    206.22149    337.09113    132917.67   -41962.992    2565.7874   -44528.779    52.302085   0.93963049 
  100300    209.59999    397.02643    132937.23   -41947.281    2607.8224   -44555.103    52.413554   0.93949224 
  100400    205.45885    409.89759    132973.77    -41982.36    2556.2987   -44538.658    52.273362   0.93923407 
  100500    211.55189    500.84207    133028.11   -41913.458    2632.1077   -44545.566    52.324161   0.93885039 
  100600    202.77992    477.19333    133016.69   -41996.054    2522.9677   -44519.021    52.435505   0.93893098 
  100630    207.43353    360.44339    132969.52   -41981.633    2580.8675   -44562.501    52.414007   0.93926406 
Loop time of 77.0886 on 6 procs for 100000 steps with 4175 atoms

Performance: 560.394 ns/day, 0.043 hours/ns, 1297.209 timesteps/s
98.4% CPU use with 6 MPI tasks x no OpenMP threads

MPI task timing breakdown:
Section |  min time  |  avg time  |  max time  |%varavg| %total
---------------------------------------------------------------
Pair    | 60.422     | 62.987     | 64.867     |  16.7 | 81.71
Neigh   | 4.6927     | 4.7397     | 4.7584     |   1.0 |  6.15
Comm    | 4.8977     | 6.8072     | 9.4132     |  51.6 |  8.83
Output  | 0.1596     | 0.16044    | 0.16423    |   0.4 |  0.21
Modify  | 1.7415     | 1.768      | 1.7882     |   1.2 |  2.29
Other   |            | 0.6265     |            |       |  0.81

Nlocal:        695.833 ave         705 max         683 min
Histogram: 2 0 0 0 0 0 1 0 1 2
Nghost:        1465.33 ave        1503 max        1425 min
Histogram: 1 0 0 1 0 2 1 0 0 1
Neighs:        0.00000 ave           0 max           0 min
Histogram: 6 0 0 0 0 0 0 0 0 0
FullNghs:      19103.7 ave       19356 max       18784 min
Histogram: 2 0 0 0 0 0 0 2 1 1

Total # of neighbors = 114622
Ave neighs/atom = 27.454371
Neighbor list builds = 5087
Dangerous builds = 0

undump              1
unfix               2
unfix               3
unfix               4


################################################
#######         Run Simulation         #########
################################################

reset_timestep      0
log                 log.run_${NAME}
log                 log.run_liquid_density_MLmW
