LAMMPS data file via write_data, version 29 Oct 2020, timestep = 800000

4175 atoms
1 atom types

-0.6113780342580277 50.61137803425484 xlo xhi
-0.6113780342580277 50.61137803425484 ylo yhi
-0.6113780342580277 50.61137803425484 zlo zhi

Masses

1 18.015

Atoms # atomic

2159 1 33.59619457449922 20.42120778324223 -0.3159038392385654 0 0 0
1068 1 2.77229614966452 1.8174870630310145 2.7168783856318646 0 0 0
142 1 49.49561703434664 23.016178919298813 13.108533690753003 -1 0 0
492 1 46.05947023892752 12.282227596427438 -0.5185841618318234 -1 0 0
15 1 37.30312015640307 13.655603928042042 -0.5244313624732345 0 0 0
1525 1 25.87387378678226 24.327431712532114 7.617249561492148 0 0 1
4083 1 15.97996146737334 1.298504607385292 1.143474240566134 0 0 1
9 1 28.648377677133 1.9147919349855202 -0.47496086242620794 0 0 0
2619 1 18.47206719460409 0.36253755230936424 2.050440484685099 0 0 0
406 1 21.060116023623745 1.0666269441432303 2.7874231002540446 0 0 0
225 1 10.877420343927433 14.202897103008082 -0.20466688539155914 0 0 0
2797 1 47.45032324380651 0.04380207595354402 4.791154831654365 0 1 0
180 1 32.19073401917831 0.9502484374389755 1.237280035281982 0 0 0
1250 1 38.54725785478159 2.043416698911133 1.2409708802091852 -1 0 1
504 1 41.0446165219941 0.9274608239370592 1.5097892304492362 0 0 0
3453 1 46.68347206809865 0.9780702690964584 2.1576179551346053 -1 1 1
237 1 -0.5834564206428553 0.9658561406362312 2.1248777244550627 1 0 0
3277 1 48.703720435106476 1.607633263913895 0.15718931548846893 -1 1 1
1831 1 1.4856247592085867 24.165775023695403 7.2508277040287235 1 0 1
1700 1 5.4618559525974195 3.3462555049295895 0.387550943829021 0 0 1
2333 1 0.26826586635965266 4.962140012060678 -0.5762478571779827 1 1 0
100 1 8.012510633669432 6.202112658971951 1.8181471053178728 0 0 0
1045 1 10.22739954921692 1.7372053313640161 0.43399673755935475 0 0 0
3661 1 13.644080189768518 4.913755346149065 -0.0409867418871408 0 1 1
2133 1 49.774776853569776 -0.4094758774247036 8.444846676970851 0 1 0
3892 1 15.1056933751914 3.6133808432776293 1.8002810284293465 0 1 1
920 1 29.109115249606482 12.487389560167973 16.082379349198195 0 0 0
27 1 22.268052580340388 0.46616311308551595 0.1119620264262019 0 0 0
4120 1 24.74189253823452 2.612728302437765 1.705693299081633 0 1 1
3597 1 24.59940656691346 6.534940482074536 2.2704011307499004 0 1 1
696 1 28.98396502944708 4.989659739605758 0.778484315372771 0 0 0
1184 1 27.33571110383168 2.9738017019616922 2.0168062172161942 0 0 1
933 1 34.50734230915053 2.1499779587344947 -0.3807554136030005 -1 0 1
2842 1 34.760663922191824 4.908117950732587 0.789027827052023 0 1 0
602 1 38.744594390251194 4.767814224545943 0.995761142360571 -1 0 0
2721 1 18.982016112550905 2.239077485684569 -0.43420077703051985 0 0 0
2038 1 41.21737447962289 5.571399320398768 -0.012876992709091928 0 0 1
1840 1 44.94630833827166 3.2837732669497965 2.393126153102984 0 0 1
343 1 0.4979596615663151 5.760425662246041 2.312347905218407 0 0 0
472 1 4.029526002978482 8.881405630756156 2.802805856274922 1 0 0
1996 1 6.901262846967287 8.45816002075068 2.585766667642813 0 0 1
4046 1 10.232458944985368 5.5974136825473195 2.907928737368206 0 1 1
298 1 11.89107377174211 6.736810690588653 0.8405878999731773 0 0 0
1745 1 20.087949907210515 4.813749566873888 1.075860857048214 0 0 1
2557 1 19.199224985144692 7.446842922704581 0.4070298547226021 0 0 0
804 1 32.11676757626003 -0.0036446865980126475 10.0490262352836 1 0 0
2312 1 27.07045970675186 6.909295656900535 1.6784568340090908 0 1 0
1279 1 31.181450583656556 5.660786944626542 2.0270451282440383 0 0 0
350 1 43.54910172040374 6.023585934940652 1.7531303327606143 -1 0 0
394 1 45.04350829391524 8.510740702172235 1.598366934198964 0 0 0
2642 1 47.61058151256326 7.218943076014471 1.7742397492630575 -1 1 1
3605 1 50.14725627585871 8.110471740703527 2.220672902614135 0 1 1
3546 1 0.23972483071332773 11.466721048692943 2.4938748531939336 0 1 1
3327 1 36.21976165603927 9.654656797190128 16.110947115400013 0 1 0
1509 1 32.6684174096047 23.634291653477565 2.277465768921083 0 0 1
2771 1 8.351697693472563 10.176123144144569 0.5861919336189152 0 0 0
1784 1 10.2258977386208 12.236201720380228 1.4663131266246858 0 0 1
1886 1 13.72858581445486 8.938471960953065 1.8087170514099329 0 0 1
3965 1 15.06154739014554 9.61496474007125 -0.6087576559900532 1 1 1
2571 1 21.575891075448972 8.995148535030479 0.7117889975951921 0 0 0
2706 1 4.340603844787792 -0.5009608525075905 1.5283404751263099 0 1 0
1620 1 26.8884303120283 10.854174304740356 0.5493979685571715 0 0 1
2760 1 29.116933778348947 10.318363796156836 2.193602780639729 0 0 0
375 1 6.513996024259162 15.597087531757424 0.15435365646795363 0 0 0
1634 1 49.98890305228271 0.1472189094113252 15.786363578807268 0 0 0
1294 1 34.06828036023332 11.26733669928633 2.036879115079517 0 0 0
1820 1 38.02133796689402 9.15959662261854 0.7549355130483444 0 0 1
312 1 36.76105644291249 11.753490451602746 1.4980948083547112 0 0 0
2132 1 29.71826212135069 -0.1564044772565923 1.2978019190844612 0 1 0
678 1 41.99094420615897 11.444175824877332 2.0916639419001277 0 0 0
638 1 44.97127023474721 11.33870008505167 1.7823730415648749 0 0 0
3573 1 32.59007512861395 6.437766463424691 -0.3034911069454799 0 1 1
977 1 50.60037906353436 9.711037745144491 -0.030221329937210717 -1 0 0
529 1 48.86175320030611 11.972754177416466 -0.041890649192048546 0 0 0
2079 1 1.8997747003865681 13.328709247418319 1.301716748135052 1 0 1
1270 1 5.90926248948802 13.490457546104397 1.6994900300260913 1 0 1
2767 1 8.391719846209812 13.392667307929779 3.0739192995476357 0 1 0
4054 1 13.248848617246034 15.140352561068866 1.2736996460103087 0 0 1
269 1 16.399179785938713 12.202696605112617 0.7912212810413148 0 0 0
1732 1 18.615386109347664 10.806024669823378 2.122648869907465 0 0 1
1069 1 20.357936019451156 14.47549927540808 2.3906062536824657 0 0 1
554 1 24.714751533554548 12.537017832374058 1.0666926652581972 0 0 0
2174 1 25.27821364022415 15.010619201237946 2.032729725378437 0 1 0
1872 1 28.26046815083888 14.885187497513611 2.128406426471434 0 0 1
3521 1 4.207172949864033 9.435758355806813 -0.06744959744761747 0 1 1
85 1 32.866849481812494 13.674773535626604 2.2725760142258187 0 0 0
1387 1 32.72550354370527 10.837409643585426 -0.5684551535925634 0 0 0
84 1 41.332038680803976 14.34097741796976 1.0713243496307305 -1 0 0
4062 1 -0.001429503192024728 15.231521617452845 2.0926522912231054 0 1 1
2499 1 -0.49289748889853224 17.04874630586119 0.10953055452306071 0 1 0
1740 1 2.0937967996502036 18.58158857164039 0.06218474322969603 0 0 1
1096 1 40.44069444422237 10.153276677987272 -0.08117823140714198 0 0 1
947 1 7.057639395166 17.544160778070502 2.0666071827410244 0 0 1
2924 1 11.780750828188548 16.937586537743407 3.079022106973211 0 0 1
1358 1 9.325956203005896 11.259971638935522 16.257947137067788 0 0 0
195 1 17.12048463865445 17.72741072953271 1.1053807773398399 0 0 0
1844 1 18.270947812887016 16.123601525450894 3.3093599983728064 0 0 1
1489 1 24.58146493317617 24.477768531679683 1.2882952782162338 0 0 1
1601 1 22.68358707452087 16.20411453037638 3.3847222093508607 0 0 1
116 1 24.439561607283242 17.43373247639949 1.1459271625736396 0 0 0
1237 1 32.06061225008973 18.217851559500847 0.749376506826805 0 0 0
526 1 33.24724248480749 15.693434056975896 0.5059830730451558 0 0 0
1462 1 36.0159989474878 15.905597527061275 -0.019425919373971534 0 0 1
1142 1 43.6120642118004 15.748315946450049 1.2817022139376002 -1 0 0
1491 1 47.30606178494318 15.828253106235717 2.6738816724084784 0 0 0
2696 1 48.479847510814054 18.20029769020133 1.4498468662312827 -1 0 0
1685 1 2.762604170645826 19.475505345067308 2.5483967099571982 0 0 1
2414 1 8.512897902793954 19.697593047653513 1.3461446116575646 1 0 0
454 1 11.155502297255367 19.046125219818425 1.5709199569218488 0 0 0
2631 1 13.286887438828018 20.601657215152134 2.4385887713074994 0 0 0
690 1 15.438525252889935 18.68288946002316 2.9248516547041334 0 0 0
2702 1 18.234505383704622 20.513736519499265 0.10946508227159424 0 0 0
2897 1 20.742528580569413 19.41992189129708 1.4531861946364204 0 0 0
1303 1 25.88630479778186 19.338233197927707 1.826892597164226 0 0 0
188 1 29.128805016616827 18.999521451974957 1.8361469395194794 0 0 0
3337 1 32.742265933991604 24.693166034102028 9.021945799648188 0 0 0
1067 1 16.141261936965154 15.060334320554494 0.408498914333709 0 0 1
2532 1 35.81029013856384 21.26433283130682 0.9422838001243063 0 1 0
2453 1 37.408600048405816 19.810546614523748 2.5930245138615167 -1 0 0
999 1 39.9886155077138 18.90165089037951 1.7486433574478473 -1 0 0
1455 1 44.237885633660085 18.652008043899926 0.7992675537268905 -1 0 1
478 1 49.78790766334474 20.21006237411117 2.858434771695785 -1 0 0
3042 1 -0.35209645732647216 22.33891205644399 1.3678048538937448 1 1 0
3737 1 4.509140526841976 23.65239062628802 0.18180889696926594 0 0 1
2690 1 3.906174360526024 22.239342845131485 2.5934880217681586 0 0 0
36 1 7.2685473399033285 24.2186514013568 -0.10130934244689871 0 0 0
2789 1 9.282860944967371 23.68917692757849 1.734939340679976 0 0 0
576 1 12.064379652026158 23.730379890721554 1.0657730762334268 0 0 0
2164 1 19.32310622588239 11.492611460631098 15.999489523468018 1 0 0
2137 1 17.331720248400018 22.07612289563238 2.3901636878015684 0 0 0
1751 1 14.791418189980725 22.833472971330483 1.4468662573674282 0 0 1
2461 1 22.509834732707265 21.505695292818206 2.283528472274589 0 0 0
560 1 22.008513293003073 24.122005519963942 0.9223895393109689 0 0 0
1739 1 25.253595799364227 21.976807375673445 0.4059120934130973 0 0 1
2636 1 41.011298911678736 24.593444145112194 14.412422376992945 0 0 0
3561 1 28.08153429482924 23.356798826996023 1.4546933649094336 0 0 1
1471 1 30.19782838825364 21.593314092914444 1.9163431520951804 0 0 1
1528 1 43.68971032582566 1.6160658981631308 0.3375182935919824 0 0 1
1070 1 35.1891754824494 23.66764310261978 1.8417643467546156 -1 0 0
42 1 40.44314551043088 22.752264096100202 0.06525852373476249 0 0 0
397 1 45.97253889427101 22.589146576717777 2.4326269095664124 -1 0 0
238 1 46.97438386437254 23.00135013326834 -0.15557036341180586 -1 0 0
2498 1 49.26230901379763 24.31251480663916 0.10705312309981185 -1 0 0
1210 1 2.0905995957701764 2.142937464004428 5.341660099456604 1 0 0
605 1 34.722759964144345 24.44004762645074 6.736942486594745 0 0 0
2138 1 13.460843994505494 2.481733882101627 3.9906046000526603 0 1 0
314 1 14.231419478760184 3.0367437842317626 6.228612181765373 1 0 0
4047 1 17.887006526291348 0.4817963461917325 5.063772893111671 0 1 1
3028 1 20.52593391097079 0.15469699834307682 6.432158872616571 0 1 0
179 1 24.454647125507478 -0.36870212682330655 6.649853511404923 0 0 0
2560 1 32.458052875735774 2.1395190714762755 3.7864264224836974 0 1 0
385 1 35.01295942375796 2.4994451453289472 4.513663156058151 0 0 0
746 1 37.32139698618904 0.9558669807049052 3.5817819255117884 0 0 1
21 1 39.28201452085641 1.1635486959707255 5.570298307103854 0 0 0
528 1 41.62879068644398 1.339694772527847 4.2393092897994515 -1 1 0
1305 1 43.94421347014769 2.367062421924133 4.960557335089696 0 0 1
3293 1 38.92342131305014 5.896372748105522 15.382877615428418 0 1 0
3724 1 50.574533608462076 2.4512965051046383 4.517927962410689 -1 1 1
4041 1 4.613845806368915 3.9186988694235048 2.8674005175506516 1 1 1
1982 1 8.675931240391739 2.161596134192012 4.735229888027502 0 0 1
952 1 7.30123758391468 3.9510774331048992 3.4773070771994954 0 0 1
471 1 10.90093685829779 2.8517362893006313 3.0286674725604428 0 0 0
240 1 17.204429843732942 4.915135676432288 3.045544159626358 -1 0 0
1856 1 21.56936768336646 3.7812426156768018 3.8459779466873742 0 0 1
3370 1 23.977141385422062 4.276425886466814 3.5913801727894175 0 1 0
1166 1 26.029665828740615 4.79450290965976 5.335854478648991 0 0 0
530 1 28.206207711988338 3.2420077697261243 4.538468420533377 0 0 0
359 1 30.79866443982726 4.302028451964407 4.451715612158678 0 0 0
3007 1 35.26324687619339 5.288939430104699 5.0057052896424725 -1 1 0
18 1 37.88692255134352 5.062443679445582 5.883618359407219 0 0 0
3976 1 43.4048624002143 4.957590160261445 5.585808708191216 0 1 0
3319 1 47.40603961553501 4.988565435912927 3.5154058461079503 0 1 0
3658 1 46.031008951304344 5.781423337520544 5.85306138008649 -1 1 0
671 1 50.239003812183014 4.977107386398847 4.6483135197026675 0 0 0
2119 1 2.5367162180542207 6.703328772834089 5.922036693010982 0 1 0
295 1 2.9208833148549425 6.258441788058475 3.1947710562772826 1 0 0
2201 1 7.320208300168569 8.428656603956176 5.331040744654883 0 1 0
378 1 9.756745702759059 8.975677679925324 6.577389754887712 0 0 0
2155 1 10.627575727468603 6.672794960156981 5.322670831692582 0 1 0
1483 1 14.770000051619816 7.1428381001783015 5.545121481875115 0 0 1
1861 1 15.915480753783434 7.491157655809422 3.0706998739392932 0 0 1
467 1 19.940489239152335 6.1405300008746355 3.967787488907959 0 0 0
563 1 21.188710875025443 7.203217698537962 6.172067845149141 0 0 0
1156 1 23.90286866422825 8.772704306055015 3.5249721328777834 0 0 0
1553 1 26.655706979879724 9.858326146802012 3.6606650768220828 0 0 1
1342 1 30.856824041145245 8.288445280140467 3.120959589223952 0 0 0
2268 1 35.09371693139029 6.939541673108541 3.0489087716131147 0 1 0
56 1 37.77394495343643 7.692646526643214 3.0582351854971415 0 0 0
669 1 39.411350181474546 5.570941496310443 3.752443919197905 0 0 0
2306 1 41.93238910651115 6.6215712736010195 3.785913365808077 0 1 0
87 1 -0.11649384650835948 7.435075820287535 6.347203617237989 0 0 0
3303 1 3.9972041375484313 11.171417432708509 5.026639387142583 0 0 0
3741 1 6.480033696205047 11.16762918038564 5.976516552937281 0 1 1
3694 1 8.690800306720256 12.749799527411033 5.622355108063682 0 1 1
1333 1 11.100435039528314 11.062608039026511 5.52310660346321 0 0 0
3522 1 12.478129812408167 11.369587840479834 2.9318952998596535 0 0 1
386 1 18.366575974613518 8.425980513004871 2.868781793657799 0 0 0
1037 1 22.7271179874058 10.97218992719039 2.4221374810340164 0 0 0
2801 1 23.60409585709503 8.318048376473321 6.121441197972891 0 0 0
3079 1 27.39583128225737 11.669101467981644 5.504865932876535 0 0 0
489 1 30.183468584512767 12.101366321792657 5.601827897917608 0 0 0
255 1 33.708287499574425 9.300100055611507 3.759184911299589 0 0 0
4016 1 37.67202231226014 11.820329786625454 4.206436888748612 -1 0 1
320 1 38.88264929587679 9.495265731831507 4.958711599089959 0 0 0
645 1 41.81474753438992 9.455251788017879 4.322557189128209 0 0 0
1863 1 45.77363659147976 10.554227301342356 6.206437334140053 0 0 1
458 1 49.00496578527738 12.183944208910075 4.583758469429786 -1 0 0
2047 1 3.868947357400618 13.436734644932438 3.52002797214059 0 0 1
123 1 14.301637631770522 13.202596922700273 3.049974149169693 1 0 0
1593 1 16.45961919491612 11.27951584719776 4.1416097875721745 0 0 1
1776 1 17.410988989586382 14.54377776548504 5.633016100787784 1 0 1
104 1 18.690393848131027 12.062308014990037 5.777450514538823 0 0 0
1866 1 20.469772310924597 12.102926660545958 3.7724048615875176 0 0 1
892 1 26.077363666341736 14.01813471749984 5.042733251345681 0 0 0
2745 1 27.80848743511831 15.590864610887209 6.311690544238411 0 0 0
2601 1 30.08866117243876 12.931955780173002 2.811574504359867 0 0 0
43 1 33.94299774449645 14.61633211874727 4.817425918319264 0 0 0
1579 1 35.851983482323845 12.878248702627596 5.931374240002994 -1 0 1
444 1 40.09566716985874 13.301738649330664 3.853283468280071 0 0 0
242 1 41.42702253932045 13.326594808120872 6.2717510401650465 0 0 0
1865 1 46.26431628004019 12.323304583836912 3.9581495528162334 0 0 1
2755 1 44.89855874007283 14.814172724664191 3.7224024302305603 -1 0 0
2731 1 48.80117955604908 13.720031583909913 2.1180103844988447 0 0 0
2260 1 -0.20951163226852265 16.157339250144034 4.547598123847046 0 0 0
1672 1 4.708733620202327 17.90244626743448 3.7001633049370852 0 0 1
616 1 3.9096677862529354 15.543460632683193 5.403784544846553 0 0 0
3229 1 9.1657578312279 16.258208354131384 3.71257642831383 0 0 0
4068 1 8.899626116916053 16.642145926438737 6.302882912041879 0 0 1
1692 1 14.696836804396032 14.51075820533471 5.396300515093453 0 0 1
437 1 13.913131484690425 17.077834736852207 4.742511268406107 0 0 0
594 1 23.183477932874307 13.672419798079105 4.3466431983973735 0 0 0
1807 1 28.210439900814116 17.154322416927343 3.570198743849339 0 0 1
2883 1 30.344846478120825 18.046215788628952 5.210907049911144 0 0 0
979 1 34.59818664423071 17.180611203397103 3.896134257364487 0 0 0
1778 1 32.50311253457353 19.068020826094575 3.5179297754939842 -1 0 0
2564 1 36.74523082194196 17.069639082911486 2.295526849231212 -1 1 0
1415 1 38.66825407286758 15.958328434920087 3.875321091170939 0 0 1
2385 1 41.015854043376436 16.745029075038225 3.0091120607802884 -1 1 0
3536 1 43.2022138709534 15.348858494725084 5.9671629720142345 0 0 1
519 1 42.05693240714561 17.725436964198547 5.522621496126613 0 0 0
672 1 48.45294316126453 16.56776944800516 5.127548305714392 -1 0 0
2032 1 0.4035367079476997 18.876523294363775 4.284316382240861 0 0 1
3081 1 5.276279253739487 19.53620477163682 5.855495181481145 0 0 1
171 1 9.561758115897431 21.58271915715731 5.68367252135684 0 0 0
3246 1 12.143226332867249 21.218219859665844 5.0300017419417085 1 0 0
1410 1 17.13227598673749 20.065494742779588 4.314172766481777 0 0 1
3174 1 16.48158813919373 21.392919754808418 6.826037886729033 0 0 0
3162 1 19.202115258955484 18.76810158822296 3.8566887577309403 1 0 1
606 1 26.870746238540185 19.594877635395445 4.587594793564299 0 0 0
593 1 27.436638751404026 22.12082937611477 4.004732969982217 0 0 0
930 1 29.837068655365027 22.374775035988225 5.395872633807474 0 0 0
1921 1 32.411367815818096 21.55341409021627 4.343673771391289 0 0 1
766 1 37.63649382686998 20.76601352608935 5.364113864661191 0 0 0
1576 1 41.262280673412064 21.49102450290198 2.3422855062214576 0 0 1
339 1 43.9364924274561 20.656964325289756 2.6499233917512584 0 0 0
1750 1 43.88134972360592 20.044189781174765 5.652361458935253 0 0 1
733 1 47.28558415584084 19.190386935243495 5.849208123107178 0 0 0
3680 1 47.82359486851348 21.49722340037933 4.424371613182369 0 0 1
1272 1 1.3288750654530093 22.915579709144865 3.420285322938005 0 0 1
661 1 0.4856543599904324 22.474801686050466 5.81371238795485 1 0 0
3053 1 5.624215986459949 21.933419937782716 4.466253914777927 1 0 0
628 1 8.20406764597084 21.70406732183316 3.1932546077511508 0 0 0
3860 1 13.19952909427378 23.829402028366804 5.284269800890056 1 0 1
1707 1 19.953578985473793 23.91856968386273 3.4081061323578563 0 -1 1
793 1 20.70301432218179 23.009379182422016 5.8180566787637 0 0 0
668 1 23.40359445444173 22.25621519116324 4.881461535173293 0 0 0
3272 1 25.454845017142077 23.89038612958395 4.89701213866469 0 0 0
2909 1 34.91576052533351 21.861485838939018 5.953368140976166 0 0 0
201 1 40.262495501125585 22.20586836789938 5.285125954494076 0 0 0
599 1 6.686988332989777 0.9332782521744754 -0.0038811860235435924 0 0 0
2830 1 48.92894437307312 23.436979161605482 6.01921212588239 -1 0 0
775 1 25.434602344182995 1.0361092048438172 14.878268840662964 0 0 0
1800 1 2.4644479791926877 -0.16743032440185934 6.627495471074278 0 0 1
2770 1 5.205431688663044 -0.5868003202612996 7.184931348196642 0 1 0
92 1 6.486583899768588 1.8806091395386946 8.215395947208329 0 0 0
1107 1 9.30947887971632 2.126004341819956 7.5621171411607815 1 0 0
2353 1 11.002110247413928 0.3596960231445382 8.705363782027918 0 1 0
3613 1 13.593787139778492 1.3363087089846692 8.580359264547859 0 1 1
1833 1 33.66013108193917 5.971599520563337 16.05651109833371 0 0 1
2288 1 17.066204047277736 3.0557393976902025 5.657332632777349 0 1 0
1811 1 21.84844669942423 17.588969282754412 -0.22425901941648513 0 0 1
2101 1 23.840291641063722 0.36731216261547783 9.717249696967338 0 0 1
1533 1 29.01032022148653 0.09489712903649217 5.7279657920958815 0 0 1
2368 1 27.19967877036433 0.6127370282974709 9.325772577260485 0 1 0
1240 1 27.971403340869603 -0.5498081268642995 15.54903874386211 0 1 0
441 1 32.554631647353446 1.647573185330208 7.790867431472082 0 0 0
3908 1 35.22630519836605 1.4136251015408443 7.054325321308686 0 1 1
1688 1 45.203085516998485 0.321313135870705 6.603457290894331 -1 0 1
2879 1 21.20760536732465 24.84888839934501 7.812994013407218 1 0 0
2899 1 48.97147450114899 1.326335851305521 6.4477216196560825 0 1 0
10 1 3.066565685161905 4.367291247837929 6.858399487630902 1 0 0
1144 1 5.808029552477666 4.5636891805859365 7.588236736458088 0 0 1
2674 1 7.784651716984902 5.483587949642108 5.673216315674242 0 1 0
4026 1 10.629935856493924 4.422823486179466 8.729425111950324 0 1 1
545 1 12.655203750070044 5.503623665916621 6.935700552413298 0 0 0
3992 1 17.495754121078576 2.8410584041989155 10.28543510927149 0 1 1
2394 1 18.18293701944652 4.179477649426201 8.018534208751834 0 1 0
2551 1 21.908419901940263 2.3214139810824705 6.245508779110916 0 0 0
2982 1 21.12623133200474 4.825658560650299 7.796278672210393 0 1 0
1506 1 24.66389957737792 2.533017449554757 6.908554884048477 1 0 1
2242 1 28.653970417559787 2.563951337464822 7.435452830897573 0 1 0
2388 1 31.05134092824908 3.78265174210303 8.244646750090912 -1 1 0
3470 1 31.65147087062819 5.885970152474414 6.617671522093544 -1 1 0
3261 1 37.14081406876947 2.622892044694191 9.05498853258925 0 1 0
1898 1 39.20628800562662 3.1206794788206134 7.3932816173002 0 0 1
334 1 41.26443674811536 3.529132399255664 9.413877428305417 0 0 0
551 1 43.715688528487306 4.470947527418104 8.441992478199605 0 0 0
1835 1 45.127844070688454 2.08129771094948 8.5639803451585 0 0 1
193 1 47.26564150625211 3.4484155878308824 7.305719300392821 -1 0 0
539 1 1.1671528694578865 9.544672517127424 7.7991266860918955 1 0 0
254 1 5.021659646746827 7.630412651961743 7.149195752848131 0 0 0
1264 1 4.91007589820385 8.743982148755471 9.660103863999899 0 0 0
1611 1 10.138625860292978 8.88376333316176 9.553189363640781 0 0 1
1084 1 14.517854599422124 6.814603651538315 8.862401763687501 0 0 0
3411 1 13.045659436527894 9.162422799132395 9.454675535634998 0 0 0
2017 1 17.24958607029144 6.771754161989435 7.947729696065316 0 0 1
1808 1 25.467261212395155 6.862334706984289 7.337060361815562 0 0 1
890 1 27.69395779230055 8.49233593363823 8.06819799806332 0 0 1
832 1 27.600846153160305 7.570488702589902 4.582412985545831 0 0 1
1152 1 29.986477019143543 7.957535743320138 6.001006244942417 0 0 0
131 1 34.30133468043849 6.164860507770172 7.217580525042512 0 0 0
3915 1 39.004799040948456 6.859179260336378 8.01279740140231 0 0 1
893 1 41.70867113842813 6.805468234615586 7.598665658111278 0 0 0
438 1 46.358129274507974 8.569403206850337 4.429992188272275 0 0 0
3477 1 45.99026618891128 8.142672652968319 8.368626438805602 0 1 0
388 1 49.32770232985017 9.286755369906045 4.763511721764717 0 0 0
1208 1 49.936121026128006 7.053176744758137 8.941899177874298 -1 0 0
1260 1 2.9341368957462155 11.618754318050497 7.220376714408348 0 0 0
156 1 6.0232927984689875 11.057756320824753 8.470738924747906 1 0 0
3870 1 13.258468862968744 10.965528371455061 7.328977243308148 0 1 1
468 1 16.210888222084783 11.150240788263385 9.304496630976674 0 0 0
2523 1 15.920232043188637 9.687716778103601 6.589533562945259 0 1 0
691 1 19.041923651275 9.025939536506607 6.6624990346560296 0 0 0
615 1 19.755856091419712 9.394647742359993 9.299841980830516 0 0 0
533 1 23.47467456930708 10.791478590516899 7.3926899455196935 0 0 0
4034 1 26.237933869779578 11.012444038805159 7.787905658858033 0 0 1
2234 1 31.790389368459973 10.294611259305544 7.027454652221778 0 1 0
781 1 35.51354857449222 8.94910220605035 7.9418135837647394 0 0 0
499 1 34.31542050085193 10.623764186792759 6.246482225277638 -1 0 0
1032 1 38.32016610268532 9.486472089312217 7.622670776168182 0 0 0
981 1 39.97296451118656 10.78351483858956 9.12827165279278 0 0 0
460 1 43.22658319509327 11.037200941133795 6.364190086289557 0 0 0
433 1 42.10740922889937 9.65917517974007 8.26348205804474 0 0 0
93 1 50.3080287667471 11.36324687919844 8.470986610215132 0 0 0
1046 1 1.4002879380111377 15.06618363635266 6.434007797623952 1 0 1
903 1 0.28748573583486925 12.529261434600404 6.061469029036964 0 0 0
1115 1 0.5690614370258669 16.00368462786466 8.806094720396962 0 0 0
431 1 4.919712422475658 15.41650977337832 8.12412984621933 0 0 0
153 1 4.318645987651163 13.074307290949028 9.477472459871972 0 0 0
2590 1 7.853910147172368 14.69852208332948 7.983516015932329 0 1 0
1825 1 9.649245496867934 13.486604463005415 9.845447152203743 1 0 1
3262 1 12.401676238468404 12.950972431481876 8.916707683745193 0 1 0
3864 1 13.382299131588322 15.268425213973867 7.663883437208504 0 1 0
3064 1 19.897695765908658 13.78865681152035 7.9004875340349585 -1 0 0
3930 1 22.72024199396618 13.61895674899994 7.011238391041907 0 0 1
666 1 29.878659113116534 14.39694433295467 7.00539170744213 1 0 0
1284 1 32.07707801476225 15.99448264787286 6.4424125557644505 0 0 0
1459 1 33.61253181943249 14.542417484851333 8.630701154963607 0 0 1
166 1 37.279505816525216 14.524952579041848 7.780972307326326 0 0 0
964 1 39.893136584523475 13.365278236092921 8.362356892932555 0 0 0
506 1 47.58995780463762 12.03870669802354 7.972895494551585 0 0 0
3471 1 47.70632162800098 15.053395077351158 7.148237325516843 0 0 0
2034 1 8.043691751904813 19.176688474909067 9.599336106667247 0 0 1
3552 1 11.249715080184306 17.146392775136835 7.6012028058244 0 0 1
203 1 15.736741435743287 16.786424039149782 8.042000807529424 0 0 0
1941 1 19.99424260628687 18.12582534936487 6.291254195029172 0 0 1
3695 1 18.401071216475447 16.18496571020333 7.661849644706402 0 0 1
1780 1 22.606850988842385 17.28131800806981 5.971669888199446 0 0 1
595 1 23.823832307283286 15.844307350710551 8.365042362433682 0 0 0
2459 1 26.424832363354884 16.91783348068188 8.26163696793169 0 0 0
2215 1 31.862450371417818 17.364340928872025 9.181171121171898 0 0 0
490 1 37.79441511699653 16.714705580973877 6.425244177458618 0 0 0
705 1 40.00563142579553 17.946471861196105 7.330438221106013 0 0 0
3386 1 45.24784434658581 16.222361536980248 7.644685571486534 0 1 0
409 1 49.11093750478527 16.948966700311587 8.930690573320552 -1 0 0
2197 1 0.8154999720431046 20.12305330171092 6.760432170761049 0 0 0
2692 1 -0.28128448769220077 19.57717344739357 10.514267580606019 0 0 0
2041 1 3.3916244301571226 20.139206521357526 7.890201638693227 0 0 1
2012 1 7.926346134074917 19.19918766170965 6.694440533526488 0 0 0
2310 1 13.264321084400942 18.963880061715734 6.78662784188785 0 0 0
3076 1 15.33104366509624 19.50861597217097 8.897548796733371 0 0 0
112 1 18.32775948619665 20.84146447709247 9.317402272623706 0 0 0
909 1 20.588216824292402 20.66185887306577 7.273915284066504 0 0 0
3074 1 22.346778379900535 20.858867787842414 9.32015719349355 0 0 0
1986 1 26.048228621815053 19.426265760137813 7.4034270679366525 0 0 1
1524 1 23.580160076935243 19.797522607754495 6.533138568911227 0 0 0
224 1 27.937430926160314 21.196181253604934 9.02454731952219 0 0 0
2284 1 29.49943431184489 20.082046864725157 6.908512812520993 0 0 0
178 1 31.676916336987897 19.832022954821262 8.60529124457331 0 0 0
2553 1 35.57949580481865 18.810533029021595 8.8268942799989 0 0 0
97 1 35.89747896722103 18.466803179976534 6.059781863738391 0 0 0
707 1 39.55208131315442 20.585732439587908 8.138579608966307 0 0 0
623 1 41.89372174598587 21.592126819605188 8.98718714046864 -1 0 0
2019 1 45.17299877787525 19.117065970401967 7.890372407195503 -1 0 1
401 1 49.37314979418946 19.719847325255984 8.103040699580927 0 0 0
22 1 1.3594989949368281 2.5989959681370665 0.2663675161994782 0 0 0
950 1 3.6048998454333407 22.86498974540674 8.72222503649159 0 0 0
619 1 6.7094462473662695 24.121855288634297 6.120225206202382 0 0 0
303 1 6.108332669229874 23.599490369995685 8.836135967139189 1 0 0
3082 1 9.214881006996809 23.915418499225545 7.121497839708594 0 0 0
864 1 14.334440440573443 23.507457389468552 9.915281969677007 0 0 0
639 1 14.970634412424287 23.610075133872233 7.18614748136088 0 0 0
273 1 32.6258536092342 24.89144795041921 14.21779773120541 0 0 0
4071 1 27.97708265390696 22.656322558108098 14.56131838760501 0 0 1
2761 1 25.251194462418873 21.848200485804245 8.970873562027585 0 0 0
2925 1 29.47869891226555 23.6687117544585 9.463041292471786 0 0 0
812 1 30.329987958562835 24.664101153730062 6.907284617496891 -1 0 1
1398 1 42.715298366999164 4.598522187206534 16.28680034345258 0 0 0
3129 1 11.214339057138345 1.3443361052986087 16.28615423000964 0 1 0
658 1 34.222025767716005 21.06889650947927 8.515725664748693 0 0 0
118 1 42.78577423771114 22.748193637601858 6.492847056440014 -1 0 0
1596 1 45.75399363373643 23.677344895642808 7.444293823718125 0 0 1
2858 1 48.070308449906534 22.482430026026456 8.63105351667294 -1 0 0
2999 1 1.007820884785702 2.123309074790525 10.880382156942625 1 1 0
2130 1 1.2513617671734847 -0.1154253103084047 9.281023581139193 1 1 0
1297 1 6.37719830943762 2.0934896702499968 11.049017379547601 1 0 0
421 1 14.724854331481072 0.15422540575804022 3.169005302757783 0 0 0
1974 1 14.899873303311615 2.355230353599002 10.816873635705333 0 0 1
446 1 11.974750895955887 2.0536335270234094 12.779255356159313 0 0 0
302 1 15.16544883158228 1.5099943118625294 13.384818267916826 0 0 0
810 1 19.484142012078404 0.6978402100027108 10.498152690163865 0 0 0
2028 1 19.377069431314467 0.6599171697458188 13.27786708922216 0 0 1
189 1 22.163708391613117 1.554551461508026 11.687284602469843 0 0 0
1245 1 30.089820387229526 2.7314017407424576 16.385366304558808 0 0 0
1450 1 32.49389882556724 1.6035389271860838 12.044577414238248 0 0 0
1406 1 27.275747575174872 0.07222312221379823 12.124216072757712 0 0 0
2854 1 35.00169860257057 1.2200602381089325 12.862747274714511 0 1 1
67 1 37.1228026649958 0.7069512969796508 10.952231043210611 0 0 0
2577 1 39.4965594290755 1.0776231038989952 12.341532110947597 0 1 0
2533 1 41.85051231013003 1.1327987809442517 10.73398903658335 0 1 0
3108 1 43.704947603021594 1.8952886017913668 13.244471642160887 -1 1 0
718 1 45.01660383204741 0.7350582616429846 10.966252469498231 0 0 0
629 1 47.472974623086245 1.411241783493228 12.51492234302439 0 0 0
1390 1 49.40700633134696 3.236435836760001 11.161100274962552 0 0 0
281 1 2.167100360392747 4.3476271051972315 9.476773875196281 1 0 0
4027 1 4.597944029989655 4.163017342076981 10.87600045128385 0 1 1