
# Create simulation box of size 50 x 50 x 50 Angstrom
#
lattice	            sc 1
Lattice spacing in x,y,z = 1.0000000 1.0000000 1.0000000
region 	            all block 0 50 0 50 0 50 units box
create_box          1 all
Created orthogonal box = (0.0000000 0.0000000 0.0000000) to (50.000000 50.000000 50.000000)
  1 by 2 by 3 MPI processor grid

# fill box with 4175 randomly distributed atoms
#
create_atoms        1 random 4175 63782 all
Created 4175 atoms
  create_atoms CPU = 0.001 seconds
mass                1 18.015

# Define potential
#
pair_style          sw
pair_coeff          * * ML_mW.sw mW
Reading sw potential file ML_mW.sw with DATE: 2019-02-27

# Run minimization
#
minimize            1.0e-8 1.0e-8 10000 1000
WARNING: Using 'neigh_modify every 1 delay 0 check yes' setting during minimization (../min.cpp:187)
Neighbor list info ...
  update every 1 steps, delay 0 steps, check yes
  max neighbors/atom: 2000, page size: 100000
  master list distance cutoff = 6.0032907
  ghost atom cutoff = 6.0032907
  binsize = 3.0016454, bins = 17 17 17
  1 neighbor lists, perpetual/occasional/extra = 1 0 0
  (1) pair sw, perpetual
      attributes: full, newton on
      pair build: full/bin/atomonly
      stencil: full/bin/3d
      bin: standard
Per MPI rank memory allocation (min/avg/max) = 4.255 | 4.258 | 4.261 Mbytes
Step Temp E_pair E_mol TotEng Press 
       0            0    7792709.3            0    7792709.3    5898794.3 
     630            0   -45180.336            0   -45180.336   -154.07449 
Loop time of 1.15703 on 6 procs for 630 steps with 4175 atoms

99.1% CPU use with 6 MPI tasks x no OpenMP threads

Minimization stats:
  Stopping criterion = max force evaluations
  Energy initial, next-to-last, final = 
      7792709.32924461  -45180.0188663597   -45180.336116598
  Force two-norm initial, final = 2.0191930e+08 4.9721331
  Force max component initial, final = 1.0948746e+08 0.73126211
  Final line search alpha, max atom move = 0.053306038 0.038980685
  Iterations, force evaluations = 630 1000

MPI task timing breakdown:
Section |  min time  |  avg time  |  max time  |%varavg| %total
---------------------------------------------------------------
Pair    | 0.87986    | 0.98622    | 1.0513     |   5.6 | 85.24
Neigh   | 0.023985   | 0.024763   | 0.026084   |   0.4 |  2.14
Comm    | 0.061423   | 0.12603    | 0.23339    |  15.7 | 10.89
Output  | 0          | 0          | 0          |   0.0 |  0.00
Modify  | 0          | 0          | 0          |   0.0 |  0.00
Other   |            | 0.02001    |            |       |  1.73

Nlocal:        695.833 ave         704 max         685 min
Histogram: 1 1 0 0 1 0 0 1 0 2
Nghost:        1494.17 ave        1515 max        1468 min
Histogram: 1 1 0 0 0 0 1 1 1 1
Neighs:        0.00000 ave           0 max           0 min
Histogram: 6 0 0 0 0 0 0 0 0 0
FullNghs:      19997.0 ave       20462 max       19320 min
Histogram: 1 1 0 0 0 0 0 2 0 2

Total # of neighbors = 119982
Ave neighs/atom = 28.738204
Neighbor list builds = 26
Dangerous builds = 0

# Add velocity/set timestep
#
velocity            all create ${TEMP} 120598 rot yes dist gaussian
velocity            all create 210 120598 rot yes dist gaussian
timestep            5.0

# Define output
#
compute	            1 all msd
thermo	            100
thermo_style        custom step temp press vol etotal ke pe c_1[4] density

# Neighbor lists
#
neigh_modify        delay 0 every 1 check yes

# Set fixes
#
fix                 1 all momentum 10 linear 1 1 1 rescale
fix                 2 all nve
fix                 3 all temp/csvr ${TEMP} ${TEMP} 500.0 928347
fix                 3 all temp/csvr 210 ${TEMP} 500.0 928347
fix                 3 all temp/csvr 210 210 500.0 928347
fix                 4 all press/berendsen iso ${PRES} ${PRES} 1000.0 modulus 20000
fix                 4 all press/berendsen iso -150 ${PRES} 1000.0 modulus 20000
fix                 4 all press/berendsen iso -150 -150 1000.0 modulus 20000

# Run 0.5 ns equilibration
#
dump                1 all custom 1000 eq.${NAME}.dump id type x y z vx vy vz
dump                1 all custom 1000 eq.liquid_density_MLmW.dump id type x y z vx vy vz
run                 100000
Per MPI rank memory allocation (min/avg/max) = 3.506 | 3.508 | 3.511 Mbytes
Step Temp Press Volume TotEng KinEng PotEng c_1[4] Density 
     630          210    801.42152       125000   -42567.537    2612.7992   -45180.336 2.7295415e-33   0.99914793 
     700    134.16394   -124.68499    125595.24   -41764.668    1669.2545   -43433.922   0.24280679   0.99441262 
     800    163.79019   -293.67939    125747.13   -41038.739    2037.8614   -43076.601   0.55831555   0.99321145 
     900    182.57417   -111.85399    125564.68   -40633.567    2271.5697   -42905.137   0.90490909   0.99465467 
    1000    195.08128    59.532752    125724.37   -40370.158     2427.182    -42797.34    1.2821551   0.99339124 
    1100     202.3099   -271.94025    125694.82   -40189.031    2517.1198    -42706.15    1.6626875    0.9936248 
    1200     205.3113   -118.13482    125647.09   -40232.542    2554.4629   -42787.005      1.99106   0.99400223 
    1300    208.25531   -201.97353    125773.46   -40210.131    2591.0919   -42801.223    2.2563732   0.99300354 
    1400    207.60082   -118.18599    125904.31   -40239.516    2582.9488   -42822.465    2.5534985   0.99197153 
    1500    205.01767   -224.11664    125962.02   -40204.874    2550.8096   -42755.683    2.9147062   0.99151708 
    1600    209.39963   -109.96959     126230.6   -40131.062    2605.3295   -42736.391    3.1919661   0.98940741 
    1700    210.84963   -12.990465    126237.65   -40177.216    2623.3703   -42800.586    3.4920914   0.98935216 
    1800    211.03106   -90.482148    126277.01   -40275.931    2625.6275   -42901.559    3.8822848   0.98904382 
    1900    208.72004   -287.26721    126431.66   -40288.385    2596.8741   -42885.259    4.1943963   0.98783399 
    2000    215.90699   -167.91985    126670.58   -40270.997    2686.2934   -42957.291    4.4896217   0.98597079 
    2100    211.78168    81.592447    126822.02   -40254.984    2634.9667   -42889.951    4.6403988   0.98479343 
    2200    212.04344   -146.45217     126690.3   -40324.643    2638.2235   -42962.867    4.9774043   0.98581731 
    2300    217.30628   -302.12654    126741.02   -40320.126    2703.7033   -43023.829     5.222807   0.98542278 
    2400    212.52719   -11.697807    126683.56    -40347.18    2644.2423   -42991.422    5.4631546   0.98586974 
    2500    214.80405    52.244448    127035.83   -40318.064    2672.5708   -42990.635     5.708396   0.98313593 
    2600    214.52083    12.558493    127184.51   -40279.261     2669.047   -42948.308    5.9487327   0.98198666 
    2700    213.40548   -328.20905    127070.84   -40311.383    2655.1699   -42966.552    6.1748464   0.98286509 
    2800    212.55967     -139.583    126887.94   -40304.221    2644.6464   -42948.868    6.4433598   0.98428182 
    2900    216.12804   -186.93586    126678.68   -40369.684    2689.0437   -43058.727    6.7202854   0.98590777 
    3000    214.51736   -153.61519    126995.55   -40423.552    2669.0037   -43092.556    7.0960971    0.9834478 
    3100    210.01351   -42.010554    127128.79   -40413.568    2612.9673   -43026.536    7.3833964   0.98241702 
    3200    210.38986   -105.00597     127310.6   -40459.831    2617.6499   -43077.481    7.6127848   0.98101411 
    3300    213.55507   -7.4643044    127407.86   -40451.409     2657.031    -43108.44    7.7967087   0.98026518 
    3400    209.70829   -38.541181    127555.42   -40483.162    2609.1698   -43092.332    8.0582639   0.97913123 
    3500    211.04178    -75.99662    127587.11    -40515.93     2625.761   -43141.691    8.1387499     0.978888 
    3600    210.50511   -89.041136    127774.79    -40568.48    2619.0838   -43187.564    8.3331414   0.97745018 
    3700    206.38277   -106.18131    128038.32    -40631.03     2567.794   -43198.824    8.4906857   0.97543839 
    3800    210.41713   -45.224715    128176.46   -40583.364    2617.9891   -43201.353     8.700868   0.97438715 
    3900    206.96985   -18.569023    128050.24   -40625.236    2575.0984   -43200.335    8.9535803   0.97534755 
    4000    210.22043   -174.57008    128185.94   -40624.735    2615.5418   -43240.277    9.1285842   0.97431504 
    4100    211.00578   -87.277326    128111.32   -40628.747    2625.3131    -43254.06    9.4063938   0.97488257 
    4200    211.88793    -82.48425    128296.23   -40645.094    2636.2887   -43281.382    9.5682527   0.97347745 
    4300    210.04654   -85.135018    128577.84   -40662.791    2613.3782   -43276.169    9.7269825   0.97134541 
    4400    211.71125   -206.53562    128752.62   -40665.154    2634.0905   -43299.245    9.7970255   0.97002678 
    4500    207.10674   -98.729614    128839.79   -40673.948    2576.8016    -43250.75    9.9493186    0.9693705 
    4600    207.23569   -62.965871    129065.84   -40718.578     2578.406   -43296.984    10.074698   0.96767269 
    4700    210.98173   -197.05294    129181.29   -40650.561    2625.0139   -43275.574    10.183229   0.96680793 
    4800    207.57852   -69.450696    129135.69   -40707.855    2582.6714   -43290.527     10.47027   0.96714927 
    4900     210.5536   -183.46735    128984.61   -40617.988    2619.6871   -43237.675    10.591296   0.96828208 
    5000    212.69583   -32.535719    129052.27   -40577.965    2646.3405   -43224.305    10.810443   0.96777449 
    5100    215.43858   -234.11486     129030.8   -40658.068    2680.4656   -43338.534     10.95648   0.96793547 
    5200    211.16567   -151.25629    129047.93   -40714.518    2627.3024   -43341.821    11.009312   0.96780703 
    5300    213.84651   -89.286864    129016.65   -40700.511    2660.6572   -43361.168    11.133491   0.96804166 
    5400     213.3573   -58.093769    128939.34   -40755.719    2654.5704    -43410.29    11.290254   0.96862204 
    5500    208.67445   -192.28668    128975.95   -40747.833    2596.3068   -43344.139    11.386465   0.96834713 
    5600    213.48555   -215.00981    129147.98   -40747.148    2656.1661   -43403.314    11.473108   0.96705722 
    5700    210.07972   -116.92677    129220.68   -40756.458    2613.7911   -43370.249    11.665818   0.96651321 
    5800    211.27142   -121.23831    129432.17   -40779.605    2628.6181   -43408.223    11.947432   0.96493393 
    5900    206.42407   -106.94661    129461.93   -40819.005    2568.3079   -43387.313    12.138314   0.96471209 
    6000    208.34633   -229.25898    129426.48   -40832.904    2592.2245   -43425.128    12.297068   0.96497635 
    6100     210.8834    -177.0609    129564.03   -40778.608    2623.7904   -43402.399    12.331611   0.96395187 
    6200     208.2802   -117.02564    129453.24   -40856.544    2591.4016   -43447.945    12.392428   0.96477683 
    6300    210.07455   -287.25289    129492.18   -40833.073    2613.7268   -43446.799    12.531373   0.96448672 
    6400    212.34205   -53.303451    129305.56    -40818.64    2641.9389   -43460.579    12.485087   0.96587876 
    6500    212.17135   -92.027093    129659.26   -40778.605    2639.8149    -43418.42    12.899082   0.96324387 
    6600    209.31721   -55.523362    129723.93   -40874.705     2604.304   -43479.009    13.042361   0.96276372 
    6700    210.42144   -226.79362    129805.03   -40946.788    2618.0428    -43564.83    13.177795   0.96216217 
    6800    210.47974   -47.720244    129871.92   -40882.824    2618.7681   -43501.592    13.218921    0.9616666 
    6900    211.12301    -44.69292    129846.68   -40820.702    2626.7717   -43447.473    13.324894   0.96185355 
    7000    211.89296    -77.98814    129843.63   -40816.969    2636.3512    -43453.32    13.498223   0.96187613 
    7100    212.16267   -54.871276     129985.4   -40853.103     2639.707    -43492.81    13.661481   0.96082705 
    7200    211.18615   -218.23583    130108.72   -40920.412    2627.5573   -43547.969    13.835231   0.95991638 
    7300    207.89007   -163.00976    130020.93   -40974.479    2586.5477   -43561.026    13.773087   0.96056452 
    7400    204.81641   -151.23594    130293.19   -41005.814    2548.3056    -43554.12    13.836778    0.9585573 
    7500    209.53362   -78.450571    130360.35   -40980.882    2606.9966   -43587.878    13.833676   0.95806345 
    7600    207.02427   -48.627405    130299.96   -41062.672    2575.7755   -43638.447    13.988506   0.95850755 
    7700    208.60717   -4.6705109    130222.52    -40966.58    2595.4697    -43562.05    14.104944   0.95907754 
    7800    211.13457   -84.864097    130361.76   -40937.113    2626.9155   -43564.028     14.23398   0.95805315 
    7900    203.95976   -52.488857    130468.17   -41002.802    2537.6471   -43540.449    14.344102   0.95727173 
    8000     210.3304   -58.476692    130465.56   -40985.066      2616.91   -43601.976    14.429495   0.95729088 
    8100    208.88027   -81.433973    130455.04   -41058.325    2598.8676   -43657.193     14.53756   0.95736808 
    8200    209.39588   -187.50319    130453.11   -41086.244    2605.2829   -43691.527    14.686116   0.95738221 
    8300    204.63223   -289.34449    130440.81     -41078.1    2546.0139   -43624.114    14.892498   0.95747252 
    8400    207.90413   -144.75053    130283.82   -41035.083    2586.7226   -43621.806    14.963029   0.95862626 
    8500    210.06091   -142.58482    130440.89    -40961.73    2613.5571   -43575.287    15.049592    0.9574719 
    8600    212.17754   -107.93089    130241.78   -40970.788     2639.892    -43610.68       15.131   0.95893567 
    8700    209.79295   -62.446794    130199.41   -40961.295    2610.2232   -43571.518    15.206061   0.95924773 
    8800    208.53028   -112.86565    130244.47   -41015.852    2594.5131   -43610.365    15.344793   0.95891592 
    8900    209.88962   -134.92524    130382.98   -41097.782    2611.4259   -43709.208    15.338806   0.95789723 
    9000    207.88183     -208.048    130356.35   -41047.677    2586.4452   -43634.122    15.246136   0.95809288 
    9100    204.41442   -142.46979    130355.37   -41107.826     2543.304    -43651.13    15.368472   0.95810007 
    9200    212.26232   -229.13037    130482.67   -41025.528    2640.9468   -43666.475    15.436651   0.95716538 
    9300    207.93028   -199.78782    130669.61   -41074.119     2587.048   -43661.167    15.486073   0.95579597 
    9400    213.85876   -28.285176    130788.17   -41044.517    2660.8096   -43705.327    15.706493   0.95492955 
    9500    208.47969   -40.612679    130911.19   -41066.948    2593.8836   -43660.832    15.980091   0.95403221 
    9600    208.06989   -108.23834    130973.71   -41033.104    2588.7851   -43621.889    16.113135   0.95357681 
    9700    217.76963    -277.7609    131070.87   -40975.702    2709.4682    -43685.17    16.143728   0.95286992 
    9800    213.74172    -193.5421     131084.4   -41062.507    2659.3534   -43721.861    16.201839   0.95277159 
    9900    206.11871   -248.52474    131058.83   -41132.473    2564.5086   -43696.982    16.373058   0.95295745 
   10000    206.94166   -284.01029    131077.59   -41147.269    2574.7477   -43722.016    16.362646   0.95282108 
   10100    209.83396   -248.10505    130992.76   -41125.476    2610.7334   -43736.209    16.428546   0.95343813 
   10200    210.49052   -119.28604     131059.1   -41175.053    2618.9022   -43793.955    16.522311   0.95295551 
   10300    206.67998    16.762637    130980.03   -41168.793    2571.4919   -43740.285    16.613997   0.95353075 
   10400    209.55096   -43.400159    131061.58    -41110.92    2607.2123   -43718.132    16.793449   0.95293748 
   10500    211.80409   -87.203771    130994.34   -41098.896    2635.2455   -43734.141    16.744545    0.9534266 
   10600    213.14432   -155.07895       131099   -41033.396    2651.9206   -43685.316    16.796533   0.95266549 
   10700    210.04824   -253.16757    130976.45   -41026.534    2613.3995   -43639.933    16.772441   0.95355686 
   10800    215.39203   -125.49191    131041.04   -41007.017    2679.8864   -43686.903    16.835372   0.95308684 
   10900    212.45294   -172.60902    131174.57   -41021.045    2643.3185   -43664.364    16.858737   0.95211666 
   11000    211.98991   -17.306762    131167.95   -41017.674    2637.5575   -43655.231    17.026869    0.9521647 
   11100    210.49867   -104.39865     131102.3   -41065.591    2619.0036   -43684.594    16.933288   0.95264149 
   11200    211.65858   -180.82484    131127.66   -41057.738    2633.4351   -43691.173    17.118114   0.95245724 
   11300    211.68246   -295.48255    131096.82   -41048.495    2633.7322   -43682.228    17.294735   0.95268131 
   11400    211.71562   -93.375817    131161.11    -41060.98    2634.1448   -43695.124    17.178123   0.95221436 
   11500    210.00542    -217.9559    131316.49   -41097.479    2612.8666   -43710.345    17.426712   0.95108762 
   11600    209.27291   -216.51962    131285.26   -41100.422    2603.7529   -43704.174    17.460772   0.95131385 
   11700    213.40993   -155.69114    131111.58   -41008.162    2655.2252   -43663.388    17.472681   0.95257404 
   11800     207.1814   -19.664922    131356.14   -41085.517    2577.7305   -43663.247    17.503529   0.95080054 
   11900    213.08607   -157.28922       131522   -41119.031    2651.1958   -43770.227    17.632634   0.94960152 
   12000    211.13738   -164.34985     131411.2   -41125.502    2626.9504   -43752.452    17.685565   0.95040215 
   12100    210.55356   -178.35749    131370.57   -41091.729    2619.6866   -43711.416    17.753516   0.95069613 
   12200    210.25951    24.749582    131476.91   -41093.955     2616.028   -43709.983    17.906613    0.9499272 
   12300    211.89292   -128.35547    131517.43   -41131.413    2636.3508   -43767.764    18.126433   0.94963451 
   12400    208.57463   -306.16672    131563.32    -41115.82     2595.065   -43710.885    18.083576   0.94930325 
   12500    203.00229   -250.68551    131366.27   -41199.502    2525.7344   -43725.236     18.13415   0.95072727 
   12600    209.20765   -102.50103    131417.95    -41121.23    2602.9409   -43724.171    18.137674    0.9503534 
   12700     209.0505   -210.53843    131395.45   -41083.132    2600.9857   -43684.117    18.169311   0.95051613 
   12800    213.59802   -176.69155    131285.89   -41051.778    2657.5654   -43709.343    18.314342   0.95130935 
   12900    209.69223   -112.71672    131282.34   -41113.836      2608.97   -43722.806    18.357828   0.95133503 
   13000    217.52781    -181.9271    131318.54   -41065.018    2706.4595   -43771.477    18.370483   0.95107283 
   13100    215.08763   -272.92685    131513.46   -41076.261     2676.099    -43752.36    18.544589    0.9496632 
   13200    214.64348   -155.38949    131642.96   -41010.944     2670.573   -43681.517    18.729537   0.94872898 
   13300    216.80802   -78.504365    131798.92   -41064.991    2697.5039   -43762.494    18.677255   0.94760631 
   13400    210.03122   -78.476409    131915.84   -41150.685    2613.1877   -43763.873    18.797403   0.94676641 
   13500    206.82239    -75.56425    131746.48   -41173.918    2573.2637   -43747.181    18.862521    0.9479835 
   13600     208.7469    12.374084    131762.83   -41202.273    2597.2083   -43799.481    18.949439   0.94786585 
   13700    206.56288   -272.34848     131803.4   -41209.964    2570.0349   -43779.999    18.975763   0.94757415 
   13800    210.27158   -313.25898    131734.27   -41134.137    2616.1782   -43750.315     18.84262   0.94807138 
   13900    211.30006   -66.695345    131598.03     -41171.2    2628.9745   -43800.174    18.857209   0.94905287 
   14000    211.00533   -46.215379    131876.31    -41158.99    2625.3075   -43784.298    19.042373   0.94705021 
   14100    208.78596   -250.19833    132016.32   -41167.485    2597.6943    -43765.18    19.253873   0.94604587 
   14200    212.14111   -158.40726    132012.81   -41205.117    2639.4387   -43844.555    19.155011   0.94607101 
   14300     208.5935   -214.33513    131972.72   -41274.509    2595.2998   -43869.808    19.205735   0.94635837 
   14400     208.3886   -298.06235    131712.47   -41249.377    2592.7503   -43842.127    19.210683    0.9482283 
   14500    215.90103   -78.905046    131789.35   -41208.348    2686.2193   -43894.568    19.172402   0.94767516 
   14600    215.54253   -16.168778    131876.93   -41223.241    2681.7588   -43904.999    19.163492   0.94704576 
   14700    208.14471   -122.97884    131858.83   -41280.909    2589.7159   -43870.625    19.184093    0.9471758 
   14800     205.2861   -143.74014    131904.91    -41344.62    2554.1494   -43898.769    19.197143    0.9468449 
   14900    203.46487   -106.85232    131706.98   -41410.161    2531.4899   -43941.651    19.118033   0.94826785 
   15000    205.00829   -142.35633    131750.91   -41394.911    2550.6928   -43945.603    19.348188   0.94795167 
   15100    204.52214   -183.72679    131873.24   -41418.622    2544.6443   -43963.266    19.426208   0.94707227 
   15200    205.68547   -128.94088    131969.13   -41348.187    2559.1183   -43907.305     19.48443   0.94638416 
   15300    208.39002   -72.191853    131904.15   -41355.933     2592.768   -43948.701    19.313783   0.94685035 
   15400    203.16122   -98.575086    131944.53   -41347.909    2527.7118    -43875.62    19.453722   0.94656061 
   15500     209.2283   -104.12812    132003.42   -41329.033    2603.1978    -43932.23    19.480231   0.94613832 
   15600    211.48213   -107.27654    132046.85   -41267.133    2631.2397   -43898.373    19.632257   0.94582711 
   15700     208.5982   -226.93455    132187.31   -41355.422    2595.3581   -43950.781     19.80063   0.94482208 
   15800     205.6165   -135.60346     131909.7   -41353.817    2558.2601   -43912.077    19.731765   0.94681052 
   15900    206.77365   -224.84562    131957.24   -41384.457    2572.6573   -43957.114    19.566571   0.94646938 
   16000    212.34021   -115.59037    131912.64   -41325.105    2641.9159   -43967.021    19.686343    0.9467894 
   16100    212.61573   -189.74512    132013.13   -41283.291    2645.3439   -43928.635    19.611245   0.94606873 
   16200    211.81109   -156.06036    132022.22   -41341.038    2635.3327   -43976.371    19.741883   0.94600357 
   16300    210.25021   -107.64399    131988.28   -41365.037    2615.9124   -43980.949    19.816584    0.9462468 
   16400    209.43483    18.879627    131916.81     -41277.6    2605.7675   -43883.368    19.945721   0.94675952 
   16500    212.88163    -164.5866    131810.36   -41281.293    2648.6522   -43929.945    19.983277   0.94752407 
   16600    212.28913   -182.51251    131807.57   -41263.417    2641.2803   -43904.697    19.979544   0.94754412 
   16700    211.88823   -182.62171    131850.56    -41289.51    2636.2924   -43925.803    20.119195   0.94723518 
   16800    212.79277   -63.023885     131958.6   -41278.735    2647.5466   -43926.282    20.140139   0.94645965 
   16900    212.68784   -301.40446    131958.58   -41243.606     2646.241   -43889.847    20.213404   0.94645981 
   17000    213.31579   -161.00982    131953.65    -41265.78     2654.054   -43919.833    20.141404   0.94649518 
   17100    212.92598   -182.26488    131932.27   -41188.319     2649.204   -43837.523    20.096857   0.94664853 
   17200    213.82972    -220.8724    131888.39   -41203.194    2660.4483   -43863.643    20.180772   0.94696353 
   17300    210.56478   -105.19558    131854.49   -41265.894    2619.8262    -43885.72    20.390582   0.94720693 
   17400    210.70684    -289.8432    131718.42   -41285.524    2621.5937   -43907.118    20.284577   0.94818549 
   17500    210.32982   -169.98585    131839.94   -41277.266    2616.9029   -43894.169    20.393921   0.94731148 
   17600    209.48725   -202.94919     131650.7   -41259.728    2606.4197   -43866.148     20.39096   0.94867323 
   17700    209.90852   -103.07969    131676.79   -41284.694    2611.6611   -43896.355    20.345273   0.94848526 
   17800    207.53205   -92.889429    131733.39   -41280.414    2582.0933   -43862.507    20.466764   0.94807771 
   17900    210.21321   -148.87569       131885   -41240.257     2615.452   -43855.709    20.401674   0.94698782 
   18000    213.30352   -119.05283    131862.66   -41197.773    2653.9014   -43851.674      20.5601   0.94714825 
   18100    212.65544   -289.32148    131883.21   -41287.657    2645.8379   -43933.495    20.687643   0.94700072 
   18200     210.5927    -214.3362    131831.23   -41286.584    2620.1736   -43906.758    20.812288   0.94737409 
   18300    214.21793   -249.77834    131789.54   -41213.344    2665.2783   -43878.622    20.804954   0.94767379 
   18400    210.26555   -83.859818    131596.97   -41277.181    2616.1031   -43893.285    20.818571   0.94906055 
   18500    215.39824   -162.45242    131736.31   -41231.247    2679.9636   -43911.211    20.841213   0.94805673 
   18600    207.30224   -245.83715     131881.1   -41280.698     2579.234   -43859.932    20.882987   0.94701583 
   18700     213.5917    -72.71621    131804.05   -41253.621    2657.4868   -43911.108     21.01611   0.94756948 
   18800    212.80765   -134.24767    131670.57   -41234.572    2647.7318   -43882.303    21.060833   0.94853005 
   18900    212.85062   -239.84866    131704.82   -41271.555    2648.2663   -43919.821    21.130696   0.94828339 
   19000    212.82695   -123.12816    131847.45   -41271.612    2647.9719   -43919.584    21.051248   0.94725756 
   19100    209.42517   -211.51708    131865.11   -41321.105    2605.6472   -43926.752    21.073683   0.94713065 
   19200    212.53615   -207.89391    131932.74   -41296.828    2644.3537   -43941.182    21.241165   0.94664519 
   19300    214.08349   -187.59894    131896.22   -41245.151    2663.6056   -43908.757    21.391471   0.94690727 
   19400    209.93393   -248.81354    131808.76   -41254.431    2611.9772   -43866.408    21.499657   0.94753556 
   19500    211.10557   -74.643386    131823.75   -41253.901    2626.5546   -43880.456    21.682375   0.94742786 
   19600    213.93717   -14.462074    131947.27   -41290.483    2661.7851   -43952.268    21.451647   0.94654092 
   19700    215.66351   -200.68291    131855.82   -41278.913    2683.2641   -43962.177    21.285014   0.94719738 
   19800     212.4451   -233.80138    131856.37   -41318.018    2643.2209   -43961.239    21.327535   0.94719346 
   19900    212.13194    42.935589    131871.48   -41326.686    2639.3246    -43966.01     21.51443   0.94708489 
   20000     210.7747   -220.56959    131808.87   -41372.268    2622.4379   -43994.706    21.647568   0.94753483 
   20100    209.63033   -180.06821    131835.36   -41341.166    2608.1998   -43949.366    21.652363   0.94734443 
   20200    207.56552   -316.38186    131870.38   -41387.582    2582.5097   -43970.091    21.536682    0.9470928 
   20300    206.27806   -160.85553     131954.7   -41407.908    2566.4913   -43974.399    21.610169    0.9464876 
   20400    207.07516   -88.674712    131895.64   -41397.344    2576.4087   -43973.753    21.754788   0.94691144 
   20500    211.07474   -51.801145    131990.65   -41358.629    2626.1711     -43984.8    21.732773   0.94622986 
   20600    211.13307   -265.83966    131996.09   -41398.928    2626.8967   -44025.825    21.881317   0.94619082 
   20700    210.21239   -73.952503    131816.05   -41342.892    2615.4417   -43958.334    21.938738    0.9474832 
   20800    210.05817   -175.52039    131885.62   -41338.652     2613.523   -43952.175    21.895389   0.94698337 
   20900    212.59131   -211.92622    132030.12   -41366.521    2645.0401   -44011.561    22.104697   0.94594697 
   21000     207.7797   -162.37805    132102.03   -41466.248    2585.1744   -44051.422    22.301499   0.94543206 
   21100    204.69982   -159.55989    132022.65   -41494.425    2546.8549    -44041.28     22.26243   0.94600045 
   21200     206.4494   -214.98428    132103.72   -41475.018     2568.623   -44043.641    22.163889   0.94541994 
   21300    205.33744   -119.86682    132085.79   -41484.109    2554.7882   -44038.897    22.230756    0.9455483 
   21400    207.43358   -189.86941    131973.83   -41444.769    2580.8682   -44025.637     22.25033   0.94635044 
   21500    211.17147   -107.11728       132138    -41433.03    2627.3745   -44060.404    22.297443   0.94517466 
   21600    209.29743   -229.73385    131985.98   -41390.846     2604.058   -43994.904    22.354388   0.94626332 
   21700    211.59815   -236.24916    131935.11    -41368.13    2632.6832   -44000.814    22.432363   0.94662815 
   21800    212.08288    -35.46583    131936.55   -41369.252    2638.7142   -44007.966    22.458099   0.94661786 
   21900    206.25265   -145.24945     131994.5   -41384.969    2566.1751   -43951.144    22.590183   0.94620223 
   22000    207.21081   -64.440711    131894.68   -41425.299    2578.0964   -44003.395    22.386132   0.94691832 
   22100    213.49982   -187.08393    131931.29   -41376.275    2656.3437   -44032.618    22.507089   0.94665558 
   22200    210.87569   -164.97926    131813.74   -41416.117    2623.6945   -44039.812    22.605563   0.94749977 
   22300    211.04006   -199.01795    132015.59   -41400.277    2625.7396   -44026.016    22.597655    0.9460511 
   22400    214.20745   -90.843061    131966.79   -41372.848    2665.1479   -44037.996    22.486082    0.9464009 
   22500    214.93961   -125.41436    131966.71   -41390.487    2674.2574   -44064.744    22.530603   0.94640146 
   22600    214.92162   -217.66764     132076.6   -41365.714    2674.0335   -44039.748    22.681133   0.94561408 
   22700     211.2466   -224.51274    131915.15   -41373.574    2628.3094   -44001.883    22.656984   0.94677137 
   22800    212.32022   -172.13658    132016.63   -41347.715    2641.6672   -43989.382    22.818861   0.94604366 
   22900    214.43454    -92.32074    132162.12   -41392.776    2667.9734   -44060.749    22.781339   0.94500218 
   23000    210.13764   -137.39887    132092.07   -41384.558    2614.5118    -43999.07    22.695019   0.94550334 
   23100    207.46905   -119.73509    132070.38   -41475.406    2581.3094   -44056.715     22.75933   0.94565862 
   23200    208.76656   -250.97328    132049.37   -41432.393    2597.4529   -44029.846    22.748477   0.94580908 
   23300     208.7726   -196.63358    132014.09   -41471.628     2597.528   -44069.156    23.046289   0.94606181 
   23400    210.39256   -157.33198    131939.11   -41401.252    2617.6834   -44018.935    23.032304   0.94659949 
   23500    208.88826    5.3863324    131975.48   -41434.307    2598.9671   -44033.274     23.03592   0.94633858 
   23600    210.75212   -8.1748785    132136.51   -41419.408    2622.1571   -44041.566    23.160006   0.94518534 
   23700    205.98303   -200.41231    132197.76   -41439.938    2562.8205   -44002.759    23.158212    0.9447474 
   23800    204.77501    -148.8001    132128.41    -41488.18    2547.7904   -44035.971    23.316265   0.94524327 
   23900      208.007   -56.264863     132117.9   -41496.258    2588.0025    -44084.26    23.339273   0.94531851 
   24000    209.28652   -39.339768    132233.55   -41419.368    2603.9222    -44023.29    23.374266   0.94449168 
   24100    211.51536   -140.40754    132389.42     -41407.7    2631.6532   -44039.353    23.116022   0.94337967 
   24200    212.04393   -138.19512    132463.16   -41476.002    2638.2297   -44114.232     23.46448   0.94285451 
   24300    204.19193   -206.03876    132530.91   -41437.145    2540.5358    -43977.68    23.505814   0.94237252 
   24400    207.78775    -216.4303    132367.23   -41472.609    2585.2746   -44057.884    23.567618   0.94353788 
   24500    210.05341   -19.302503    132362.59   -41426.299    2613.4638   -44039.763    23.581505   0.94357092 
   24600    207.73687   -112.40418    132348.67   -41422.687    2584.6416   -44007.328    23.567168   0.94367014 
   24700    206.24999   -289.66877    132372.02   -41438.995     2566.142   -44005.137    23.634594   0.94350369 
   24800    211.82036   -117.53764    132377.96   -41424.493     2635.448   -44059.941    23.520583   0.94346135 
   24900    213.54559   -44.820689    132416.39   -41382.345    2656.9131   -44039.258    23.571899   0.94318752 
   25000    212.13504   -140.98408    132455.35   -41355.295    2639.3632   -43994.658    23.682997    0.9429101 
   25100     213.1606   -178.91392    132549.44    -41358.11    2652.1232   -44010.234    23.666397   0.94224081 
   25200    208.58515   -210.84357    132584.77     -41398.6    2595.1958   -43993.796      23.9014   0.94198973 
   25300    211.85373    22.472915    132639.84   -41400.563    2635.8632   -44036.427    23.810155   0.94159862 
   25400    210.14775   -147.68532    132683.02   -41399.629    2614.6375   -44014.266     24.10891   0.94129222 
   25500    211.61823   -137.79667    132632.04   -41363.716    2632.9331   -43996.649    23.942199   0.94165401 
   25600    208.13159    -96.88871    132393.41   -41452.298    2589.5526   -44041.851    23.815603   0.94335123 
   25700    208.28279    2.6676024    132447.05   -41477.961    2591.4339   -44069.395    23.818734   0.94296925 
   25800    208.72075   -82.418999    132545.56   -41469.166     2596.883   -44066.049    24.007788   0.94226836 
   25900    211.71473   -96.330826    132648.25   -41439.107    2634.1338    -44073.24    24.228939    0.9415389 
   26000    214.12218   -48.831879     132699.7   -41388.663     2664.087    -44052.75    24.246826   0.94117388 
   26100    211.81947   -131.58252    132590.38   -41488.822    2635.4368   -44124.259    24.242232   0.94194986 
   26200    209.12213   -227.93001    132478.66   -41472.435    2601.8768   -44074.311    24.208735   0.94274422 
   26300    211.02061    -62.57288    132460.97   -41445.336    2625.4976   -44070.834     24.24707   0.94287015 
   26400    216.06828   -102.15794    132652.82   -41435.213    2688.3002   -44123.513      24.1808   0.94150647 
   26500    212.47759   -124.40209    132603.51   -41490.525    2643.6252    -44134.15    24.222662   0.94185658 
   26600    211.28616    -94.36681    132758.42   -41537.595    2628.8015   -44166.396     24.38718   0.94075759 
   26700    207.33584   -145.65159    132602.23   -41557.765     2579.652   -44137.417    24.383122   0.94186572 
   26800    210.25363   -120.49982    132745.19   -41493.783    2615.9549   -44109.738    24.482991   0.94085135 
   26900    211.02502   -153.05062    132610.65   -41501.527    2625.5524   -44127.079    24.495522   0.94180591 
   27000    209.04423   -20.226219    132807.08    -41537.51    2600.9076   -44138.418    24.572768   0.94041291 
   27100    209.85038   -267.19291    132818.37   -41542.649    2610.9377   -44153.587     24.37617   0.94033295 
   27200    206.08156   -322.13655       132707   -41561.802    2564.0464   -44125.848    24.454992   0.94112212 
   27300    209.34266    -182.2809    132748.52   -41596.451    2604.6207   -44201.072    24.633455   0.94082776 
   27400    209.55626   -239.40776    132770.12   -41534.798    2607.2783   -44142.077    24.700468   0.94067468 
   27500    211.25944   -194.81141    132803.61   -41479.101     2628.469    -44107.57    24.739153    0.9404375 
   27600    212.80354   -335.85823    132877.68   -41514.172    2647.6806   -44161.852    24.520141   0.93991324 
   27700    211.06924   -191.98701    132751.44   -41526.543    2626.1026   -44152.645    24.529359   0.94080706 
   27800      212.547   -49.086018    132716.15   -41469.393    2644.4887   -44113.881    24.631124   0.94105725 
   27900    212.13578   -93.702681    132816.15   -41495.969    2639.3724   -44135.342    24.682163   0.94034866 
   28000    209.14568   -217.42933    132810.35    -41540.44    2602.1699    -44142.61    24.702093   0.94038973 
   28100    211.64048    -243.4821    132783.46   -41515.998      2633.21   -44149.208    24.726161   0.94058021 
   28200    207.32927    -173.4751    132833.75   -41557.538    2579.5703   -44137.108    24.796938   0.94022406 
   28300    207.43805   -118.63744    132908.31   -41535.455    2580.9237   -44116.378     24.76258    0.9396966 
   28400    207.84213   -106.32713    132845.82   -41576.023    2585.9512   -44161.974    24.912621   0.94013863 
   28500    207.89031   -181.23564    132839.58   -41586.979    2586.5507    -44173.53    24.794872   0.94018281 
   28600     207.5653   -178.54978    132898.13   -41529.541     2582.507   -44112.048    24.829133   0.93976858 
   28700    206.41666   -310.94062    132836.47    -41536.91    2568.2157   -44105.126    24.734324   0.94020486 
   28800    209.07022     38.44212    132805.77   -41493.133     2601.231   -44094.364     24.78785   0.94042215 
   28900    212.13297   -56.760274    133000.45   -41461.636    2639.3374   -44100.973    25.036727   0.93904561 
   29000    207.62666   -201.67114    133291.76   -41536.037    2583.2704   -44119.307    25.158467   0.93699336 
   29100    208.26516   -120.53969    133110.45   -41494.128    2591.2145   -44085.342    25.273035    0.9382696 
   29200    210.85462   -151.71854     133206.4   -41466.192    2623.4323   -44089.624     25.28231    0.9375938 
   29300    211.51743   -259.33126    133173.57   -41533.968     2631.679   -44165.647    25.421728   0.93782494 
   29400    209.86687   -157.41628     133108.3   -41593.302    2611.1429   -44204.444    25.340138   0.93828474 
   29500    211.19275    -196.5049    133129.44   -41631.518    2627.6393   -44259.157    25.127833   0.93813575 
   29600    209.34927   -120.88369     133195.3   -41551.048    2604.7029   -44155.751    25.262439   0.93767189 
   29700    207.55412   -118.19478    133121.42   -41608.091    2582.3678   -44190.458    25.245928   0.93819232 
   29800    212.90845   -153.24509    133069.37   -41588.662    2648.9859   -44237.648    25.186356   0.93855928 
   29900    206.90343   -120.43401     132866.1   -41616.961    2574.2721   -44191.233    25.173541   0.93999514 
   30000    208.49973   -199.97888    132861.88   -41587.448    2594.1331   -44181.581    25.383218   0.94002505 
   30100     208.4586   -236.43662    132790.26   -41581.957    2593.6213   -44175.578    25.396103   0.94053199 
   30200    208.98775   -115.74501    132793.03   -41580.584    2600.2049   -44180.789    25.426985   0.94051237 
   30300     210.8187    -198.7622     132821.3   -41544.531    2622.9854   -44167.516    25.437755    0.9403122 
   30400    211.69464    32.907522    132881.32   -41528.323    2633.8838   -44162.207     25.63846   0.93988747 
   30500    211.26374    -296.8477    132938.46   -41537.546    2628.5225   -44166.069    25.712689   0.93948348 
   30600    211.82439   -138.34695    132832.99   -41542.523    2635.4982   -44178.021    25.566027   0.94022946 
   30700    209.60511   -129.73236    132761.84   -41559.179    2607.8861   -44167.065    25.679806   0.94073335 
   30800    214.21439   -106.81156       132966   -41497.144    2665.2343   -44162.378    25.680552    0.9392889 
   30900    208.06516    -176.2228    132914.11   -41620.628    2588.7262   -44209.354    25.733137    0.9396556 
   31000    207.69956   -181.20045    133004.31    -41672.66    2584.1773   -44256.838    25.786239   0.93901835 
   31100    206.70998   -104.12495    132964.51   -41668.948    2571.8651   -44240.813    25.807225   0.93929947 
   31200    208.13022   -152.38332    132995.66   -41682.936    2589.5356   -44272.472    25.902331   0.93907948 
   31300    211.28861   -115.53874    133046.31   -41640.369     2628.832   -44269.201    25.762725   0.93872198 
   31400    206.89828   -79.575286     133016.7   -41604.472    2574.2079   -44178.679    25.903829    0.9389309 
   31500    208.77028   -118.52528    133055.79   -41643.693    2597.4991   -44241.192    26.061848   0.93865505 
   31600    210.12665   -148.14512    133151.48   -41579.801     2614.375   -44194.176    26.219984   0.93798047 
   31700    211.18155   -8.9102114    133013.82   -41615.519    2627.4999   -44243.019    26.060431   0.93895126 
   31800     211.6349   -271.95111    132997.16   -41552.593    2633.1405   -44185.733    26.003857   0.93906883 
   31900    213.81732   -128.37644    133018.14   -41546.902     2660.294   -44207.196    25.977288   0.93892074 
   32000    211.57365   -274.91727    132767.77   -41540.469    2632.3785   -44172.848    26.069885   0.94069137 
   32100    210.71586   -53.688012     132710.8   -41547.105    2621.7059   -44168.811    26.224197   0.94109518 
   32200    211.39855   -76.613848    132716.11   -41540.429    2630.1998   -44170.629    26.248214   0.94105749 
   32300     212.5318   -170.38322    132785.17   -41527.791    2644.2997   -44172.091    26.299342   0.94056807 
   32400     208.8702   -138.82829    132750.65   -41589.841    2598.7423   -44188.583    26.375506   0.94081263 
   32500    205.97225   -50.920938     132901.7   -41598.072    2562.6864   -44160.758    26.119194   0.93974335 
   32600    214.10351   -201.64731    132909.29   -41538.016    2663.8547   -44201.871    26.147102   0.93968972 
   32700    209.01287   -260.67129    132716.94   -41609.111    2600.5175   -44209.629    26.315501   0.94105159 
   32800    206.53483   -157.74337    132682.86   -41631.801    2569.6859   -44201.486    26.265552   0.94129336 
   32900    209.70707   -106.04643    132712.88   -41617.958    2609.1546   -44227.112    26.184047   0.94108044 
   33000    208.75723   -86.163183    132721.26    -41661.91    2597.3368   -44259.247    26.349429   0.94102099 
   33100    211.09007   -90.801845    132697.07   -41595.481    2626.3618   -44221.842    26.418234   0.94119255 
   33200    211.26576   -223.84958    132605.02    -41645.35    2628.5477   -44273.897    26.313877   0.94184589 
   33300    209.40377   -62.411939    132573.15   -41579.511     2605.381   -44184.892    26.295243   0.94207228 
   33400    208.61158   -210.48857    132607.91   -41659.273    2595.5247   -44254.797    26.299901   0.94182534 
   33500    209.07922   -132.35615    132789.17   -41628.211     2601.343   -44229.554    26.513047   0.94053976 
   33600    211.15148   -65.201064    132897.43   -41597.058    2627.1258   -44224.183    26.469606   0.93977356 
   33700    210.07746   -112.12412    132924.59   -41583.002     2613.763   -44196.765    26.481047   0.93958155 
   33800    211.59231   -156.21306    133024.41   -41576.567    2632.6106   -44209.177    26.535469   0.93887648 
   33900    210.87541   -82.201467    132875.49   -41590.902    2623.6909   -44214.593    26.436417   0.93992874 
   34000      208.506   -77.666719    132771.83   -41555.774    2594.2111   -44149.985    26.469314   0.94066255 
   34100    208.18725    -89.21143    132742.65    -41572.99    2590.2451   -44163.235    26.518231   0.94086933 
   34200    208.39344   -179.90066    132758.74   -41582.397    2592.8106   -44175.208    26.507938   0.94075532 
   34300    207.80496   -105.65624    132743.49   -41620.387    2585.4887   -44205.876    26.429582   0.94086338 
   34400    213.61432   -145.67436    132821.81   -41560.396    2657.7682   -44218.165    26.674082    0.9403086 
   34500    212.40441   -316.26033    132973.88    -41582.44    2642.7147   -44225.154    26.707577   0.93923324 
   34600    211.18762   -87.406661       133062   -41572.515    2627.5755    -44200.09     26.66053   0.93861129 
   34700    207.13972   -224.00544    132928.62   -41651.064    2577.2119   -44228.275    26.591578   0.93955307 
   34800    207.33486   -87.344538    132817.29   -41634.265    2579.6398   -44213.905    26.759914   0.94034059 
   34900    209.12384   -52.233098    132881.37   -41636.149    2601.8981   -44238.047     26.72729   0.93988713 
   35000    201.02405   -134.35832    132902.01   -41695.025    2501.1214   -44196.146    26.771495    0.9397412 
   35100    208.18006   -223.94339    132787.37   -41622.747    2590.1557   -44212.903    26.710413   0.94055247 
   35200     208.9138    60.817619     132846.9   -41621.098    2599.2848   -44220.383    26.777137   0.94013101 
   35300    206.82975   -6.0092976    132910.14   -41618.879    2573.3553   -44192.234    26.759357   0.93968369 
   35400    211.25042   -46.218383    133144.05   -41645.264    2628.3569   -44273.621    26.767397   0.93803282 
   35500    213.45514   -161.09266    133278.32   -41554.262    2655.7877   -44210.049    26.880717   0.93708781 
   35600    209.78618   -17.011678    133178.56   -41615.671    2610.1389    -44225.81    26.787204   0.93778975 
   35700     211.2826   -169.39861    133194.54   -41586.089    2628.7572   -44214.846    27.041194   0.93767723 
   35800    208.10938   -206.88172    133167.14   -41621.153    2589.2763   -44210.429    27.228574   0.93787016 
   35900    214.01076   -129.00395    133100.35   -41565.717    2662.7007   -44228.418    27.059582   0.93834078 
   36000    211.98093   -189.49676    133148.59   -41530.082    2637.4457   -44167.527    26.998745   0.93800086 
   36100    214.41192   -95.552275    133216.22   -41553.074    2667.6919   -44220.766    27.084921   0.93752469 
   36200    212.31933   -26.114744    133207.54    -41597.78    2641.6561   -44239.436    26.854271   0.93758578 
   36300    206.92299   -320.41641    133089.34   -41659.521    2574.5154   -44234.036    27.005727   0.93841843 
   36400    211.80226   -179.37328    133024.83   -41595.425    2635.2228   -44230.648    27.075965   0.93887355 
   36500    211.07277     -72.1615    133172.88   -41577.683    2626.1466    -44203.83    27.111835   0.93782975 
   36600    211.70639   -109.46065    133198.81   -41696.987    2634.0299   -44331.017    27.196173   0.93764719 
   36700    208.42173   -340.86763    133235.05   -41643.717    2593.1626    -44236.88     27.19674   0.93739215 
   36800    210.36577    -253.6016    133163.41    -41635.84    2617.3501    -44253.19    27.178243   0.93789643 
   36900    208.53139   -225.99704    133067.59   -41653.265     2594.527   -44247.792    27.295766   0.93857184 
   37000    211.72209   -141.82113    133224.44   -41592.911    2634.2254   -44227.136    27.364607   0.93746679 
   37100      213.085   -150.20285    133158.56   -41575.477    2651.1826    -44226.66    27.375237   0.93793063 
   37200    208.37804   -154.62667    133135.66   -41631.842     2592.619   -44224.461    27.203804   0.93809195 
   37300    213.21901   -146.25154    133071.52    -41645.76    2652.8498    -44298.61    27.168679   0.93854413 
   37400    204.58774   -83.218297    133225.52   -41670.745    2545.4605   -44216.205    27.456243   0.93745919 
   37500    207.09911   -109.78931    133331.96   -41680.788    2576.7067   -44257.494    27.599552   0.93671083 
   37600    206.77382   -231.53443    133325.07   -41635.985    2572.6595   -44208.645    27.552665   0.93675926 
   37700     210.4671   -238.67524    133397.19    -41652.29    2618.6109   -44270.901    27.479321   0.93625282 
   37800    202.95097   -64.547498     133247.4   -41748.723    2525.0959   -44273.819    27.463048   0.93730531 
   37900    208.88686   -105.11696     133162.2   -41707.414    2598.9497   -44306.363    27.494851   0.93790498 
   38000    206.07721   -101.93526    133193.49   -41683.871    2563.9922   -44247.863    27.564753   0.93768465 
   38100    209.59189   -236.33826    133154.96   -41634.567    2607.7216   -44242.288    27.406963     0.937956 
   38200    210.34707   -33.513478    133090.66   -41646.432    2617.1175    -44263.55     27.49489   0.93840913 
   38300    209.49621    -162.9574    133125.14   -41585.129    2606.5311    -44191.66    27.518247   0.93816608 
   38400    210.21869   -107.62547    133040.56   -41648.783    2615.5202   -44264.303    27.630205   0.93876253 
   38500    210.43027   -28.456869    133090.57   -41652.031    2618.1526   -44270.183     27.46514   0.93840977 
   38600    212.18813   -200.76943    133239.66    -41615.78    2640.0238   -44255.804    27.532121    0.9373597 
   38700     209.8235   -102.57936     133107.2   -41633.308    2610.6032   -44243.911    27.570019   0.93829251 
   38800    211.52608   -274.18267    133111.77   -41658.371    2631.7865   -44290.157    27.562647    0.9382603 
   38900    211.62785   -211.88059       133040   -41619.998    2633.0528   -44253.051    27.649519   0.93876644 
   39000    209.79043   -11.457507    133045.65   -41656.038    2610.1918    -44266.23    27.410262    0.9387266 
   39100    210.34579   -100.50732    133114.74   -41628.992    2617.1015   -44246.093    27.596038   0.93823936 
   39200    205.71741   -215.21362    133065.49   -41644.366    2559.5157   -44203.882    27.554042   0.93858667 
   39300    206.55229   -247.92399    133218.72   -41635.454    2569.9031   -44205.357    27.671141   0.93750707 
   39400      213.385    46.160609    133323.29    -41604.61    2654.9151   -44259.525    27.703277   0.93677171 
   39500    211.98336   -110.48872    133381.34   -41587.639     2637.476   -44225.115    27.694531   0.93636401 
   39600    208.39708   -262.99284    133222.33   -41628.698    2592.8559   -44221.554    27.833653   0.93748169 
   39700    212.17987   -120.38587    133104.22    -41575.74     2639.921    -44215.66    27.820537   0.93831355 
   39800    209.85475    -212.4142    133145.11   -41630.996    2610.9921   -44241.988    27.734168   0.93802534 
   39900    209.71849    32.212235    133088.61   -41670.692    2609.2967   -44279.989    27.857373   0.93842357 
   40000    204.07171   -216.91783    133116.79   -41690.416      2539.04   -44229.456    28.017589    0.9382249 
   40100    206.48499   -161.03664    133056.46   -41599.805    2569.0659   -44168.871    27.974381   0.93865031 
   40200    212.40258   -114.55062    133105.29    -41623.18    2642.6919   -44265.872    27.862288   0.93830597 
   40300      213.926   -203.14101     133077.7   -41601.966    2661.6461   -44263.612    27.989461   0.93850052 
   40400    210.79081   -97.249157    133202.54   -41517.035    2622.6385   -44139.673    28.082242   0.93762091 
   40500    211.25354    -153.3813    133209.98   -41522.747    2628.3957   -44151.142    28.096916   0.93756858 
   40600    213.02733   -102.41073    133142.55   -41565.689     2650.465   -44216.154    28.148763   0.93804343 
   40700    212.16636   -130.39322    133120.54   -41616.138    2639.7529   -44255.891     27.87836   0.93819853 
   40800    207.93187   -291.10499    133178.86   -41657.588    2587.0678   -44244.656    27.947139   0.93778764 
   40900    207.26971    -90.19081    133215.48   -41674.611    2578.8292    -44253.44    28.182632   0.93752988 
   41000    209.57197   -172.88485    133196.66   -41594.202    2607.4737   -44201.676    28.257151   0.93766231 
   41100    215.89037   -190.19164    133193.51   -41577.295    2686.0867   -44263.382    28.197761   0.93768452 
   41200    212.50393   -2.3538669    133373.75   -41600.727    2643.9528    -44244.68    28.263664   0.93641733 
   41300    209.70458   -231.61907    133224.59   -41755.227    2609.1237   -44364.351    28.283152   0.93746577 
   41400    206.73367   -168.25746    133354.44   -41708.161    2572.1599   -44280.321    28.372537   0.93655294 
   41500    205.75044   -255.67275    133361.91   -41697.919    2559.9266   -44257.845    28.240313   0.93650046 
   41600    206.91687   -132.68634    133350.62   -41663.158    2574.4393   -44237.597    28.314656   0.93657973 
   41700     209.2816   -196.39272    133287.95   -41636.137    2603.8609   -44239.998    28.167128   0.93702011 
   41800    211.05565   -183.92442    133352.83    -41644.81    2625.9335   -44270.743    28.410975   0.93656424 
   41900     211.1977   -102.09741    133443.55   -41624.657     2627.701   -44252.357    28.463776   0.93592749 
   42000    209.35008   -145.87496    133372.24   -41616.801     2604.713   -44221.514    28.297084   0.93642795 
   42100    209.77145   -137.20659    133488.25    -41619.61    2609.9557   -44229.565    28.236252   0.93561413 
   42200      210.797   -237.35932    133448.52   -41587.063    2622.7154   -44209.778    28.215619   0.93589265 
   42300    215.64069   -106.18554    133686.54   -41568.017    2682.9801   -44250.997    28.372989    0.9342264 
   42400     210.9274   -216.16583    133557.59   -41606.643    2624.3378   -44230.981    28.327132   0.93512839 
   42500    210.33146   -200.35098     133641.3   -41609.012    2616.9233   -44225.936    28.307385   0.93454264 
   42600    211.13654   -89.879068    133492.33   -41605.734      2626.94   -44232.674    28.481622    0.9355855 
   42700    209.44619    29.119836    133495.87   -41616.641    2605.9088    -44222.55    28.419693    0.9355607 
   42800    211.98321   -81.368433    133500.78   -41566.869    2637.4742   -44204.343    28.432343   0.93552631 
   42900    212.48688   -94.919025    133671.07   -41636.321    2643.7408   -44280.062    28.713853   0.93433451 
   43000    206.42962   -190.47037    133570.62   -41668.221     2568.377   -44236.598    28.632782   0.93503711 
   43100    213.54657     -144.654    133495.91    -41652.53    2656.9253   -44309.455    28.596234   0.93556045 
   43200    210.76024   -146.71792    133343.43   -41614.924    2622.2581   -44237.182    28.529222   0.93663024 
   43300    206.20931   -220.03849    133356.97   -41620.546    2565.6358   -44186.182    28.430891   0.93653514 
   43400    212.71217   -131.03878    133497.16   -41576.161    2646.5438   -44222.705    28.538031   0.93555167 
   43500    212.22895   -102.20325    133552.79    -41588.95    2640.5317   -44229.481    28.552242     0.935162 
   43600    212.17271   -94.422499    133507.71   -41501.897    2639.8319   -44141.729    28.734843   0.93547774 
   43700     213.2074   -165.55354    133532.72    -41537.34    2652.7054   -44190.045    28.869195   0.93530255 
   43800    210.07045   -28.814659    133574.29   -41546.565    2613.6758   -44160.241    28.722419   0.93501149 
   43900    211.11775   -267.29619    133533.48   -41591.471    2626.7062   -44218.177    28.544618   0.93529721 
   44000    207.36726   -200.77096    133558.44   -41621.225     2580.043   -44201.268    28.444834    0.9351224 
   44100    207.98558    -187.5897    133310.75   -41638.858     2587.736   -44226.594    28.529409   0.93685988 
   44200    207.76681   -244.56399    133344.12   -41665.425    2585.0141   -44250.439    28.720809   0.93662539 
   44300    204.74085   -164.21322    133279.67    -41658.33    2547.3654   -44205.696    29.077446   0.93707831 
   44400    209.99364   -79.021691    133277.04   -41621.759    2612.7201   -44234.479    29.090196   0.93709681 
   44500    209.14905   -71.987713    133399.11   -41656.275    2602.2118   -44258.486    28.955176   0.93623932 
   44600    204.73069   -246.61149    133361.12   -41716.487     2547.239   -44263.726     28.83578   0.93650602 
   44700    211.15339    -175.4525    133300.72   -41694.601    2627.1497   -44321.751    28.849227   0.93693033 
   44800    207.57126   -130.82975    133351.54   -41651.021    2582.5811   -44233.602    28.997109    0.9365733 
   44900    212.63311   -150.53682    133511.79   -41605.587    2645.5601   -44251.147    29.092602   0.93544916 
   45000    212.45407   -316.13947    133505.16   -41608.615    2643.3326   -44251.948     28.97258   0.93549563 
   45100    213.50029   -108.11393    133634.52   -41554.232    2656.3495   -44210.582    29.076193   0.93459001 
   45200    210.80066   -102.63963    133583.29   -41613.728     2622.761   -44236.488    28.969895   0.93494848 
   45300    209.01058    -143.7564    133571.31   -41635.804     2600.489   -44236.293    29.155333   0.93503229 
   45400    206.36944    -310.2182     133514.6   -41604.184    2567.6282   -44171.812    29.163314   0.93542948 
   45500    211.32662   -240.88988    133659.92   -41616.099    2629.3049   -44245.404    29.313816   0.93441246 
   45600    211.33494   -121.90473    133576.52   -41619.326    2629.4084   -44248.735    29.310286   0.93499586 
   45700    209.28384   -171.61646    133700.49    -41631.61    2603.8889   -44235.499    29.312732   0.93412887 
   45800    209.48286   -117.40813     133491.4    -41586.38    2606.3651   -44192.745    29.243641   0.93559201 
   45900    213.97817   -1.9673266    133739.87   -41518.272    2662.2953   -44180.567    29.313377   0.93385384 
   46000    214.05784   -140.49831    133777.91     -41509.4    2663.2865   -44172.686    29.226732   0.93358826 
   46100     214.3842   -24.375254    133606.92   -41465.629    2667.3471   -44132.976    29.085712   0.93478313 
   46200     218.1639   -169.82395    133725.12   -41466.325    2714.3736   -44180.699    29.102768   0.93395685 
   46300    212.87298   -140.47549    133625.33   -41491.312    2648.5445   -44139.857    29.229485   0.93465432 
   46400    214.72322   -178.49457    133565.97   -41532.439    2671.5651   -44204.004    29.380677   0.93506969 
   46500    216.96103   -117.76924    133644.37   -41542.477    2699.4077   -44241.885    29.358995   0.93452117 
   46600    210.58236   -193.38502    133677.71   -41534.428    2620.0449   -44154.473    29.385144   0.93428807 
   46700    208.98222   -107.13479    133633.58   -41618.961    2600.1361   -44219.097     29.34235   0.93459658 
   46800    208.91038   -334.18648    133592.15   -41676.348    2599.2422    -44275.59     29.45461   0.93488642 
   46900     208.8169   -216.71464    133569.37   -41610.228    2598.0792   -44208.307    29.309039   0.93504588 
   47000     213.5016   -118.20361    133693.15   -41598.602    2656.3658   -44254.968    29.304039   0.93418017 
   47100    211.88156   -71.956996    133758.72   -41592.009    2636.2095   -44228.218    29.556818   0.93372224 
   47200    215.90892   -102.00496    133873.46   -41642.507    2686.3174   -44328.824    29.585678   0.93292197 
   47300    208.93151   -54.498473    133585.51    -41668.62    2599.5051   -44268.125    29.622119    0.9349329 
   47400    211.08499   -140.43181    133667.83   -41629.418    2626.2986   -44255.717    29.495729   0.93435715 
   47500    215.27681   -230.21011    133732.26   -41574.481    2678.4529   -44252.934    29.433376   0.93390699 
   47600    209.93693   -125.96068     133688.4   -41551.375    2612.0145    -44163.39    29.568386   0.93421338 
   47700    212.49184    -202.2416    133638.37   -41596.416    2643.8025   -44240.218    29.529974    0.9345631 
   47800    212.14222   -125.18145     133655.3   -41610.594    2639.4526   -44250.047    29.721589   0.93444475 
   47900    211.70583   -74.287927    133567.66   -41691.788     2634.023   -44325.811    29.682216   0.93505788 
   48000    210.41801   -82.102398    133662.67   -41715.334    2618.0001   -44333.334    29.738034   0.93439317 
   48100    208.17353   -87.703262    133624.61   -41679.312    2590.0744   -44269.387    29.815536   0.93465933 
   48200    205.83806   -203.66193    133560.32   -41712.322    2561.0168   -44273.338    29.822338   0.93510928 
   48300    209.91122   -90.454522    133574.11   -41704.928    2611.6947   -44316.623    29.765201   0.93501269 
   48400    214.26622   -138.13967    133567.96   -41626.407    2665.8791   -44292.286    29.847509   0.93505574 
   48500    213.17593    56.519311    133527.85   -41688.482    2652.3138   -44340.796    29.733765   0.93533664 
   48600    208.68125   -170.18157    133649.31   -41692.646    2596.3914   -44289.037     29.95617   0.93448665 
   48700    212.28176    5.5795599    133711.87   -41656.397    2641.1887   -44297.585    30.001143   0.93404943 
   48800    209.93718   -102.75591    133805.82   -41686.506    2612.0176   -44298.523    29.948756   0.93339357 
   48900    209.50296   -66.301966    133835.02   -41691.324    2606.6152   -44297.939    29.885196   0.93318989 
   49000    208.08049    -194.8879    133802.54   -41727.698    2588.9169   -44316.614    29.900533   0.93341647 
   49100    210.46218   -154.70303    133758.91   -41724.579    2618.5496   -44343.129    30.258828    0.9337209 
   49200    210.72431   -134.55029    133849.22   -41752.506    2621.8111   -44374.317    30.157501   0.93309094 
   49300    207.82627   -189.01144    133837.65   -41710.931     2585.754   -44296.685    30.133466   0.93317156 
   49400    210.36878   -145.88127    133889.79   -41688.152    2617.3875    -44305.54    30.064384   0.93280821 
   49500    211.18611   -179.37019     133847.7   -41705.304    2627.5567   -44332.861    30.107771   0.93310152 
   49600    208.29784   -142.43591     133935.1   -41704.695    2591.6212   -44296.316    30.214142   0.93249264 
   49700    204.93949   -118.95633     133776.4   -41713.825    2549.8369   -44263.662    30.191338   0.93359887 
   49800    210.20978   -193.51151    133677.61   -41762.424    2615.4093   -44377.834     30.20255    0.9342888 
   49900    211.40596   -121.82608    133757.21    -41653.82     2630.292   -44284.112    30.176591   0.93373278 
   50000    212.06041   -163.36146    133770.56   -41697.669    2638.4347   -44336.104    30.141479   0.93363958 
   50100    210.80027   -239.45375    133694.66   -41712.215    2622.7561   -44334.972    30.104342   0.93416961 
   50200    207.69798   -142.32254    133605.94   -41748.498    2584.1577   -44332.656    30.210752   0.93478997 
   50300    210.85913   -204.98073     133717.7    -41711.98    2623.4885   -44335.469    30.294576    0.9340087 
   50400     206.8803   -191.26876    133824.52   -41737.498    2573.9842   -44311.483    30.394213   0.93326311 
   50500    212.61911   -45.692011    133665.74   -41774.771     2645.386   -44420.157    30.334495   0.93437176 
   50600    211.60167   -190.01002    133619.34   -41790.722    2632.7271   -44423.449    30.161111   0.93469619 
   50700    205.98122   -334.18881    133690.76   -41804.951     2562.798   -44367.749     30.34302    0.9341969 
   50800    204.57413    -223.8779    133540.68   -41791.118    2545.2911   -44336.409    30.428033   0.93524678 
   50900    214.53523   -113.82141    133569.55   -41702.891    2669.2261   -44372.117    30.479944   0.93504466 
   51000    208.55383   -34.886532    133743.33   -41728.401    2594.8062   -44323.207    30.534992   0.93382971 
   51100    210.65591   -81.346595    133542.08   -41758.859      2620.96   -44379.819    30.452403   0.93523698 
   51200    205.77806   -129.22196    133704.27   -41740.523    2560.2703   -44300.794      30.3859   0.93410248 
   51300    204.18648    -161.0626    133651.66   -41810.965     2540.468   -44351.433    30.478457    0.9344702 
   51400      204.289   -151.94816    133623.34   -41806.832    2541.7435   -44348.575     30.44398   0.93466824 
   51500    210.34473   -100.23307    133680.82   -41798.133    2617.0883   -44415.221    30.575423   0.93426633 
   51600    206.99834   -224.55407    133901.83   -41750.952    2575.4528   -44326.405    30.610998   0.93272433 
   51700    208.27137   -157.90952    133778.39   -41751.685    2591.2918   -44342.977    30.707814   0.93358497 
   51800    207.99955   -95.228711    133918.99   -41793.829    2587.9098   -44381.739    30.590142   0.93260477 
   51900     210.2862   -154.03553    133972.44   -41834.845    2616.3601   -44451.206     30.62517   0.93223272 
   52000    207.99317   -135.76459    133855.59   -41860.392    2587.8305   -44448.223    30.618041   0.93304653 
   52100    204.54667   -130.39477    133858.13   -41812.459    2544.9495   -44357.408    30.565164   0.93302882 
   52200    209.89161    -163.7843    134043.72    -41839.39    2611.4507   -44450.841    30.677551   0.93173698 
   52300    207.34278   -164.17842    133956.62    -41830.96    2579.7383   -44410.699    30.655744   0.93234278 
   52400    208.86262   -168.69266    133900.05   -41784.571    2598.6481    -44383.22    30.790298   0.93273673 
   52500    207.94186   -110.90627    133911.51   -41787.817    2587.1921   -44375.009    30.552714   0.93265685 
   52600    208.46575   -202.27686    133841.49   -41818.933    2593.7103   -44412.643    30.658055   0.93314483 
   52700    210.52393   -97.879342    133992.24   -41833.345    2619.3179   -44452.663    30.653448   0.93209499 
   52800    209.88836   -58.730139    133995.24   -41791.204    2611.4102   -44402.614    30.678261   0.93207406 
   52900    204.33697   -117.78732    133982.57   -41784.738    2542.3404   -44327.078    30.743932   0.93216225 
   53000    212.13505   -204.08225    134037.88   -41759.398    2639.3634   -44398.761    30.716278   0.93177759 
   53100     210.0385   -81.776261    134050.76   -41799.546    2613.2783   -44412.825    30.872387   0.93168806 
   53200    205.37129   -296.84056    134078.45   -41782.674    2555.2093   -44337.884    30.837342   0.93149562 
   53300    212.48399    -98.74822    133976.84   -41779.268    2643.7049   -44422.972    30.856554   0.93220211 
   53400    206.55658   -139.42271    133979.44   -41852.925    2569.9566   -44422.882    30.807671     0.932184 
   53500    209.91446    -232.0874    133947.24   -41855.119    2611.7349   -44466.854    30.980931   0.93240807 
   53600    207.10293   -97.589318    133798.34   -41857.931    2576.7542   -44434.685    31.052153   0.93344571 
   53700    206.65441   -70.513858    133863.12   -41871.139    2571.1738   -44442.312     30.94211   0.93299402 
   53800    208.52253   -168.40758    133888.25    -41756.26    2594.4168   -44350.677    30.986281   0.93281888 
   53900    206.27453   -110.06777    133965.28   -41792.715    2566.4473   -44359.162     31.11562   0.93228251 
   54000     209.8482   -165.25602    133859.69   -41764.136    2610.9105   -44375.047    31.125381   0.93301791 
   54100     212.6061   -160.29373    133790.43   -41764.622    2645.2241   -44409.846    31.328294   0.93350092 
   54200    209.37368   -115.22865    133939.57   -41750.361    2605.0066   -44355.367    31.277863    0.9324615 
   54300    213.19517   -117.79016    133816.75   -41732.159    2652.5533   -44384.712    31.251169   0.93331735 
   54400    211.38529   -231.20959    133931.52   -41767.763    2630.0349   -44397.798    31.160387   0.93251753 
   54500    208.80638   -200.08222    133878.51   -41755.611    2597.9484    -44353.56    31.134156   0.93288678 
   54600    215.22115   -10.272018    133734.98   -41662.847    2677.7603   -44340.607    31.313134   0.93388796 
   54700    214.28386   -17.379847    133782.24   -41684.533    2666.0987   -44350.632    31.104215   0.93355809 
   54800    211.42969   -153.64674    133923.36   -41756.472    2630.5873   -44387.059    31.325949   0.93257438 
   54900    207.56767   -56.798804    133783.34    -41802.67    2582.5365   -44385.206    31.258921   0.93355043 
   55000    207.64898   -88.256383    133848.18   -41869.606    2583.5481   -44453.154    31.405787   0.93309817 
   55100    206.09874   -139.28561    133949.13   -41831.938    2564.2602   -44396.198    31.321081   0.93239494 
   55200    206.95938   -67.519533    133944.37   -41843.065    2574.9682   -44418.033    31.148977   0.93242807 
   55300    210.35755   -120.16235    133964.09   -41799.433    2617.2479   -44416.681    31.379345   0.93229081 
   55400     211.1576   -169.11646    134043.15   -41781.744     2627.202   -44408.946    31.677479   0.93174097 
   55500    211.33294   -36.524456    133865.75   -41725.483    2629.3835   -44354.867    31.405366   0.93297569 
   55600    210.27643     -13.9107    134009.14    -41761.15    2616.2386   -44377.389    31.438956    0.9319774 
   55700    211.57635   -59.355313    134129.08   -41768.983     2632.412   -44401.395    31.502668   0.93114401 
   55800    211.20154   -199.95941    134191.83    -41782.86    2627.7487   -44410.609    31.547911   0.93070857 
   55900    211.60587   -143.03562    134167.76   -41756.844    2632.7793   -44389.624    31.542435    0.9308756 
   56000    213.24178   -48.306461    134210.81   -41749.381    2653.1332   -44402.514    31.500906   0.93057698 
   56100    209.17273   -125.49526    134070.52   -41727.747    2602.5065   -44330.253    31.404225   0.93155077 
   56200    212.67618   -139.57277    134050.16   -41739.986     2646.096   -44386.082    31.537651   0.93169225 
   56300    211.72321   -67.369222    134021.65    -41775.84    2634.2392   -44410.079    31.555259   0.93189041 
   56400    209.60475   -199.09909    134145.75   -41761.579    2607.8816    -44369.46    31.575142    0.9310283 
   56500    205.94011   -249.35281    134148.58   -41843.285    2562.2865   -44405.572    31.670794   0.93100865 
   56600    211.74312   -227.05198    134036.84   -41853.449    2634.4869   -44487.936    31.482633    0.9317848 
   56700    206.68803   -162.52933    134023.03   -41886.303     2571.592   -44457.895    31.386095   0.93188083 
   56800    213.50816   -141.23384    134094.35   -41825.467    2656.4475   -44481.915    31.491449   0.93138518 
   56900    210.55634   -168.03328     134061.9   -41817.911    2619.7212   -44437.633    31.497431   0.93161061 
   57000    209.54884   -250.90968     134003.5   -41769.303     2607.186   -44376.489    31.507342   0.93201666 
   57100    213.07935   -82.571221    133975.81   -41835.342    2651.1122   -44486.454    31.540259   0.93220928 
   57200    208.23356   -133.06056    134029.56   -41877.667    2590.8213   -44468.488     31.54461   0.93183544 
   57300    206.75553    -84.14073    133914.67   -41935.336    2572.4319   -44507.768    31.609986    0.9326349 
   57400    201.68686   -161.10331    134013.28   -41931.607     2509.368   -44440.975    31.463582   0.93194862 
   57500    207.11226   -199.52895     134091.6   -41980.472    2576.8703   -44557.342    31.421627   0.93140432 
   57600    206.91034   -213.48184    134046.58   -41934.452     2574.358    -44508.81     31.69124   0.93171709 
   57700    203.16447   -80.856087    134104.08   -41966.181    2527.7523   -44493.934    31.838514   0.93131762 
   57800    207.19173   -128.91365    134042.23   -41993.301     2577.859    -44571.16    31.642876   0.93174735 
   57900    204.87939   -222.34124    133973.38   -41956.804    2549.0892   -44505.894    31.720548   0.93222619 
   58000    205.83208   -135.52072    133843.21   -41958.138    2560.9424   -44519.081    31.690777   0.93313283 
   58100    204.84113   -25.831299    134008.58   -41885.306    2548.6131   -44433.919    31.773669   0.93198131 
   58200    208.85218   -42.687552    133924.71   -41837.867    2598.5182   -44436.385    31.647422   0.93256496 
   58300    214.36826   -223.92889    134023.31   -41776.378    2667.1487   -44443.527    31.599618   0.93187891 
   58400    211.39241   -118.91365    133978.52   -41780.428    2630.1234   -44410.551    31.774983   0.93219041 
   58500    212.50672   -240.55994    133924.87   -41795.229    2643.9877   -44439.217    31.781115   0.93256383 
   58600     210.6274   -193.96015    133838.74   -41768.483    2620.6053   -44389.088    31.694857   0.93316396 
   58700    213.57782   -159.95694    133708.85   -41766.597    2657.3142   -44423.911     31.72397   0.93407047 
   58800    210.44344    31.985053    133823.97   -41808.339    2618.3165   -44426.656    31.862519   0.93326695 
   58900    209.91853    -68.00988    133853.95   -41851.813    2611.7856   -44463.599    31.903433   0.93305794 
   59000     206.3056   -295.13985    133792.12   -41835.054    2566.8339   -44401.888    31.903328   0.93348916 
   59100    208.43326    -152.1119    133785.35   -41828.823     2593.306   -44422.129    31.950809   0.93353637 
   59200    208.42423   -100.67692    133875.22   -41843.035    2593.1936   -44436.229    31.868945   0.93290969 
   59300    208.70869   -191.61247    133870.67   -41838.729    2596.7329   -44435.462    31.794891   0.93294139 
   59400    209.07876   -80.362124    133887.81   -41885.565    2601.3373   -44486.902    31.982277   0.93282198 
   59500    206.75516   -176.41369    133838.39   -41849.053    2572.4273    -44421.48    32.009084   0.93316644 
   59600    207.85809   -239.79239       133779   -41846.313    2586.1498   -44432.463    32.096352   0.93358072 
   59700    210.40582   -227.12673     133799.2   -41864.086    2617.8484   -44481.934    32.054933   0.93343975 
   59800     210.2327   -123.54227    133850.28   -41866.571    2615.6945   -44482.266    31.955548   0.93308349 
   59900    209.76751    -125.2396    133944.62   -41841.415    2609.9066   -44451.322    31.982132   0.93242635 
   60000    207.53909   -186.54852    133850.09   -41872.279    2582.1808   -44454.459    32.031304   0.93308486 
   60100    212.86022   -88.049784    133971.66   -41839.349    2648.3858   -44487.735    31.830788   0.93223812 
   60200    210.83352   -199.67587    134011.88    -41807.23    2623.1699     -44430.4    32.042543   0.93195837 
   60300    212.81047    -148.4842    134206.56   -41771.988    2647.7669   -44419.755    32.326993   0.93060643 
   60400    213.81405   -88.241162    134286.44   -41730.173    2660.2533   -44390.427     32.28428   0.93005287 
   60500    214.12473   -290.85323    134200.62   -41766.114    2664.1187   -44430.233    32.207852   0.93064767 
   60600    212.19671   -201.11661     134157.2    -41818.19    2640.1305   -44458.321    32.069894   0.93094888 
   60700    212.46857   -174.68618    134044.59    -41842.64     2643.513   -44486.153    32.144884   0.93173091 
   60800    214.60053   -141.60882    133961.26   -41790.172    2670.0386    -44460.21    32.085561    0.9323105 
   60900    209.73449   -48.564149    133974.27   -41785.912    2609.4958   -44395.408    32.227205   0.93221999 
   61000    211.41472   -31.207566    133965.03   -41824.908     2630.401   -44455.309    32.285383   0.93228429 
   61100    208.85338   -199.14083    134021.86   -41856.301    2598.5331   -44454.834    32.256327   0.93188894 
   61200    208.82257   -202.22635    133935.39   -41848.119    2598.1498   -44446.269    32.273149   0.93249056 
   61300    209.97755   -111.50624    133838.54   -41841.126    2612.5199   -44453.646    32.078865   0.93316536 
   61400    203.11907   -226.19012    133791.56   -41872.556    2527.1874   -44399.743    32.063673   0.93349304 
   61500    209.89265   -31.987157    133773.76   -41867.146    2611.4635   -44478.609    32.180628   0.93361727 
   61600     209.8289   -175.62264    133699.48   -41827.448    2610.6705   -44438.118     32.22127   0.93413595 
   61700    210.75486   -113.10162    133839.91   -41895.694    2622.1912   -44517.885    32.262664   0.93315581 
   61800    205.58864   -146.08103    133807.87   -41961.509    2557.9136   -44519.422    32.206478    0.9333793 
   61900    206.60055   -234.15223     133953.5   -41902.645    2570.5036   -44473.149    31.937617   0.93236449 
   62000    206.50491   -110.45401    134004.11   -41853.151    2569.3136   -44422.465    32.029087   0.93201239 
   62100     208.9076   -160.22172    134137.05   -41859.033    2599.2078   -44458.241    32.215193   0.93108872 
   62200    210.57739   -102.80077    134008.37   -41807.471    2619.9831   -44427.454     32.08384   0.93198276 
   62300    207.01166   -202.08191    133962.92   -41837.074    2575.6186   -44412.693    32.192288   0.93229894 
   62400    209.95319   -170.96799    134075.93   -41779.778    2612.2169   -44391.995     32.24219   0.93151318 
   62500    207.83953   -104.62197     133945.3   -41792.992    2585.9188   -44378.911     32.48755   0.93242161 
   62600    209.82895   -231.19745     133946.5   -41796.116    2610.6711   -44406.787    32.452861   0.93241326 
   62700    212.86503   -107.56452    134041.25   -41823.613    2648.4456   -44472.058    32.310888   0.93175415 
   62800    206.76624   -77.716199    133989.62   -41807.632    2572.5652   -44380.197     32.38159   0.93211319 
   62900    211.25801   -183.23801    134064.61   -41768.247    2628.4513   -44396.698    32.344158   0.93159183 
   63000    211.41003   -140.56619    134144.66   -41740.331    2630.3428   -44370.673    32.407888   0.93103591 
   63100    215.97882    -198.4452    133995.98   -41730.494    2687.1871   -44417.682    32.536502   0.93206897 
   63200    211.22272   -74.629632    134096.45   -41765.076    2628.0122   -44393.089    32.430605    0.9313706 
   63300    209.18577   -228.96493    133842.87   -41796.311    2602.6687   -44398.979    32.472802   0.93313519 
   63400    213.65322    6.9839796    134090.01   -41727.269    2658.2522   -44385.521    32.494558   0.93141531 
   63500    210.08847   -46.467655    134145.45   -41818.386    2613.8999   -44432.286    32.437411   0.93103039 
   63600    209.87697   -187.68514    134166.96   -41822.928    2611.2685   -44434.196    32.590722   0.93088112 
   63700    208.87909   -87.160173    134115.51   -41825.622     2598.853   -44424.475    32.486513   0.93123826 
   63800    205.33488   -144.51722    134095.13    -41930.97    2554.7563   -44485.726     32.44529   0.93137974 
   63900    206.01695     -98.4597    134164.28   -41912.881    2563.2425   -44476.123    32.525945   0.93089969 
   64000    210.59793   -48.624039    133994.79   -41899.699    2620.2386   -44519.937    32.400878   0.93207724 
   64100     210.4426   -89.552416    133905.32   -41822.216     2618.306   -44440.522    32.532563   0.93270002 
   64200     207.8352   -128.42168     133847.9   -41812.002    2585.8651   -44397.867    32.525207   0.93310015 
   64300    214.59942   -314.43243    133820.17   -41719.248    2670.0248   -44389.273    32.497936   0.93329346 
   64400    210.31322   -148.69087    133637.63   -41748.427    2616.6963   -44365.123    32.455293   0.93456827 
   64500    213.69078   -122.84723    133728.72   -41740.183    2658.7195   -44398.903    32.533878   0.93393169 
   64600    208.76468   -151.73006    133977.56   -41796.445    2597.4295   -44393.874    32.638338   0.93219712 
   64700    211.64265   -156.98598    133932.28   -41817.122     2633.237   -44450.359    32.711458   0.93251226 
   64800    212.54608   -88.304214    133900.71   -41830.984    2644.4773   -44475.461    32.560741   0.93273212 
   64900    208.93692   -172.87479    134012.48   -41818.103    2599.5724   -44417.676    32.620108   0.93195421 
   65000    212.00886   -128.10402    133984.68   -41785.819    2637.7933   -44423.613    32.545421   0.93214752 
   65100     212.9164   -32.506704    133958.64   -41804.804    2649.0848   -44453.889    32.651638   0.93232872 
   65200    214.45398   -75.666184    133995.63   -41793.699    2668.2152   -44461.915    32.667831   0.93207138 
   65300    212.13865   -122.52235    133901.15   -41802.151    2639.4081   -44441.559    32.699273   0.93272902 
   65400    215.24777   -196.55232    133940.46   -41748.186    2678.0914   -44426.277    32.715298    0.9324553 
   65500    212.65705   -166.40862    133958.96   -41814.173     2645.858   -44460.031    32.666019    0.9323265 
   65600     209.2352   -220.95072    134045.89   -41850.767    2603.2836    -44454.05    32.778971   0.93172192 
   65700    207.47626   -127.24713    133925.68   -41899.802    2581.3991   -44481.201    32.936829   0.93255818 
   65800    209.38072   -215.76554    134006.73   -41914.467    2605.0942   -44519.561    32.834431    0.9319942 
   65900    207.93567   -81.458282    134114.71   -41892.378    2587.1151   -44479.493    32.857685    0.9312438 
   66000    211.50416   -173.89012    134018.69   -41792.812    2631.5138   -44424.326    32.863711   0.93191102 
   66100    214.69175   -138.86693    134207.05   -41754.172    2671.1735   -44425.346    32.810431   0.93060304 
   66200    209.65161   -142.05904    134174.08    -41722.72    2608.4646   -44331.185    32.828751   0.93083173 
   66300    213.60279   -167.05499    134182.59   -41759.814    2657.6247   -44417.439    32.971377   0.93077272 
   66400    214.08458   -193.05358    134161.23   -41814.378    2663.6192   -44477.998    32.976952   0.93092085 
   66500    210.44124   -30.727138    134183.46   -41829.842    2618.2891   -44448.131    32.914422   0.93076667 
   66600    209.98582   -191.26492    134321.47   -41848.006    2612.6228   -44460.628    32.930759   0.92981035 
   66700    209.92761   -68.837565    134256.39    -41862.54    2611.8986   -44474.438    32.876753   0.93026103 
   66800    213.32425   -208.12248    134277.02   -41808.066    2654.1592   -44462.225    33.013162   0.93011812 
[...]
   84600    209.47628   -81.245396    133939.98   -41927.919    2606.2832   -44534.202    35.356202   0.93245861 
   84700    204.25686   -180.67872    133908.26   -41937.529    2541.3436   -44478.873    35.310102    0.9326795 
   84800     208.7512    -10.21432    134048.37   -41896.776    2597.2618   -44494.038    35.457519   0.93170465 
   84900    207.05905   -136.96058    133960.64   -41876.562    2576.2082    -44452.77    35.408716   0.93231486 
   85000    210.14839   -223.56945    134010.01    -41829.03    2614.6456   -44443.675    35.357588   0.93197139 
   85100    207.67271   -45.850611     133980.8   -41837.821    2583.8433   -44421.665    35.315032   0.93217452 
   85200    212.93474   -189.89131    134083.17   -41857.932     2649.313   -44507.245    35.411404   0.93146284 
   85300    210.57976   -51.137387     134216.9   -41909.056    2620.0126   -44529.069    35.310794   0.93053476 
   85400     208.6095   -217.76754    134191.74    -41902.71    2595.4988   -44498.209    35.327069   0.93070924 
   85500    210.38389   -274.29855    134217.68   -41873.129    2617.5755   -44490.705     35.31554   0.93052938 
   85600    208.59055   -171.85302     134236.2   -41849.454     2595.263   -44444.717    35.522511   0.93040095 
   85700    208.15208   -199.24776    134235.97   -41893.343    2589.8076   -44483.151    35.517658   0.93040257 
   85800     208.9851   -265.57179    134203.83   -41900.731    2600.1719   -44500.903    35.347487   0.93062541 
   85900    211.40761   -345.99821    134130.99   -41804.698    2630.3126    -44435.01    35.407748   0.93113077 
   86000    211.23214   -122.47742    134100.47   -41850.477    2628.1294   -44478.606    35.365666    0.9313427 
   86100    212.32368    -35.08947    134046.34   -41840.376    2641.7102   -44482.086    35.444048   0.93171878 
   86200    211.83871   -190.35994    133955.61    -41815.23    2635.6762   -44450.906    35.441386   0.93234987 
   86300    210.91662   -82.736124    134045.67   -41844.413    2624.2038   -44468.617    35.294779   0.93172341 
   86400    211.60811   -133.41644    134208.66   -41853.523    2632.8071   -44486.331    35.345561    0.9305919 
   86500    211.77402   -120.90282    134275.83   -41839.531    2634.8714   -44474.403    35.378661   0.93012637 
   86600    212.31542   -275.35845    134245.72   -41780.652    2641.6075   -44422.259    35.535629   0.93033501 
   86700    212.44042   -149.69216    134171.07   -41779.648    2643.1627    -44422.81    35.710838   0.93085258 
   86800    207.60013   -3.6620233    134122.18   -41843.386    2582.9403   -44426.327    35.695481    0.9311919 
   86900    213.12489   -212.73938     134163.4   -41804.322    2651.6788   -44456.001    35.672173   0.93090586 
   87000     207.9798   -82.377942     134188.1   -41806.628    2587.6641   -44394.292    35.666363    0.9307345 
   87100    209.75747   -121.72308    134171.62    -41846.42    2609.7817   -44456.201    35.535103   0.93084877 
   87200    211.64144   -305.97423    134130.71   -41848.454    2633.2219   -44481.676    35.506778   0.93113268 
   87300    212.81536   -202.80855    134139.87   -41855.638    2647.8276   -44503.466    35.657317   0.93106915 
   87400    208.94528   -144.09648    134044.33   -41868.084    2599.6765   -44467.761    35.583071   0.93173276 
   87500    211.77105   -129.77594    134021.76   -41884.363    2634.8345   -44519.198    35.684267   0.93188966 
   87600    207.47406   -176.67503    134055.27   -41895.159    2581.3717   -44476.531    35.747298    0.9316567 
   87700    213.30493   -154.21267    133981.88   -41904.352    2653.9189   -44558.271    35.773972   0.93216704 
   87800    212.30716   -129.15574    133950.37   -41879.124    2641.5047   -44520.629    35.737075   0.93238632 
   87900    208.84718    -172.7373    134027.42   -41898.975    2598.4559   -44497.431     35.63569   0.93185027 
   88000    207.03529   -286.67256     134033.8   -41916.031    2575.9126   -44491.943     35.71966   0.93180592 
   88100    209.45528   -104.75954    134069.58   -41852.604    2606.0219   -44458.626    35.678322   0.93155726 
   88200    210.61509   -257.59431    133940.52   -41838.766    2620.4522   -44459.218    35.888299   0.93245484 
   88300    209.36085   -90.025364    133962.09   -41862.809     2604.847   -44467.656    36.066341   0.93230476 
   88400     207.0244   -252.27576    134117.82   -41959.262    2575.7771   -44535.039    36.082622   0.93122222 
   88500    212.77573   -100.20342    134113.54   -41869.767    2647.3345   -44517.101    35.962492   0.93125191 
   88600    208.40363   -74.974822    134207.58   -41820.353    2592.9374    -44413.29    35.902462   0.93059936 
   88700    212.75881   -222.58989    134214.94   -41806.975    2647.1241     -44454.1    35.797134   0.93054837 
   88800    214.72977   -76.618323    134180.12   -41753.105    2671.6465   -44424.751    35.998515   0.93078984 
   88900      210.994   -100.44495    134259.52   -41802.498    2625.1666   -44427.665    36.037718   0.93023937 
   89000    213.17441   -157.97775    134264.25   -41790.393     2652.295   -44442.688    36.173698   0.93020661 
   89100    206.06985   -270.66084    134282.93   -41881.497    2563.9006   -44445.398    36.228615   0.93007717 
   89200    206.75586   -143.74897    134188.49   -41904.688     2572.436   -44477.124    36.135199   0.93073178 
   89300    208.40429   -153.82628    134285.42   -41918.417    2592.9456   -44511.362    36.119317   0.93005993 
   89400    205.65983   -106.86762     134253.4   -41936.864    2558.7993   -44495.663    36.055891   0.93028176 
   89500      203.456   -116.88925    134151.64   -41965.523    2531.3795   -44496.903    36.029958   0.93098743 
   89600    203.49213   -144.52823    134053.39     -41999.1     2531.829   -44530.929    35.992804   0.93166979 
   89700    204.96036   -202.79104    134077.02   -41959.342    2550.0966   -44509.439    35.946725   0.93150555 
   89800     209.5223   -188.84572    133896.61   -41920.037    2606.8558   -44526.893    35.931396   0.93276068 
   89900    205.26313   -44.217836    133939.77    -41971.59    2553.8636   -44525.453    35.982002   0.93246011 
   90000    209.10327    -143.3967    134008.52   -41887.573    2601.6422   -44489.215    36.145931    0.9319817 
   90100      208.357   -197.04959    133957.39   -41902.515    2592.3572   -44494.873    36.121327   0.93233745 
   90200     211.4841   -154.01629    134003.84   -41937.089    2631.2642   -44568.353    36.132137   0.93201425 
   90300    207.36324    -115.3405    134081.13   -41942.561    2579.9929   -44522.554      35.9872   0.93147701 
   90400    201.57627   -130.37344     134019.8   -41941.958     2507.992    -44449.95    36.131832   0.93190327 
   90500    206.88796   -72.381885    134068.89   -41909.335    2574.0796   -44483.414    36.001689   0.93156204 
   90600    209.77427   -32.718807    134062.79    -41815.75    2609.9907    -44425.74    36.098361   0.93160445 
   90700    210.60805    -203.2445    134128.15   -41813.225    2620.3645    -44433.59    36.144102   0.93115047 
   90800    210.98766   -133.84701    134134.29   -41841.028    2625.0876   -44466.116    35.989639   0.93110787 
   90900    203.54154   -191.44462    134110.39   -41932.196    2532.4437    -44464.64    36.004647   0.93127381 
   91000    206.06957   -141.90158    134252.73   -41943.306    2563.8972   -44507.203    36.227441   0.93028642 
   91100    209.84284   -160.05741    134182.93   -41928.983    2610.8439   -44539.827    36.235238   0.93077032 
   91200    206.57449   -298.79682    134101.36   -41896.736    2570.1794   -44466.915    36.107508    0.9313365 
   91300    209.31101    -48.67036    134032.78   -41795.382    2604.2268   -44399.609    36.208107   0.93181306 
   91400    205.19829   -176.34298    134119.82   -41779.624    2553.0568   -44332.681    36.317268   0.93120831 
   91500    211.26438   -189.67355    134187.75   -41794.126    2628.5305   -44422.656    36.305284   0.93073689 
   91600    212.63404     -140.215     134112.2   -41827.876    2645.5717   -44473.448    36.309819   0.93126121 
   91700    209.66224   -274.32698    134038.26   -41898.441    2608.5968   -44507.038    36.269929   0.93177493 
   91800    211.45049   -205.98705    134172.36   -41862.683    2630.8461   -44493.529    36.295793   0.93084367 
   91900    206.90071   -168.06195    134076.35   -41870.107    2574.2381   -44444.345     36.28424   0.93151024 
   92000     210.2486   -129.42858    134103.95   -41883.937    2615.8922   -44499.829    36.209446   0.93131853 
   92100    207.35063   -116.14275    134219.34   -41934.587     2579.836   -44514.424    36.293163   0.93051782 
   92200    209.87147   -85.012355    134236.76    -41859.31    2611.2001    -44470.51    36.352779   0.93039709 
   92300    214.41543   -188.62841    134216.99   -41785.259    2667.7356   -44452.994    36.348933   0.93053414 
   92400    215.49968    -171.4666    134245.26   -41797.549    2681.2258   -44478.775    36.337312   0.93033819 
   92500    210.60858    -36.43294    134180.09   -41845.257    2620.3712   -44465.628    36.289674   0.93079002 
   92600     215.1926   -103.11639    134282.76   -41827.461     2677.405   -44504.866    36.520091   0.93007839 
   92700    211.50958   -171.24904    134333.18   -41828.528    2631.5813   -44460.109     36.55263    0.9297293 
   92800    210.53057   -225.43334     134277.7   -41882.949    2619.4006    -44502.35    36.435114    0.9301134 
   92900    213.17855    -160.5313    134345.78   -41852.956    2652.3464   -44505.302    36.454745   0.92964208 
   93000    207.53408   -326.19538    134256.06   -41885.209    2582.1185   -44467.328    36.253206   0.93026331 
   93100    215.24378   -92.048126    134298.62   -41821.915    2678.0419   -44499.957    36.393615    0.9299685 
   93200     211.9715   -183.50659    134224.18   -41846.329    2637.3284   -44483.657    36.506345    0.9304843 
   93300    208.62061   -71.297224    134333.17    -41862.03    2595.6371   -44457.668    36.555518   0.92972933 
   93400    208.61892    -25.00729    134310.18   -41890.403     2595.616   -44486.019    36.586473   0.92988851 
   93500    209.82153   -123.45287    134447.26    -41928.71    2610.5788   -44539.289    36.622469   0.92894043 
   93600    205.73114    -264.3903    134445.32   -41993.949    2559.6865   -44553.636     36.70689   0.92895384 
   93700    205.28514   -127.07851    134425.54   -41954.004    2554.1374   -44508.141    36.778113   0.92909047 
   93800    211.27155   -78.862995    134419.44   -41923.535    2628.6197   -44552.154    36.466744   0.92913263 
   93900    206.52033   -140.21721    134337.99   -41900.412    2569.5055   -44469.918    36.388402     0.929696 
   94000    212.78541   -156.11973    134251.28    -41908.82    2647.4551   -44556.275     36.67078   0.93029644 
   94100    209.12772   -200.86456    134151.72   -41908.866    2601.9464   -44510.812    36.862163   0.93098691 
   94200    209.44793   -186.90274    134164.29   -41897.853    2605.9304   -44503.783    36.749855   0.93089965 
   94300    211.81494   -96.367027    134210.12   -41860.092    2635.3806   -44495.472    36.647653   0.93058178 
   94400    212.42603   -287.49995    134193.92   -41854.581    2642.9837   -44497.565     36.80143   0.93069415 
   94500    210.21849   -199.25803    134197.86   -41797.606    2615.5176   -44413.124    36.784368   0.93066679 
   94600    213.08641   -136.29244    134197.42   -41839.277    2651.2001   -44490.477    36.706361   0.93066985 
   94700    210.08239   -122.78734    134101.69   -41874.097    2613.8243   -44487.921    36.547593    0.9313342 
   94800    211.01843   -64.319942    134144.14    -41864.59    2625.4705   -44490.061     36.66631   0.93103949 
   94900    208.91086   -165.24079    134167.58    -41836.81    2599.2482   -44436.058    36.360844   0.93087684 
   95000    213.64976   -173.59851    133880.28   -41819.313    2658.2092   -44477.522    36.482745   0.93287443 
   95100    211.09311   -117.24397    134034.24   -41813.422    2626.3997   -44439.822    36.691412   0.93180285 
   95200    210.18984   -240.97176    134107.86   -41834.238    2615.1612     -44449.4    36.795094   0.93129135 
   95300    217.45791   -298.48326     133970.6   -41745.438    2705.5898   -44451.028    36.778083   0.93224554 
   95400    214.12803   -272.59238    134128.03   -41808.877    2664.1598   -44473.036    36.713675   0.93115128 
   95500    210.56497    -207.7202    134008.53   -41818.331    2619.8286   -44438.159    36.623664   0.93198164 
   95600    214.79939    -116.5875    134135.36   -41800.043    2672.5127   -44472.556    36.810009    0.9311004 
   95700    209.36002   -211.03944    134106.78   -41858.007    2604.8366   -44462.844    36.923996   0.93129887 
   95800    210.83519   -225.25033    134144.98   -41910.469    2623.1906    -44533.66    36.978421   0.93103366 
   95900    214.47061   -72.987187    134157.94   -41872.592    2668.4221   -44541.014    36.864198    0.9309437 
   96000    208.24648   -78.263251    134231.04   -41956.141    2590.9822   -44547.123    36.823007   0.93043675 
   96100    209.20835   -136.18021    134273.68   -41915.111    2602.9496   -44518.061    36.906534   0.93014125 
   96200     206.8082   -261.48764    134200.65   -41942.682    2573.0872   -44515.769    36.896599   0.93064742 
   96300    210.02021    -91.11974    134155.56   -41886.125    2613.0507   -44499.176     36.92092   0.93096024 
   96400    215.10777   -151.50075     134138.2   -41861.163    2676.3496   -44537.513    36.872412   0.93108069 
   96500      209.415   -277.78364     134027.5   -41901.052    2605.5207   -44506.573     36.81883   0.93184974 
   96600    209.74213   -156.71442    134132.39   -41897.489    2609.5909    -44507.08    36.913115   0.93112103 
   96700    204.00005   -194.22661    134048.45   -41970.004    2538.1484   -44508.152    37.019089    0.9317041 
   96800    204.94536   -165.69994    134083.67   -42017.225    2549.9099   -44567.135    36.945499   0.93145937 
   96900    205.95841   -248.76282    134214.66   -41947.339    2562.5142   -44509.853    36.992927   0.93055031 
   97000    206.57737   -168.42745    134087.39   -41951.346    2570.2152   -44521.561    37.076041    0.9314335 
   97100    205.00201   -79.322449    134192.87   -41931.205    2550.6148   -44481.819    37.041398   0.93070136 
   97200    207.23673   -20.012942    134101.08   -41943.175    2578.4189   -44521.594    36.911932   0.93133844 
   97300    206.62194   -272.90029    134110.83   -41941.033    2570.7698   -44511.803     36.99089   0.93127071 
   97400    205.89985   -92.781061    134047.43   -41936.659    2561.7856   -44498.444    37.046308   0.93171119 
   97500    208.69474    -180.1325    134140.62   -41839.172    2596.5593   -44435.731    36.961572   0.93106389 
   97600    212.40751   -242.89489    134222.42   -41899.071    2642.7532   -44541.825    37.100571   0.93049649 
   97700    208.75812    -110.9751    134136.18   -41833.522    2597.3479    -44430.87    37.222673   0.93109474 
   97800     211.9542   -148.92464    134105.52   -41817.766    2637.1132   -44454.879     37.24977   0.93130759 
   97900    213.12864   -156.50044    134345.89   -41785.272    2651.7255   -44436.998    37.357362   0.92964131 
   98000    212.62361   -179.27482     134331.3   -41805.946     2645.442   -44451.388    37.203119   0.92974231 
   98100    209.24341   -150.49981       134149    -41879.42    2603.3858   -44482.805    37.100987   0.93100574 
   98200    210.57927   -30.133132    134219.51   -41860.448    2620.0064   -44480.454    37.272024   0.93051669 
   98300     211.8588   -184.60304    134258.61   -41882.589    2635.9262   -44518.515    37.333041   0.93024569 
   98400     208.6392   -171.27369    134131.43   -41899.004    2595.8683   -44494.872    37.220842   0.93112774 
   98500     208.5107   -132.79534    134088.86    -41897.45    2594.2695    -44491.72    37.242945   0.93142335 
   98600    206.27633    -146.2101    134092.81   -41924.181    2566.4698   -44490.651    37.350493   0.93139588 
   98700    209.09738   -118.59777       134189   -41988.028    2601.5689   -44589.597    37.406425   0.93072824 
   98800    207.53423   -203.57158    134196.01   -41959.146    2582.1204   -44541.266     37.41328   0.93067963 
   98900    205.02787   -73.453412    134266.36   -41965.283    2550.9365    -44516.22    37.314855   0.93019196 
   99000    202.16688   -200.44028       134144   -41989.319    2515.3403   -44504.659    37.327709   0.93104048 
   99100    205.99482   -168.97506    134039.77   -41912.342    2562.9671   -44475.309    37.272441   0.93176444 
   99200    210.18197   -199.16022    134134.03   -41903.084    2615.0632   -44518.147    37.387498   0.93110963 
   99300    211.76146   -158.70394    134080.29   -41857.921    2634.7151   -44492.636    37.411365   0.93148289 
   99400       213.57   -165.41214    133920.31   -41840.566    2657.2169   -44497.783    37.385054    0.9325956 
   99500    214.61488   -218.02051    133999.94   -41729.902    2670.2171   -44400.119    37.381032   0.93204139 
   99600    215.39753   -32.040677    134013.01   -41755.234    2679.9547   -44435.188    37.221816   0.93195053 
   99700    215.31806   -78.692845       134057   -41761.559     2678.966   -44440.525    37.491875   0.93164469 
   99800    213.57624   -204.38998    134023.53   -41794.544    2657.2945   -44451.839    37.486773   0.93187734 
   99900    210.11346   -234.52003    133927.65   -41859.342    2614.2109   -44473.553     37.36822   0.93254446 
  100000    212.06432   -27.934745     133946.7   -41867.826    2638.4833   -44506.309    37.318188   0.93241184 
  100100    212.59678    -59.83971    134175.04   -41795.626    2645.1081   -44440.734    37.402429   0.93082508 
  100200    214.52103    -109.9104    134114.22   -41803.009    2669.0494   -44472.058    37.495049   0.93124719 
  100300    213.97103   -145.33555       134115     -41789.1    2662.2064   -44451.307    37.609276   0.93124181 
  100400    209.26464   -227.15347    134119.39   -41832.207      2603.65   -44435.857    37.426107   0.93121133 
  100500    215.82976   -58.540637    134185.66   -41754.844    2685.3325   -44440.176    37.389778   0.93075143 
  100600    211.24117   -190.40014    133837.01   -41840.625    2628.2417   -44468.867    37.381971   0.93317602 
  100630    210.70588   -74.460431    133919.64   -41822.611    2621.5817   -44444.192    37.407515   0.93260023 
Loop time of 72.491 on 6 procs for 100000 steps with 4175 atoms

Performance: 595.936 ns/day, 0.040 hours/ns, 1379.481 timesteps/s
98.2% CPU use with 6 MPI tasks x no OpenMP threads

MPI task timing breakdown:
Section |  min time  |  avg time  |  max time  |%varavg| %total
---------------------------------------------------------------
Pair    | 57.845     | 59.002     | 60.171     |   9.1 | 81.39
Neigh   | 4.7362     | 4.7666     | 4.7923     |   1.0 |  6.58
Comm    | 4.9695     | 6.172      | 7.333      |  28.6 |  8.51
Output  | 0.15972    | 0.16063    | 0.16453    |   0.4 |  0.22
Modify  | 1.7393     | 1.7671     | 1.7895     |   1.3 |  2.44
Other   |            | 0.6226     |            |       |  0.86

Nlocal:        695.833 ave         706 max         687 min
Histogram: 1 0 0 3 0 0 0 0 1 1
Nghost:        1464.33 ave        1468 max        1461 min
Histogram: 1 1 0 0 1 1 0 1 0 1
Neighs:        0.00000 ave           0 max           0 min
Histogram: 6 0 0 0 0 0 0 0 0 0
FullNghs:      18927.0 ave       19381 max       18531 min
Histogram: 1 1 0 1 1 0 0 0 1 1

Total # of neighbors = 113562
Ave neighs/atom = 27.200479
Neighbor list builds = 5164
Dangerous builds = 0

undump              1
unfix               2
unfix               3
unfix               4


################################################
#######         Run Simulation         #########
################################################

reset_timestep      0
log                 log.run_${NAME}
log                 log.run_liquid_density_MLmW
