
# Define the lattice
#
variable	    lattice_constant equal 6.36339
lattice		    diamond ${lattice_constant}
lattice		    diamond 6.36339
Lattice spacing in x,y,z = 6.3633900 6.3633900 6.3633900

# Define region
# multiples of lattice spacing
#
region 		    simbox block 0 8 0 8 0 8

# Create Atoms
#
create_box          1 simbox
Created orthogonal box = (0.0000000 0.0000000 0.0000000) to (50.907120 50.907120 50.907120)
  1 by 2 by 3 MPI processor grid
create_atoms        1 box
Created 4096 atoms
  create_atoms CPU = 0.000 seconds
mass                1 18.015

# Define potential
#
pair_style          sw
pair_coeff          * * ML_mW.sw mW
Reading sw potential file ML_mW.sw with DATE: 2019-02-27

# Add velocity/set timestep
#
velocity            all create ${TEMP} 120598 rot yes dist gaussian
velocity            all create 219 120598 rot yes dist gaussian
timestep            5.0

# Define output
#
compute	            1 all msd
thermo              100
thermo_style        custom step temp press vol etotal ke pe c_1[4]

# Neighbor lists
#
neigh_modify        delay 0 every 1 check yes

# Set fixes
#
fix                 1 all momentum 10 linear 1 1 1 rescale
fix                 2 all nve
fix                 3 all temp/csvr ${TEMP} ${TEMP} 500.0 928347
fix                 3 all temp/csvr 219 ${TEMP} 500.0 928347
fix                 3 all temp/csvr 219 219 500.0 928347
fix                 4 all press/berendsen iso ${PRES} ${PRES} 1000.0 modulus 20000
fix                 4 all press/berendsen iso -500 ${PRES} 1000.0 modulus 20000
fix                 4 all press/berendsen iso -500 -500 1000.0 modulus 20000

# Run 0.5 ns equilibration
#
dump		    1 all custom 1000 eq.${NAME}.dump id type x y z vx vy vz
dump		    1 all custom 1000 eq.ice_219K_500atm_ML.dump id type x y z vx vy vz
run                 100000
Neighbor list info ...
  update every 1 steps, delay 0 steps, check yes
  max neighbors/atom: 2000, page size: 100000
  master list distance cutoff = 6.0032907
  ghost atom cutoff = 6.0032907
  binsize = 3.0016454, bins = 17 17 17
  1 neighbor lists, perpetual/occasional/extra = 1 0 0
  (1) pair sw, perpetual
      attributes: full, newton on
      pair build: full/bin/atomonly
      stencil: full/bin/3d
      bin: standard
Per MPI rank memory allocation (min/avg/max) = 4.800 | 4.800 | 4.801 Mbytes
Step Temp Press Volume TotEng KinEng PotEng c_1[4] 
       0          219    -936.0394    131927.58   -47013.181    2673.2054   -49686.386            0 
     100     145.3081   -393.81506    131504.27   -45940.877    1773.6913   -47714.568  0.072742364 
     200    173.11498   -399.46106    131688.02   -45302.471    2113.1137   -47415.585  0.079888108 
     300    193.16352   -364.47554    131816.47   -44888.195    2357.8345    -47246.03  0.087555683 
     400    210.50917   -369.73428    131915.53   -44648.815    2569.5627   -47218.377   0.09106587 
     500     206.6089   -505.87004     132004.2   -44472.005    2521.9544    -46993.96  0.097504018 
     600    215.38087    -535.4542     132017.4   -44259.841    2629.0288    -46888.87    0.1068033 
     700    206.95933   -587.41774    132043.15   -44233.099    2526.2319   -46759.331   0.11704091 
     800    218.25769   -534.98173    132067.56   -44174.571    2664.1444   -46838.716   0.11512476 
     900    215.61549   -527.30059    132074.78   -44169.587    2631.8926   -46801.479   0.12016536 
    1000    211.69304   -533.15498    132105.19   -44240.493    2584.0136   -46824.506   0.10844375 
    1100    218.79825    -509.5565    132075.95   -44183.724    2670.7427   -46854.466   0.11480804 
    1200    219.61311   -539.05144       132102   -44172.143    2680.6892   -46852.832   0.10342652 
    1300    222.35488    -459.2835     132096.5   -44117.263    2714.1564   -46831.419   0.11160545 
    1400    216.43226   -502.30504    132097.03   -44169.559    2641.8625   -46811.422    0.1067362 
    1500    214.51258   -513.39128    132052.51    -44208.41      2618.43    -46826.84   0.11729725 
    1600    217.44422     -492.863    132099.21   -44176.913    2654.2149   -46831.128   0.10905219 
    1700    221.47319   -474.53909    132104.04   -44194.735    2703.3942   -46898.129   0.10368397 
    1800    219.51231   -526.01868    132079.93   -44158.272    2679.4588   -46837.731   0.11135035 
    1900    214.20207   -571.88403    132092.49   -44107.361    2614.6399   -46722.001   0.11806346 
    2000    221.56388   -511.37668    132119.76   -44077.884    2704.5011   -46782.385   0.11014477 
    2100    214.13778   -500.12094    132085.57   -44184.247    2613.8551   -46798.102   0.11706141 
    2200    221.78189   -519.89759    132097.55   -44149.762    2707.1623   -46856.924   0.10850288 
    2300    224.33939   -444.61162    132119.98   -44111.856    2738.3802   -46850.236   0.10172841 
    2400    221.32685   -516.14457    132118.46    -44134.84    2701.6079   -46836.448   0.10079593 
    2500    223.17514   -470.18074    132110.75    -44152.01    2724.1689   -46876.179    0.1028704 
    2600      224.678    -479.8431    132091.91   -44171.311    2742.5134   -46913.824  0.096530755 
    2700    224.63833   -429.03719    132100.75    -44179.06    2742.0292   -46921.089   0.10815375 
    2800    221.40384   -501.43641    132123.95   -44100.563    2702.5477    -46803.11   0.10215572 
    2900    215.98655   -518.68188     132134.3    -44109.36     2636.422   -46745.782   0.11162062 
    3000    222.65324    -461.5586    132105.02   -44143.685    2717.7984   -46861.484   0.10101025 
    3100     221.1461   -468.66105    132112.52   -44127.391    2699.4016   -46826.793   0.10181688 
    3200    221.59458    -483.0078    132092.67   -44193.706    2704.8758   -46898.582    0.1129997 
    3300    215.27932   -509.45717     132076.2   -44266.352    2627.7892   -46894.141   0.10693822 
    3400    218.40438   -503.54919    132088.01   -44210.594     2665.935   -46876.529   0.11016789 
    3500    216.96764   -513.42642    132089.42   -44184.383    2648.3975   -46832.781   0.10969853 
    3600    215.41384   -510.28465     132091.3    -44184.12    2629.4312   -46813.551  0.098731363 
    3700    219.76428   -527.59998       132105   -44161.535    2682.5344    -46844.07   0.11207405 
    3800    221.61451   -510.17717    132120.84   -44149.495    2705.1191   -46854.614   0.10582898 
    3900    222.42848   -524.36963    132126.68   -44156.104    2715.0548   -46871.159   0.11448116 
    4000    221.50835   -461.02349    132107.79   -44180.647    2703.8233   -46884.471   0.10083305 
    4100    215.03999    -519.4342    132120.43   -44198.217    2624.8678   -46823.085   0.10488437 
    4200    217.45365   -503.92723    132124.06   -44163.513    2654.3299   -46817.843   0.10767692 
    4300    214.53432   -515.22034    132103.52   -44257.515    2618.6954   -46876.211   0.10458135 
    4400      216.395   -516.94222    132107.14   -44179.565    2641.4077   -46820.972   0.11773431 
    4500    213.29892   -532.22178    132100.32    -44220.85    2603.6156   -46824.466   0.11002422 
    4600    213.39565   -508.82922    132091.64   -44242.237    2604.7963   -46847.034   0.10936569 
    4700    218.27316   -493.10867    132108.85   -44171.886    2664.3333   -46836.219   0.10315862 
    4800    223.68909   -488.65928    132136.84   -44103.994    2730.4423   -46834.436   0.10121784 
    4900    218.86007   -511.55493    132129.87   -44079.409    2671.4973   -46750.907   0.11367873 
    5000    218.87826   -487.35283    132139.17   -44174.271    2671.7194    -46845.99  0.098868116 
    5100    219.60423   -510.05549    132151.67   -44122.839    2680.5808    -46803.42   0.10650767 
    5200     219.4046   -502.31148    132141.75   -44169.961    2678.1441   -46848.106   0.10225662 
    5300    215.74119   -500.26379    132127.19   -44246.352    2633.4269   -46879.779   0.09813423 
    5400    222.87187   -490.52019    132114.25    -44221.02     2720.467   -46941.487   0.10005412 
    5500    219.23788   -482.98296    132123.21   -44198.148     2676.109   -46874.257   0.10084621 
    5600    216.67478   -475.76883    132109.57   -44218.126    2644.8228   -46862.949   0.10437399 
    5700    217.54076   -504.77944    132128.28    -44216.79    2655.3933   -46872.183   0.10084481 
    5800    218.33109   -523.36653    132138.06   -44178.162    2665.0403   -46843.203    0.1101671 
    5900     223.8072   -503.43825    132124.26    -44233.87     2731.884   -46965.754  0.092731186 
    6000    220.80318   -480.74077    132105.16   -44212.933    2695.2158   -46908.149   0.10291805 
    6100    221.05894   -515.15511    132099.04   -44268.545    2698.3377   -46966.883  0.094250209 
    6200    214.59641   -484.98788    132104.74   -44251.314    2619.4534   -46870.768   0.10164085 
    6300     219.5398   -489.56353    132127.72   -44166.553    2679.7944   -46846.348   0.10683658 
    6400     216.8466   -513.58488    132144.57   -44207.163    2646.9201   -46854.083  0.096961045 
    6500    219.26074   -530.74821     132116.2   -44218.385     2676.388   -46894.773   0.10368246 
    6600     216.8349    -474.2944    132107.29   -44217.737    2646.7773   -46864.514  0.098421898 
    6700    216.79058   -482.56063     132102.9   -44259.997    2646.2362   -46906.233  0.097132896 
    6800    218.52874   -511.15152    132103.32   -44224.414     2667.453   -46891.867   0.11278991 
    6900    219.42247   -534.10558    132125.77   -44174.375    2678.3622   -46852.738   0.10407742 
    7000    214.40532   -502.56266    132120.07   -44168.064    2617.1208   -46785.185   0.11140801 
    7100    219.22404   -507.76238    132144.33   -44182.258      2675.94   -46858.198  0.094249292 
    7200    216.50865    -522.1246    132115.25   -44259.761    2642.7949   -46902.556   0.10511098 
    7300    213.43689   -513.75484    132091.87   -44292.863    2605.2997   -46898.163   0.10027804 
    7400    215.60952   -493.80701    132107.64   -44208.334    2631.8198   -46840.154   0.10575897 
    7500    221.71618   -492.10843    132122.59    -44163.31    2706.3601    -46869.67   0.10275965 
    7600    218.73786   -501.93586    132134.99   -44146.409    2670.0055   -46816.415  0.098746214 
    7700    218.39417   -526.78445    132133.09   -44220.437    2665.8103   -46886.248   0.10102424 
    7800    215.87794   -496.77643    132112.62   -44256.721    2635.0962   -46891.817  0.099394034 
    7900    215.48257   -480.25087    132115.86   -44214.006    2630.2701   -46844.276  0.098462232 
    8000    220.14529    -482.8217    132135.42   -44142.743    2687.1852   -46829.928   0.10934781 
    8100    218.62407   -526.60782    132160.32   -44123.014    2668.6166   -46791.631  0.098787159 
    8200    224.73047   -481.14499    132138.44   -44135.504    2743.1539   -46878.658   0.10711627 
    8300     222.6438   -503.04297    132155.32   -44111.855    2717.6831   -46829.538  0.099246706 
    8400    226.32855   -469.14196    132161.43   -44094.259    2762.6607    -46856.92   0.10062735 
    8500    220.04453   -500.75032    132147.57   -44157.075    2685.9553    -46843.03   0.10072386 
    8600    220.28008   -491.02764    132140.35   -44171.041    2688.8306   -46859.872   0.10326581 
    8700    222.20627   -498.21186    132149.48   -44148.583    2712.3425   -46860.926   0.09966442 
    8800    215.44944    -506.0972     132134.8   -44175.655    2629.8658   -46805.521   0.10618462 
    8900    220.67808   -502.97813    132130.96   -44220.049    2693.6886   -46913.738   0.09461458 
    9000    220.44055    -511.3169    132130.96   -44165.929    2690.7893   -46856.718   0.10127733 
    9100    218.88054   -492.66312    132138.73   -44205.642    2671.7472   -46877.389   0.10018475 
    9200    218.66712    -503.7742    132143.76    -44127.04    2669.1421   -46796.182   0.10727838 
    9300    213.79059   -524.79253    132133.78   -44236.332    2609.6172   -46845.949    0.1032792 
    9400    218.43031   -493.34684    132137.65   -44212.343    2666.2515   -46878.594   0.10340833 
    9500    217.11348   -511.67173    132139.44   -44244.001    2650.1777   -46894.178  0.093936806 
    9600    213.73551   -515.60632    132136.46   -44234.343    2608.9448   -46843.288   0.10554295 
    9700    221.20996   -515.02996    132152.87   -44145.056     2700.181   -46845.237  0.098010265 
    9800    218.84064   -494.61699    132160.49   -44113.207    2671.2602   -46784.467     0.108635 
    9900    220.08449   -492.94919    132154.61   -44135.463    2686.4431   -46821.906  0.098162968 
   10000    217.50485   -498.71698    132151.18   -44175.796    2654.9549   -46830.751   0.10054545 
   10100    220.83826   -493.35366    132148.07    -44137.51    2695.6439   -46833.154  0.098597868 
   10200    221.76184   -513.63638    132140.39   -44112.499    2706.9175   -46819.416   0.10322317 
   10300    220.24659   -512.69159       132145   -44115.187    2688.4218   -46803.609   0.10719423 
   10400    221.54307   -487.21105    132150.01   -44110.426    2704.2471   -46814.673   0.10364831 
   10500     217.9653   -515.51082    132130.68   -44147.828    2660.5754   -46808.403   0.10728873 
   10600    214.28743   -517.39542    132124.49   -44168.535    2615.6818   -46784.217   0.10831319 
   10700      220.396   -487.66611    132118.44   -44193.597    2690.2455   -46883.843   0.09583175 
   10800    218.34928    -499.3917    132108.52   -44279.901    2665.2624   -46945.163   0.10916877 
   10900    215.82175   -482.43419    132109.64   -44266.119    2634.4103   -46900.529  0.092907635 
   11000    214.48669   -508.23956    132100.34   -44270.131     2618.114   -46888.245   0.10821113 
   11100    213.51778   -519.12116    132122.44   -44210.854    2606.2871   -46817.141   0.10222437 
   11200    213.80329   -504.87908    132123.11   -44284.893    2609.7721   -46894.665  0.096691773 
   11300    215.71044   -509.42815    132120.89   -44224.328    2633.0516   -46857.379    0.1037144 
   11400    213.98921   -482.03169    132133.67   -44209.175    2612.0416   -46821.217  0.097204654 
   11500    220.29611   -492.35679    132136.62   -44132.531    2689.0262   -46821.557   0.10211968 
   11600    222.04517   -505.51092    132158.26   -44140.023     2710.376   -46850.399   0.10430892 
   11700    223.18591   -499.38183    132177.95   -44043.702    2724.3004   -46768.002    0.1006954 
   11800    224.16547    -506.9795     132166.6   -44111.786    2736.2573   -46848.043   0.10435973 
   11900    222.32415   -498.50696    132152.17   -44145.916    2713.7813   -46859.697  0.097552925 
   12000    223.47969   -480.43116     132150.8   -44103.913    2727.8864   -46831.799   0.10372896 
   12100    219.92904   -486.65664    132143.73   -44161.448    2684.5457   -46845.994   0.09854125 
   12200    220.97064   -483.46431    132150.11   -44154.751    2697.2598   -46852.011   0.10270814 
   12300    221.70927   -485.08023    132129.97   -44196.474    2706.2758   -46902.749  0.095689598 
   12400    219.26893   -496.22908    132134.08   -44169.896     2676.488   -46846.384   0.10096688 
   12500    220.30067   -488.52494    132146.92   -44124.241    2689.0818   -46813.323   0.10026075 
   12600    221.81238   -474.76513    132154.42   -44122.989    2707.5344   -46830.523  0.098899827 
   12700    216.84421   -512.59031    132148.39   -44141.375    2646.8909   -46788.266   0.10488518 
   12800    215.49669   -533.13508    132151.79   -44167.443    2630.4425   -46797.885   0.10464704 
   12900    216.77612   -506.75481    132126.12   -44199.567    2646.0597   -46845.626   0.10328672 
   13000    217.60167   -530.87437    132116.13    -44198.31    2656.1368   -46854.447   0.10395615 
   13100    216.61141   -503.61502    132117.16    -44220.13    2644.0492   -46864.179   0.10100056 
   13200    214.11838   -496.52275    132101.99   -44247.244    2613.6183   -46860.862   0.10261983 
   13300    211.81863   -519.04501    132094.45   -44287.711    2585.5466   -46873.258   0.10479823 
   13400    214.03866   -517.21072    132091.43   -44325.779    2612.6451   -46938.424   0.10238164 
   13500    216.21466   -515.54252    132099.67    -44231.67    2639.2063   -46870.876   0.10050046 
   13600    219.78527   -471.61673    132126.72   -44218.697    2682.7907   -46901.488   0.10034575 
   13700    216.05839   -492.35489    132113.78   -44221.607    2637.2988   -46858.906  0.096075784 
   13800    217.91768   -495.41567    132112.51   -44192.551    2659.9941   -46852.546   0.10404613 
   13900    217.24489   -493.01013     132110.2    -44165.62    2651.7818   -46817.402   0.10670256 
   14000    222.16362   -496.31758    132138.16    -44097.04    2711.8218   -46808.862    0.1001479 
   14100    219.05697   -510.53393    132121.51   -44162.604    2673.9008   -46836.504   0.10612317 
   14200    221.08442   -504.34659       132124   -44159.968    2698.6486   -46858.617  0.097946066 
   14300    218.82709   -493.57562    132117.71   -44184.783    2671.0948   -46855.878   0.10250687 
   14400    218.96822   -494.03083    132104.85   -44218.537    2672.8174   -46891.355   0.10287267 
   14500    217.52202   -502.16698    132096.46   -44222.367    2655.1646   -46877.532   0.10093651 
   14600     218.9028   -494.12412    132089.99   -44216.054    2672.0189   -46888.073   0.10445901 
   14700    219.14931   -519.47876    132108.93   -44180.948    2675.0279   -46855.976   0.10017082 
   14800    222.64508   -495.23983    132126.11   -44157.972    2717.6987    -46875.67  0.098971247 
   14900     220.5861    -466.1948    132127.21   -44143.431    2692.5659   -46835.997    0.1012616 
   15000    217.47255   -498.70956    132120.44   -44195.967    2654.5607   -46850.528  0.099718188 
   15100    218.02081   -490.68923    132088.42    -44207.53     2661.253   -46868.783    0.1041701 
   15200    220.80345   -489.73599    132109.26   -44177.037    2695.2191   -46872.256  0.099652922 
   15300    220.06931    -509.7435    132115.59   -44215.149    2686.2578   -46901.407   0.10376114 
   15400    215.49973   -499.45747    132104.79   -44244.533    2630.4796   -46875.013  0.098464074 
   15500    215.64753    -506.9245    132100.14   -44184.483    2632.2837   -46816.767   0.10759391 
   15600    223.50792   -477.37978    132130.96   -44099.312    2728.2309   -46827.543   0.10356174 
   15700    222.73067   -505.17627    132138.18   -44088.141    2718.7434   -46806.884   0.10825075 
   15800    220.72393   -520.23081    132128.42   -44098.614    2694.2483   -46792.863   0.10981296 
   15900    219.80055   -526.42568    132140.85   -44106.843    2682.9772    -46789.82    0.1069251 
   16000    220.22275   -488.43096    132127.25   -44145.245    2688.1307   -46833.376   0.10235211 
   16100    220.97326   -500.72673    132104.13   -44196.377    2697.2917   -46893.668   0.10357985 
   16200    219.97976   -497.47784    132118.99   -44169.972    2685.1647   -46855.136   0.10124062 
   16300    216.20485    -515.7957    132115.37   -44178.437    2639.0866   -46817.523   0.10703886 
   16400     217.8923   -512.98838    132111.25   -44196.833    2659.6843   -46856.518   0.10424216 
   16500    221.49588   -495.62226    132130.17   -44131.812    2703.6711   -46835.483   0.10635419 
   16600    223.45502   -489.45736     132137.8   -44110.158    2727.5852   -46837.743  0.097799474 
   16700    218.14603    -502.4666    132144.57   -44135.418    2662.7815   -46798.199   0.10776252 
   16800    220.63645   -500.14306    132133.24   -44165.591    2693.1806   -46858.772  0.098377526 
   16900    218.62855   -506.92922    132123.85   -44180.189    2668.6713   -46848.861   0.11107789 
   17000    219.59501   -504.82576    132112.76   -44225.892    2680.4683    -46906.36  0.097476809 
   17100    220.92702   -498.53742    132122.17   -44177.235    2696.7274   -46873.963    0.1023437 
   17200    216.84234    -491.9859    132118.51   -44217.291    2646.8681   -46864.159  0.099157104 
   17300    217.23069   -503.42852    132105.09   -44266.132    2651.6084    -46917.74  0.096204975 
   17400    213.22267   -513.82152    132085.73    -44284.28    2602.6848   -46886.965    0.1017332 
   17500    218.11131   -516.30416    132099.46   -44196.283    2662.3576    -46858.64   0.10623967 
   17600    219.66305   -490.93451    132113.15    -44209.38    2681.2989   -46890.679  0.095414338 
   17700    216.96833   -524.64341    132103.97   -44230.181     2648.406   -46878.587   0.10527451 
   17800    217.24967   -504.72783    132110.48   -44231.267    2651.8401   -46883.107  0.094314133 
   17900    218.67883    -481.4527    132107.87   -44169.789    2669.2851   -46839.074    0.1087636 
   18000    221.45252    -489.8181    132122.83   -44140.095    2703.1418   -46843.236  0.099527401 
   18100    221.76394   -524.82871    132139.58   -44114.313    2706.9432   -46821.256   0.11258654 
   18200    219.07138   -490.05116     132131.9   -44193.243    2674.0767   -46867.319  0.099630115 
   18300    216.12232   -520.28514    132115.21    -44147.06    2638.0792   -46785.139   0.10756818 
   18400    219.50759    -546.9688    132097.99   -44229.145    2679.4012   -46908.546   0.10483372 
   18500    220.23704   -479.54856    132095.49   -44197.884    2688.3052   -46886.189   0.10106657 
   18600    224.92466   -484.86544    132097.16   -44137.698    2745.5242   -46883.222   0.10383673 
   18700    218.43789   -514.24036    132099.37   -44161.786     2666.344    -46828.13   0.10814164 
   18800    221.21982   -481.72006    132086.43    -44184.47    2700.3014   -46884.772   0.10159464 
   18900    220.40245   -508.75942    132091.58    -44162.24    2690.3243   -46852.564   0.10950176 
   19000    217.39955   -510.10725    132117.05   -44150.379    2653.6696   -46804.049   0.10000406 
   19100     220.4751   -508.86036    132105.47   -44125.348     2691.211   -46816.559   0.11042675 
   19200    219.68206   -512.50859    132109.34   -44167.621    2681.5309   -46849.152   0.10255219 
   19300    222.73111   -493.78578    132126.58   -44055.924    2718.7488   -46774.672   0.10938111 
   19400    223.27513   -529.45019    132127.39   -44125.272    2725.3893   -46850.661   0.10547091 
   19500    218.54754   -519.70715     132140.3   -44103.471    2667.6824   -46771.153   0.10756337 
   19600    222.65891   -482.25871    132130.99   -44119.864    2717.8676   -46837.732  0.098429876 
   19700    223.23239   -487.00421    132131.41   -44125.494    2724.8676   -46850.361   0.10365262 
   19800    228.31033   -491.85401    132127.15   -44119.143    2786.8511   -46905.994  0.099877668 
   19900    221.95648   -488.73696    132138.09    -44138.93    2709.2933   -46848.223   0.10211448 
   20000    220.33053   -514.93688    132139.34    -44170.33    2689.4464   -46859.776   0.10341933 
   20100    217.13722    -491.9502    132119.31   -44196.461    2650.4675   -46846.928  0.099060731 
   20200    221.17583   -465.81468    132116.76   -44211.517    2699.7644   -46911.281  0.096846121 
   20300    221.69327   -473.50499    132130.26   -44157.191    2706.0805   -46863.272   0.10148668 
   20400    219.49106   -536.39005    132130.63   -44168.906    2679.1995   -46848.106   0.10247153 
   20500    215.41655   -492.57643       132116   -44214.695    2629.4643   -46844.159   0.10834608 
   20600    217.51619   -473.41146    132105.85   -44233.818    2655.0934   -46888.911  0.095470218 
   20700    213.58937   -520.60911     132109.9   -44205.841    2607.1609   -46813.002   0.10713309 
   20800    219.12736    -493.8236    132118.56   -44140.571    2674.7599   -46815.331   0.10077782 
   20900    219.16876   -524.35828    132132.67   -44154.766    2675.2653   -46830.031   0.10578617 
   21000     219.4693   -501.99861    132112.32   -44184.384    2678.9338   -46863.318    0.1056169 
   21100      220.053   -491.45212    132126.19   -44150.827    2686.0587   -46836.886   0.10112439 
   21200     220.5345   -489.43209    132128.94   -44145.334    2691.9361    -46837.27   0.10330456 
   21300     221.5695   -491.30537    132137.68   -44114.977    2704.5698   -46819.546   0.10262312 
   21400    218.49915   -521.79721     132108.3   -44149.718    2667.0917    -46816.81   0.10677441 
   21500    222.65326   -493.79106    132124.35   -44109.288    2717.7986   -46827.087   0.10570342 
   21600    220.03505   -521.79874    132124.72   -44093.632    2685.8396   -46779.472   0.10557098 
   21700    217.00643   -524.29727    132109.36   -44173.152     2648.871   -46822.023   0.11063648 
   21800    220.91375   -512.38334     132098.3   -44184.902    2696.5654   -46881.467    0.1014112 
   21900      216.201   -497.97203    132088.73   -44182.091    2639.0395   -46821.131   0.10882739 
   22000    218.40055   -497.77607    132084.05   -44227.504    2665.8883   -46893.392   0.10299644 
   22100    220.01835   -484.85697    132087.28   -44208.885    2685.6358   -46894.521   0.10049941 
   22200    210.75695   -523.71971    132059.13   -44300.831    2572.5873   -46873.418    0.1077351 
   22300    215.14147   -506.08943    132070.53    -44235.22    2626.1065   -46861.326   0.10346657 
   22400    222.89587   -482.42261    132089.94   -44154.353      2720.76   -46875.113   0.10499181 
   22500    222.19605   -510.36436    132094.73   -44164.306    2712.2177   -46876.524   0.10492655 
   22600    220.17088     -517.316     132079.9   -44172.174    2687.4976   -46859.671   0.10252547 
   22700    219.97692   -504.49381    132064.32   -44214.228    2685.1301   -46899.358   0.10418474 
   22800    218.72778   -483.31282    132076.42   -44160.746    2669.8826   -46830.629   0.10620786 
   22900    220.54741   -501.76086    132085.22   -44187.838    2692.0937   -46879.932   0.10553325 
   23000    217.90257   -506.85265     132078.1   -44234.938    2659.8097   -46894.747   0.10449623 
   23100    220.60845   -486.16962    132084.49   -44170.919    2692.8388   -46863.757   0.10074769 
   23200     222.7998   -479.64014    132092.41   -44160.667    2719.5873   -46880.254   0.10059403 
   23300    222.01671   -492.11132     132100.7   -44167.101    2710.0285    -46877.13   0.10366268 
   23400    221.48351   -501.99058    132105.98   -44151.764    2703.5201   -46855.284   0.10463561 
   23500    225.58539   -464.35443    132103.99   -44141.072    2753.5893   -46894.662   0.10310246 
   23600    224.43757   -486.16725    132116.36   -44094.218    2739.5786   -46833.797   0.10582132 
   23700    222.55535   -483.67398    132116.38   -44118.979    2716.6035   -46835.582  0.099601608 
   23800    218.82293    -497.3466    132120.56   -44119.943     2671.044   -46790.987   0.10797285 
   23900     217.5939   -537.12899    132103.63   -44194.052    2656.0419   -46850.094   0.10447019 
   24000    217.15799   -512.92298    132090.03   -44153.904     2650.721   -46804.625   0.11274221 
   24100    221.67196   -495.80734     132103.4   -44128.036    2705.8204   -46833.856   0.10486129 
   24200    218.00364   -534.93661    132108.46   -44179.161    2661.0434   -46840.204   0.10681979 
   24300    215.78978   -538.28057    132099.98   -44215.376    2634.0201   -46849.396   0.10741913 
   24400    218.65271   -486.77533    132072.54   -44241.633    2668.9662   -46910.599    0.1024624 
   24500    220.47167   -497.33143    132076.77   -44213.945    2691.1692   -46905.114     0.106823 
   24600    212.78547   -484.45073     132070.4   -44243.974    2597.3482   -46841.322   0.10543039 
   24700      216.266   -503.94572    132074.81    -44248.49     2639.833   -46888.323   0.10321277 
   24800     217.5355   -511.87905    132085.99   -44228.251    2655.3291    -46883.58    0.1086822 
   24900    217.88008   -504.66525    132076.47   -44237.975    2659.5351    -46897.51  0.097202072 
   25000    219.84432   -492.24137    132063.67   -44208.614    2683.5115   -46892.126   0.11053079 
   25100    215.94147   -519.55234    132064.68   -44246.529    2635.8716   -46882.401  0.099016008 
   25200     214.5302   -486.96378    132038.98   -44322.735    2618.6451    -46941.38   0.10337786 
   25300    213.49349   -499.91228    132043.24    -44280.97    2605.9907   -46886.961   0.10401577 
   25400    215.43001   -524.74513    132072.87   -44240.388    2629.6286   -46870.017   0.10415869 
   25500    215.87824   -517.92697    132072.33   -44199.113    2635.0999   -46834.213   0.10835057 
   25600    218.69542   -515.51839    132109.98   -44092.485    2669.4876   -46761.972   0.10794495 
   25700    215.85368   -515.89258    132095.57   -44175.867    2634.8001   -46810.667   0.10316863 
   25800    218.93656   -483.77723    132101.02   -44092.252     2672.431   -46764.683   0.11226973 
   25900     222.3775   -518.25074    132138.58   -44103.123    2714.4325   -46817.556   0.10122183 
   26000    223.24817   -463.68027    132118.42   -44123.522    2725.0603   -46848.583   0.10859978 
   26100    220.75535   -514.90839    132122.91   -44139.863    2694.6319   -46834.495   0.10037712 
   26200    222.04455   -495.63209    132106.21   -44167.491    2710.3684   -46877.859   0.10335605 
   26300    218.53467   -482.01985    132091.53   -44210.759    2667.5253   -46878.284    0.1006316 
   26400    218.60459   -489.04107    132075.42   -44223.503    2668.3788   -46891.882   0.10645887 
   26500    222.83965   -466.27235    132094.64   -44152.811    2720.0737   -46872.885   0.10205012 
   26600     219.0754   -509.46578     132111.1   -44129.163    2674.1258   -46803.289   0.10904296 
   26700    223.82444   -476.65177    132113.93   -44099.897    2732.0944   -46831.991   0.10340538 
   26800    220.04711   -499.06084    132107.15   -44148.098    2685.9868   -46834.085   0.10742016 
   26900    221.92583   -462.68199    132115.86   -44123.719    2708.9193   -46832.639   0.10085092 
   27000    222.37951   -501.05074    132113.02   -44121.162     2714.457   -46835.619   0.11241519 
   27100    221.73241   -513.09773    132110.78   -44113.177    2706.5583   -46819.735   0.10388492 
   27200     221.9022   -490.87557    132105.49   -44143.056    2708.6308   -46851.687   0.10510268 
   27300    227.11273   -477.44081    132108.24   -44065.411    2772.2327   -46837.643   0.10335822 
   27400    223.62847    -527.4063     132112.9   -44091.421    2729.7024   -46821.123   0.11054681 
   27500    220.03151   -517.77783     132104.9   -44177.255    2685.7963   -46863.052   0.10341237 
   27600     216.8146   -520.69842    132077.11   -44259.509    2646.5294   -46906.039   0.10859802 
   27700     221.5428   -490.86964     132088.2   -44187.815    2704.2439   -46892.059  0.098973134 
   27800    219.00502   -525.40524    132103.74    -44126.43    2673.2667   -46799.696   0.11364742 
   27900    219.85844   -494.42915    132095.56   -44197.387    2683.6838    -46881.07   0.09939744 
   28000     214.7964   -500.30502    132075.34   -44237.427    2621.8945   -46859.322   0.10870784 
   28100    215.31409   -508.52264    132063.66   -44223.344    2628.2136   -46851.558   0.10728361 
   28200    217.48377   -516.72477    132083.04   -44209.786    2654.6976   -46864.484   0.10466125 
   28300    217.28488   -478.91291     132082.6   -44199.645    2652.2699   -46851.915   0.10601265 
   28400    216.42059   -496.16921    132091.89   -44189.778    2641.7201   -46831.499   0.10624848 
   28500    221.29594   -484.56253    132086.05   -44197.746    2701.2306   -46898.977  0.099392369 
   28600     221.3736   -499.97901    132084.55   -44215.418    2702.1785   -46917.596   0.10811098 
   28700    219.09629   -499.27858    132094.55   -44205.519    2674.3807   -46879.899  0.098160582 
   28800    213.72198   -504.83461    132082.24   -44222.542    2608.7797   -46831.321   0.11000807 
   28900     217.9498   -492.93983    132107.16   -44199.109    2660.3862   -46859.495  0.097112023 
   29000    215.44006   -513.06721    132119.83   -44179.511    2629.7512   -46809.262   0.10870083 
   29100    220.72165   -496.63046    132114.82   -44149.155    2694.2206   -46843.376   0.10343827 
   29200    222.84231   -506.84429    132133.39   -44087.997    2720.1062   -46808.104   0.10590974 
   29300    220.32775   -527.31148    132126.05   -44107.351    2689.4124   -46796.763   0.10693424 
   29400    219.11729   -495.51019    132116.82   -44142.923    2674.6371    -46817.56   0.10518855 
   29500    221.44129   -523.69209    132116.13   -44131.769    2703.0047   -46834.774    0.1075582 
   29600    220.92754   -516.14356    132117.07     -44129.9    2696.7337   -46826.634   0.10664467 
   29700    218.52894   -506.95941    132113.04   -44176.513    2667.4554   -46843.969   0.10249132 
   29800     217.1483   -493.48814    132096.37   -44251.078    2650.6028    -46901.68   0.10397254 
   29900    219.44902   -465.37657    132096.23   -44205.992    2678.6863   -46884.678   0.10083542 
   30000    219.23963   -501.76327    132077.25   -44246.899    2676.1303    -46923.03    0.1064296 
   30100    221.57313   -485.71645    132097.89   -44174.599    2704.6141   -46879.214   0.10289753 
   30200    219.19456   -491.20607    132103.04   -44209.684    2675.5802   -46885.264   0.10204295 
   30300    218.48917   -521.04153    132089.98   -44203.165      2666.97   -46870.135   0.10680392 
   30400     214.2862   -514.83204    132111.55   -44187.768    2615.6668   -46803.435   0.10678661 
   30500    217.14599   -490.64687    132071.98   -44269.466    2650.5746   -46920.041   0.10293948 
   30600    216.95348   -513.57844    132090.69   -44228.802    2648.2247   -46877.027   0.10709268 
   30700    219.24213   -488.29655    132100.03   -44247.668    2676.1608   -46923.829  0.098664697 
   30800    218.00939   -511.66287    132095.85   -44208.273    2661.1136   -46869.386   0.10365083 
   30900    220.06874   -508.31207    132115.47    -44157.79    2686.2508   -46844.041   0.10690258 
   31000    222.39757   -483.70768    132119.49   -44178.773    2714.6775   -46893.451   0.09984377 
   31100    216.39088   -520.52845    132105.92   -44184.484    2641.3573   -46825.842   0.10916299 
   31200     215.1457   -496.09777     132122.2   -44179.671    2626.1581   -46805.829   0.10221149 
   31300    220.21871   -482.69654    132131.59   -44099.697    2688.0815   -46787.778   0.10356971 
   31400    220.05722   -532.20207    132129.04   -44166.292    2686.1103   -46852.402   0.10765236 
   31500    220.63393   -491.37302     132123.2   -44132.711    2693.1498    -46825.86   0.10263121 
   31600    222.18746   -496.95003    132112.95   -44153.081    2712.1128   -46865.194   0.10554689 
   31700    215.62159   -500.19399    132117.03    -44152.88     2631.967   -46784.847   0.10557934 
   31800    220.19311   -491.85058     132118.2    -44138.31     2687.769   -46826.079    0.1041468 
   31900    218.57617   -479.89062    132097.06   -44179.804    2668.0319   -46847.836   0.10680643 
   32000    220.33566   -488.89824    132107.69    -44173.15     2689.509   -46862.659   0.10071274 
   32100    217.14065   -529.06103    132109.32   -44194.192    2650.5094   -46844.701   0.10756568 
   32200    217.02996    -528.4454    132093.96   -44276.091    2649.1583   -46925.249   0.10019814 
   32300    214.82823   -486.96452    132072.03    -44239.67     2622.283   -46861.953   0.10594815 
   32400    216.00167   -505.44445    132075.71   -44255.634    2636.6065    -46892.24   0.10315407 
   32500     221.8147   -473.03611    132092.29   -44179.518    2707.5628   -46887.081   0.10178244 
   32600     221.0047   -500.97179    132104.96   -44143.929    2697.6755   -46841.605   0.10616716 
   32700    213.88898   -492.02537    132109.45   -44213.124    2610.8181   -46823.942    0.1026901 
   32800    220.45439   -505.66425    132109.25   -44120.072    2690.9583    -46811.03   0.10694332 
   32900     216.9245   -508.36313    132109.71   -44158.469     2647.871    -46806.34   0.10794074 
   33000    220.51046   -519.52259    132122.26   -44156.546    2691.6427   -46848.189   0.10246932 
   33100    214.91385   -516.71414    132109.48   -44163.497    2623.3281   -46786.825   0.11140464 
   33200    219.22255    -491.4995    132111.19   -44178.713    2675.9218   -46854.635  0.098406364 
   33300    219.51182   -503.30348    132107.93    -44159.22    2679.4529   -46838.672   0.10705133 
   33400    222.05602   -514.11293    132103.05   -44189.581    2710.5084   -46900.089   0.10277631 
   33500    216.91034   -500.85512    132084.45   -44226.654    2647.6981   -46874.352   0.10485896 
   33600    219.14631   -500.38518    132088.04   -44207.871    2674.9912   -46882.862   0.10149709 
   33700    222.19468   -475.62856    132102.06   -44180.866     2712.201   -46893.067   0.10152628 
   33800    223.45788   -505.70359    132130.82   -44077.352    2727.6201   -46804.972   0.10263042 
   33900    226.33871   -491.39904    132142.46   -44068.378    2762.7847   -46831.163   0.10733673 
   34000    220.83387   -489.04996    132126.73   -44187.964    2695.5903   -46883.555  0.099585386 
   34100    222.60484   -502.80293    132112.07   -44178.783    2717.2076    -46895.99   0.10290147 
   34200    218.95937   -507.72944    132109.42    -44207.88    2672.7094    -46880.59   0.10068996 
   34300    214.91959   -494.58368    132100.07   -44240.415    2623.3982   -46863.813   0.10190023 
   34400    218.07996     -527.901    132095.57   -44220.081     2661.975   -46882.056   0.10204783 
   34500    221.70064   -482.87296    132097.32   -44116.845    2706.1705   -46823.016   0.10839639 
   34600    220.26551   -516.48914    132123.45   -44090.323    2688.6526   -46778.976   0.10405634 
   34700    216.30424   -506.41852    132099.71   -44163.208    2640.2998   -46803.508   0.11026646 
   34800    219.99138   -489.32944    132098.83    -44204.56    2685.3065   -46889.866  0.097979316 
   34900    222.02175    -470.8078    132097.24   -44171.337    2710.0902   -46881.428   0.10523532 
   35000    219.56627   -494.42695    132109.85   -44183.723    2680.1175   -46863.841   0.10133414 
   35100    217.38395   -490.17878    132119.32   -44157.342    2653.4792   -46810.821   0.10633999 
   35200    218.37396   -511.08959    132119.42   -44123.924    2665.5636   -46789.488   0.10602602 
   35300    223.91393   -483.09824    132119.83   -44154.039    2733.1868   -46887.226   0.10187911 
   35400    216.13639   -508.59153    132114.42   -44183.677     2638.251   -46821.928   0.10442393 
   35500    221.37254   -527.18392     132105.3   -44195.099    2702.1656   -46897.265   0.10586007 
   35600     220.1793   -498.45284    132106.19     -44176.8    2687.6004     -46864.4   0.10191161 
   35700    220.23074   -522.12996    132114.92   -44146.273    2688.2283   -46834.501   0.11086287 
   35800    222.03836   -499.96842    132135.92   -44043.323    2710.2928   -46753.615   0.10278873 
   35900    219.65465    -512.2818    132129.79   -44120.413    2681.1963   -46801.609   0.11425172 
   36000    219.24767   -530.04244    132127.65    -44177.34    2676.2285   -46853.569   0.10136797 
   36100    217.15829   -503.92447    132114.57   -44204.486    2650.7246   -46855.211   0.10504562 
   36200    218.97299   -509.95412    132112.76   -44193.088    2672.8757   -46865.964   0.10145376 
   36300    214.94109   -499.98234    132112.53   -44192.565    2623.6606   -46816.226   0.10215555 
   36400    220.90052   -502.65413    132108.01   -44201.446    2696.4039    -46897.85   0.10361809 
   36500    218.30917    -481.6958     132121.2   -44209.998    2664.7728   -46874.771   0.10137647 
   36600    221.01031   -468.18525    132131.14   -44176.483    2697.7441   -46874.228  0.099943235 
   36700    213.80561   -528.05537    132119.37   -44216.822    2609.8004   -46826.623   0.10820977 
   36800    217.03974    -503.1809     132111.6   -44263.062    2649.2776    -46912.34   0.09622571 
   36900     218.0379    -512.7948    132108.17   -44220.824    2661.4616   -46882.286   0.10577374 
   37000    218.30298    -497.2211     132115.2   -44208.844    2664.6972   -46873.542    0.1024691 
   37100     216.0479   -519.28262    132115.76   -44232.252    2637.1708   -46869.423   0.10546383 
   37200    217.09517    -499.6445    132109.49   -44235.164    2649.9542   -46885.119   0.10140279 
   37300    218.35431   -487.30523    132119.78   -44241.577    2665.3238   -46906.901   0.10121519 
   37400    218.67926   -491.22922    132115.16   -44262.957    2669.2903   -46932.247  0.096935461 
   37500    216.39823   -493.53973    132111.42   -44229.621    2641.4471   -46871.068   0.10520754 
   37600    213.38155   -469.88525    132101.73   -44243.796    2604.6242    -46848.42   0.10005858 
   37700    214.57539   -509.27411    132089.11   -44325.204    2619.1968   -46944.401    0.1006952 
   37800    214.91566   -492.00549    132090.34   -44348.364    2623.3502   -46971.714  0.096590121 
   37900    218.23002   -484.38406    132101.08   -44258.818    2663.8067   -46922.624   0.10095217 
   38000    219.61403   -484.79639    132118.58   -44193.933    2680.7004   -46874.634    0.1019266 
   38100    218.57716   -491.26979    132124.07   -44192.474     2668.044   -46860.518   0.10298696 
   38200    221.28859   -488.92213    132124.41   -44155.712    2701.1408   -46856.853   0.10383716 
   38300    218.30776   -509.72217     132130.7   -44180.682    2664.7556   -46845.437   0.10306034 
   38400    215.64744   -511.11194    132134.26   -44153.568    2632.2826   -46785.851    0.1035034 
   38500    220.80241   -507.32728    132134.81   -44175.818    2695.2063   -46871.024    0.1044431 
   38600    215.61692   -511.66578    132130.99   -44164.013      2631.91   -46795.923   0.10166643 
   38700    217.59909   -527.07897    132137.66   -44149.803    2656.1053   -46805.908   0.10842277 
   38800    220.76211   -509.16617    132123.85   -44183.934    2694.7144   -46878.648  0.099320933 
   38900    222.61524   -473.01361    132140.88   -44110.407    2717.3345   -46827.742   0.10213708 
   39000    217.03326   -513.43101    132130.88   -44146.282    2649.1985    -46795.48   0.10858611 
   39100    218.97391   -509.69244    132122.72   -44168.296    2672.8869   -46841.183  0.099856397 
   39200    215.20108    -486.9056    132116.78    -44250.18    2626.8341   -46877.014   0.10259462 
   39300    217.77945   -489.94819    132095.85   -44277.775    2658.3068   -46936.082  0.096255262 
   39400    215.66955   -509.85997       132122   -44156.934    2632.5525   -46789.486   0.10478692 
   39500    216.92087   -500.64977     132123.6   -44181.472    2647.8267   -46829.298   0.10744005 
   39600    220.06326   -502.31607       132128   -44158.378     2686.184   -46844.562  0.099935342 
   39700    221.01734   -504.91484    132133.14   -44165.625    2697.8299   -46863.455    0.1043142 
   39800     219.3352   -499.72292    132124.58    -44186.93     2677.297   -46864.227  0.099280808 
   39900    220.36512   -506.50176    132121.85   -44149.205    2689.8686   -46839.074   0.10370232 
   40000    224.13158   -501.97884    132113.55   -44181.012    2735.8435   -46916.855   0.10427339 
   40100    219.28655   -491.52339     132115.4   -44200.729    2676.7031   -46877.432  0.099708043 
   40200    219.44773   -495.55984    132107.57   -44177.878    2678.6705   -46856.548   0.10500326 
   40300    221.70793   -476.84099    132103.56   -44229.212    2706.2595   -46935.472  0.096740451 
   40400    215.06184   -508.83029    132092.36   -44251.992    2625.1346   -46877.127   0.10536489 
   40500    221.85148   -486.16439     132113.8   -44174.653    2708.0117   -46882.665   0.10152037 
   40600    217.14946   -492.47607    132111.11   -44181.095    2650.6169   -46831.712   0.10534074 
   40700    213.24633    -518.8959     132101.8   -44232.538    2602.9736   -46835.511   0.10531253 
   40800    217.73855   -484.67362    132117.12   -44164.687    2657.8075   -46822.494   0.10384802 
   40900    216.73232   -504.90867    132109.46   -44212.535    2645.5252   -46858.061   0.10327491 
   41000    220.03635   -491.21575    132114.01   -44214.488    2685.8555   -46900.344   0.10471944 
   41100    221.10742   -488.26962    132109.39   -44220.372    2698.9294   -46919.301   0.10236909 
   41200    219.40046   -488.06665    132120.52   -44139.884    2678.0935   -46817.977   0.10660366 
   41300    220.17114   -493.60478    132128.06   -44182.996    2687.5007   -46870.496   0.10209528 
   41400    219.96193    -487.2673    132115.12   -44164.001    2684.9471   -46848.948   0.10311632 
   41500    219.97816   -487.10508    132122.56   -44144.082    2685.1451   -46829.227   0.10367783 
   41600    220.16215   -498.66499    132124.55   -44157.827     2687.391   -46845.218   0.10545344 
   41700    216.33638   -501.66671    132100.79    -44234.84    2640.6921   -46875.532   0.10029685 
   41800    216.92387   -498.01117    132120.92   -44181.136    2647.8632   -46828.999   0.10608866 
   41900    218.17089   -506.17501    132116.55   -44236.257    2663.0849   -46899.342  0.094083872 
   42000    219.02843   -497.42996    132108.91   -44214.947    2673.5524     -46888.5   0.10524316 
   42100    213.61825   -513.13459    132097.53   -44269.549    2607.5135   -46877.062  0.099268599 
   42200    217.35201   -497.77337    132084.77   -44221.326    2653.0893   -46874.415   0.10214588 
   42300    217.59985   -476.45718    132082.64   -44208.482    2656.1145   -46864.597   0.10406668 
   42400    215.22221   -479.41755    132107.52   -44213.567    2627.0921   -46840.659  0.098833237 
   42500    220.49793   -492.16007    132111.34   -44195.473    2691.4897   -46886.963   0.10462572 
   42600    220.06682   -482.50077    132110.39   -44206.592    2686.2275   -46892.819   0.10235459 
   42700    215.01288    -498.5341    132101.14   -44270.213    2624.5369    -46894.75   0.09792205 
   42800    218.78709    -480.1572    132093.88   -44209.031    2670.6065   -46879.638   0.10696153 
   42900    215.26325   -508.03097    132095.73   -44231.444     2627.593   -46859.037  0.097907515 
   43000    218.96038   -497.19896    132096.62   -44219.167    2672.7217   -46891.889   0.10948375 
   43100     216.6079   -517.61513    132101.14    -44183.83    2644.0064   -46827.837   0.10262168 
   43200    220.72429   -508.54517     132103.8   -44196.431    2694.2528   -46890.684   0.10537845 
   43300    221.41049   -489.41106    132090.49   -44229.843    2702.6287   -46932.472  0.098408106 
   43400    221.89076   -517.51765    132096.85   -44177.728    2708.4911    -46886.22   0.10372038 
   43500    219.11451   -509.13172    132096.73   -44179.118    2674.6031   -46853.722   0.10660346 
   43600    217.47967    -519.7028    132089.97   -44202.034    2654.6476   -46856.681   0.10382652 
   43700    216.39263   -491.43084    132083.25   -44257.338    2641.3787   -46898.716  0.099865903 
   43800     215.6868   -507.40312    132084.67   -44273.046    2632.7631   -46905.809   0.10245779 
   43900    216.88121   -515.01843    132102.09   -44210.782    2647.3425   -46858.125  0.097927275 
   44000    215.47319   -471.03548    132071.16   -44277.368    2630.1557   -46907.524   0.10521135 
   44100    216.47191   -513.84056    132073.53   -44280.769    2642.3464   -46923.115  0.097245653 
   44200     219.0493   -496.30781    132083.88   -44218.564    2673.8072   -46892.371   0.10582186 
   44300    218.18281   -479.28312    132075.98   -44219.783    2663.2304   -46883.014    0.0987971 
   44400    212.79869   -509.77154    132069.77   -44245.922    2597.5096   -46843.431   0.10354843 
   44500    215.37538   -507.20399    132075.58   -44234.224    2628.9617   -46863.186   0.10276532 
   44600    219.25809   -489.92688    132083.02   -44226.213    2676.3557   -46902.569   0.10358881 
   44700    219.67677   -476.46121    132084.95   -44212.875    2681.4663   -46894.341   0.10123154 
   44800    216.54253   -513.89176    132075.32   -44212.239    2643.2084   -46855.448   0.10825135 
   44900    221.41579   -483.37654    132093.78   -44191.439    2702.6935   -46894.132  0.098832888 
   45000    217.02647   -498.08675    132080.51   -44197.098    2649.1156   -46846.214   0.10544401 
   45100    219.35912   -496.91625     132101.2   -44129.392    2677.5889    -46806.98    0.1063227 
   45200    222.50127   -483.63482    132096.75   -44158.995    2715.9433   -46874.938   0.10540322 
   45300    215.31004   -514.69612    132091.12   -44187.911    2628.1641   -46816.075   0.10539159 
   45400    216.13638   -495.52209    132085.43   -44200.493    2638.2508   -46838.744   0.10595081 
   45500    216.70902   -488.20218    132099.26   -44171.183    2645.2408   -46816.424   0.10022208 
   45600    220.36548   -514.85432    132099.41   -44149.762     2689.873   -46839.635   0.10985405 
   45700    217.12663   -500.09085    132097.39   -44129.649    2650.3382   -46779.987   0.10373975 
   45800    221.15111   -494.11592    132099.27   -44168.632    2699.4627   -46868.095    0.1068735 
   45900    223.68439   -496.91582    132113.75   -44113.373    2730.3849   -46843.758   0.10243945 
   46000    219.83338   -497.03674    132122.33   -44140.974    2683.3779   -46824.352   0.10447486 
   46100    222.73606   -506.91784    132131.68   -44082.647    2718.8092   -46801.456   0.10794405 
   46200    220.40056   -517.00929     132123.2   -44127.114    2690.3012   -46817.415   0.10547009 
   46300    220.69625    -504.8633    132122.99   -44101.918    2693.9105   -46795.829   0.10772864 
   46400    222.34998   -484.07201    132103.39   -44145.465    2714.0967   -46859.561   0.10122113 
   46500    222.99298   -475.58958     132112.3   -44096.364    2721.9453   -46818.309   0.10560118 
   46600    217.44767   -490.95141    132101.42   -44177.122    2654.2569   -46831.379   0.10608436 
   46700    214.76157   -482.66503     132110.2   -44120.795    2621.4693   -46742.264     0.103019 
   46800    221.44199   -480.70686    132117.46   -44116.371    2703.0133   -46819.384   0.10661092 
   46900    223.22368   -474.75972    132116.38   -44138.857    2724.7614   -46863.618  0.097218193 
   47000    216.54575   -520.81714    132093.07   -44185.586    2643.2478   -46828.834   0.10792179 
   47100    216.42805   -532.87804    132093.36   -44196.006     2641.811   -46837.817   0.10764545 
   47200    216.94857   -489.65116    132082.33   -44197.124    2648.1648   -46845.289   0.10241148 
   47300     213.5174   -538.31848    132081.46   -44243.045    2606.2825   -46849.327   0.10713378 
   47400    219.40366   -515.38972    132090.09   -44209.236    2678.1326   -46887.368  0.099562594 
   47500    217.45022   -498.96036     132083.6    -44225.61    2654.2881   -46879.898   0.10602435 
   47600    215.36291    -521.9651    132087.61   -44206.973    2628.8095   -46835.783   0.10653934 
   47700    217.61391    -485.0577    132099.59   -44167.964    2656.2862    -46824.25   0.10215551 
   47800    218.08984   -497.09565    132096.12    -44198.66    2662.0955   -46860.755   0.10379684 
   47900    215.08369   -509.11256    132085.03   -44234.051    2625.4013   -46859.452  0.099651804 
   48000     218.9514    -459.2996    132078.95   -44200.618    2672.6122    -46873.23   0.10137664 
   48100    218.50242   -493.08325    132067.36   -44235.475    2667.1317   -46902.607   0.10133234 
   48200    220.68758   -495.02434    132082.34   -44227.405    2693.8047    -46921.21   0.10151012 
   48300    221.76979   -480.41104    132073.87   -44202.976    2707.0146    -46909.99  0.099543029 
   48400    214.88756    -529.8656    132085.87   -44212.539    2623.0072   -46835.546   0.10463292 
   48500    214.78061   -516.54549    132072.82   -44267.582    2621.7017   -46889.284   0.10392592 
   48600    216.08413   -474.57863    132066.41    -44264.26    2637.6131   -46901.873  0.099490738 
   48700    220.03198   -496.09978    132089.25   -44194.898    2685.8021     -46880.7   0.10412573 
   48800    216.40682   -506.07266    132073.51   -44198.637    2641.5519   -46840.189   0.10214605 
   48900    217.54306    -496.9855     132079.1    -44182.93    2655.4214   -46838.351   0.10503167 
   49000    212.46458    -521.3744    132081.61    -44220.98    2593.4312   -46814.412   0.10358319 
   49100    218.91106   -517.95709    132093.26   -44174.279    2672.1197   -46846.398   0.10528027 
   49200    220.07856   -523.71003    132100.06   -44178.381    2686.3707   -46864.751   0.10413441 
   49300    215.84601   -521.05409    132088.93   -44219.459    2634.7065   -46854.166   0.10177891 
   49400    217.64841   -495.61403    132072.45   -44252.281    2656.7073   -46908.988   0.10173436 
   49500    219.13947   -490.71819    132085.74   -44195.304    2674.9077   -46870.212   0.10173187 
   49600    218.56877   -480.84412    132076.52   -44212.615    2667.9416   -46880.556   0.10166648 
   49700    218.83632   -493.31612    132083.51    -44228.67    2671.2074   -46899.877   0.10170532 
   49800    217.22671   -494.68653    132072.04   -44211.223    2651.5598   -46862.783   0.10155622 
   49900     219.7088   -491.40137    132070.59   -44180.118    2681.8573   -46861.976   0.10675257 
   50000    217.53573   -492.94893    132074.03    -44187.77    2655.3319   -46843.102   0.10091673 
   50100    223.16338   -504.87237    132098.13   -44099.586    2724.0253   -46823.611   0.11030186 
   50200    218.69095   -512.04366     132100.6   -44160.105     2669.433   -46829.538   0.10237069 
   50300    219.95944   -511.56074    132088.97   -44164.746    2684.9166   -46849.662   0.10390601 
   50400    216.94636   -506.75623    132081.75   -44180.367    2648.1377   -46828.505   0.10586368 
   50500    219.58269   -497.92542    132095.27    -44138.67     2680.318   -46818.988   0.10384831 
   50600    219.82546    -504.5559    132129.77   -44060.819    2683.2813     -46744.1   0.10859702 
   50700    216.62607    -521.1843     132101.5   -44240.009    2644.2282   -46884.238   0.10213323 
   50800    219.63708   -489.82528    132082.88   -44243.607    2680.9818   -46924.589  0.098309295 
   50900    216.72803   -501.92314    132088.99    -44249.71    2645.4728   -46895.183   0.10278261 
   51000    220.00729   -493.24852    132102.29   -44223.618    2685.5007   -46909.118  0.098801333 
   51100    215.13165   -499.87609     132091.3   -44220.781    2625.9867   -46846.768   0.10672573 
   51200     212.9596   -481.74138    132082.76   -44258.801    2599.4737   -46858.274   0.10013988 
   51300    217.35523   -463.71424    132080.21   -44266.909    2653.1287   -46920.038  0.099303725 
   51400    219.25616   -485.58962    132099.34   -44222.406    2676.3322   -46898.739  0.099770059 
   51500    215.98275   -529.56041    132102.96   -44246.898    2636.3756   -46883.273    0.1029828 
   51600    217.26848   -527.20433    132089.04   -44202.202    2652.0697   -46854.271   0.10482083 
   51700     218.6984   -495.17859    132100.79   -44160.624    2669.5239   -46830.148   0.10448605 
   51800    222.77881   -490.30446    132118.91   -44157.762     2719.331   -46877.093   0.10053064 
   51900    219.65776   -514.14718     132103.5   -44201.615    2681.2342   -46882.849   0.10342632 
   52000    215.61461   -513.14453    132093.52   -44201.411    2631.8819   -46833.293   0.10339424 
   52100    215.52843   -495.14093    132079.57   -44256.219    2630.8299   -46887.049   0.10257983 
   52200    215.10288   -513.07071    132074.23   -44279.155    2625.6355    -46904.79   0.10210349 
   52300    217.38471   -497.55109    132073.07    -44275.16    2653.4884   -46928.648   0.10277353 
   52400    215.34235   -491.40036    132053.93   -44334.189    2628.5585   -46962.748   0.10135916 
   52500    217.19466   -484.93084    132067.88   -44242.334    2651.1687   -46893.502   0.10450036 
   52600    217.55979   -502.18057    132102.97   -44183.966    2655.6255   -46839.591   0.10386536 
   52700    218.45228   -498.57158    132121.91    -44198.79    2666.5197   -46865.309   0.10340987 
   52800    219.91984   -498.43987     132136.4   -44117.376    2684.4333   -46801.809   0.10360724 
   52900     216.9373   -485.68401    132132.18   -44157.048    2648.0272   -46805.076   0.10585276 
   53000    222.44582   -502.13592    132133.81   -44135.042    2715.2664   -46850.308   0.10323921 
   53100    217.39053   -521.66446    132111.78   -44223.028    2653.5595   -46876.587   0.10255906 
   53200    219.00547   -503.58017    132100.92   -44261.592    2673.2722   -46934.864   0.10112798 
   53300    215.00252   -500.00489    132098.39   -44249.082    2624.4104   -46873.492  0.099592725 
   53400    218.79279   -494.83669    132096.97     -44187.1     2670.676   -46857.776   0.10349058 
   53500    220.85041   -483.67707    132105.43   -44163.823    2695.7923   -46859.615    0.1024342 
   53600    216.71487   -504.98894    132114.71   -44224.874    2645.3121   -46870.186  0.099665526 
   53700    216.01954   -528.06077    132113.91   -44197.201    2636.8246   -46834.026   0.10821342 
   53800    217.51909    -492.4478    132088.84   -44222.027    2655.1287   -46877.156  0.098139624 
   53900    216.70902   -519.73555     132086.8   -44226.213    2645.2407   -46871.454   0.10461514 
   54000    217.32802   -490.89828    132095.53   -44250.427    2652.7964   -46903.224  0.099128305 
   54100    221.15429   -487.54454       132104   -44209.458    2699.5015   -46908.959  0.099408902 
   54200    219.45599   -481.73504    132099.41   -44168.595    2678.7713   -46847.367   0.10445036 
   54300    221.71678   -482.63175    132112.13   -44118.139    2706.3676   -46824.506   0.10163193 
   54400    223.14866   -477.95656    132119.14   -44089.312    2723.8456   -46813.158    0.1028322 
   54500    223.17846   -456.71813    132127.82    -44139.08    2724.2094    -46863.29    0.1006768 
   54600    220.54524   -512.65489    132108.77    -44123.97    2692.0672   -46816.037   0.10536912 
   54700    217.05718   -516.51052    132095.06   -44148.031    2649.4905   -46797.521   0.11038404 
   54800    219.43985    -509.2141    132118.16   -44132.025    2678.5744   -46810.599   0.10445544 
   54900    220.39102   -499.43868    132117.91   -44141.019    2690.1847   -46831.203   0.10450849 
   55000    218.22276   -504.88634    132123.02   -44154.767    2663.7181   -46818.485   0.10432414 
   55100    215.91771   -523.15359    132113.85   -44159.316    2635.5816   -46794.898   0.10743693 
   55200    212.59504   -504.68468    132093.85   -44258.873    2595.0237   -46853.896   0.10472952 
   55300    215.98939   -491.47252    132082.35    -44295.84    2636.4566   -46932.297  0.098906015 
   55400    218.07722   -489.35719    132090.25   -44250.812    2661.9415   -46912.754  0.099708584 
   55500    221.12335   -491.40597    132092.14   -44248.306    2699.1238    -46947.43  0.099059107 
   55600    221.70716     -515.235    132114.69   -44164.841    2706.2501   -46871.092   0.10355981 
   55700    222.92835   -508.44626    132131.09   -44126.133    2721.1565   -46847.289   0.10620627 
   55800    223.78798   -484.30363    132142.33   -44119.979    2731.6494   -46851.629   0.10010731 
   55900    220.16414   -502.47254    132134.14   -44144.513    2687.4153   -46831.928   0.10293293 
   56000    215.22497   -512.96499    132138.83   -44146.205    2627.1258    -46773.33   0.10612847 
   56100     222.4394   -492.44013    132143.63   -44132.411    2715.1881   -46847.599   0.10114037 
   56200     220.4751     -505.594       132140   -44151.696     2691.211   -46842.907    0.1048011 
   56300    215.23586   -483.29668    132120.21     -44214.8    2627.2588   -46842.058  0.099567875 
   56400    219.37798   -499.27293     132108.7   -44242.115    2677.8192   -46919.934  0.099354546 
   56500    213.78643   -479.18983     132099.2   -44281.218    2609.5663   -46890.784  0.098617665 
   56600    217.02571   -500.03051    132087.54    -44311.57    2649.1063   -46960.676  0.096763334 
   56700    215.02195   -493.86571    132090.08   -44272.982    2624.6476   -46897.629   0.10258606 
   56800    218.47476    -503.2447    132113.05   -44200.472     2666.794   -46867.266   0.10215724 
   56900    216.47258   -509.55432     132104.8   -44284.783    2642.3546   -46927.137   0.10000915 
   57000    215.43731   -501.38012    132084.25   -44294.143    2629.7177   -46923.861    0.1009503 
   57100    217.36921    -485.3966    132109.42   -44207.796    2653.2992   -46861.096  0.098939124 
   57200    218.98407    -504.7785    132121.89   -44183.991     2673.011   -46857.002   0.10515056 
   57300    216.30422   -520.33312    132098.61   -44276.059    2640.2996   -46916.358   0.10195729 
   57400    217.11113   -474.31559    132099.74   -44206.514     2650.149   -46856.663   0.10220605 
   57500    220.57506   -495.08196    132117.46   -44202.947    2692.4312   -46895.378   0.10186578 
   57600    216.63478   -480.88373    132102.36   -44255.348    2644.3345   -46899.682  0.098634303 
   57700    214.98485   -510.34416    132112.33   -44223.191    2624.1947   -46847.386   0.10484654 
   57800    217.25004    -491.2117    132126.79   -44163.722    2651.8446   -46815.566   0.10300221 
   57900    218.75846    -492.2823     132112.3   -44214.004     2670.257   -46884.261   0.10085342 
   58000    218.85719   -503.00201    132103.47   -44159.449    2671.4621   -46830.911   0.10517983 
   58100     216.3819    -503.9878    132127.23   -44213.855    2641.2477   -46855.102   0.10009797 
   58200    221.15812   -502.40819    132135.37   -44098.142    2699.5483   -46797.691   0.10909892 
   58300     218.9385   -521.09011    132122.44   -44151.909    2672.4546   -46824.364   0.10480457 
   58400    216.02502   -503.67611    132112.52   -44181.611    2636.8915   -46818.503   0.10320652 
   58500    216.01448   -495.18241    132104.44   -44197.144    2636.7628   -46833.907   0.10480275 
   58600    218.67672   -494.92495    132103.81   -44231.791    2669.2592    -46901.05    0.1005149 
   58700    216.68967   -497.89223    132114.34   -44197.531    2645.0045   -46842.536     0.108018 
   58800    217.20518   -510.00732    132111.99   -44205.501    2651.2971   -46856.798   0.10328021 
   58900    217.62946   -491.39701    132117.62   -44159.686     2656.476   -46816.162   0.10256198 
   59000    219.18503   -524.61444    132135.61   -44103.885    2675.4639   -46779.349   0.10785062 
   59100    217.69348   -495.56151    132136.91    -44114.43    2657.2575   -46771.687   0.10260704 
   59200     218.5164   -494.96461    132123.62   -44172.868    2667.3024   -46840.171   0.10702527 
   59300     217.0518   -502.57133    132120.59   -44186.445    2649.4248    -46835.87     0.104943 
   59400     219.6703   -483.52924       132126   -44169.928    2681.3873   -46851.316   0.10162509 
   59500    218.46884   -490.42774    132105.01    -44247.71    2666.7218   -46914.432    0.1000824 
   59600    218.35078   -474.64881    132104.79   -44200.963    2665.2807   -46866.244  0.098835155 
   59700    221.70395   -468.23829    132104.59   -44161.067    2706.2109   -46867.278   0.10341164 
   59800    216.82398   -493.28174     132098.8   -44266.297    2646.6439   -46912.941   0.10185874 
   59900    216.54948   -488.94677    132087.39   -44260.839    2643.2933   -46904.133   0.10035286 
   60000    216.22119   -502.04721    132104.37   -44223.395    2639.2861   -46862.681    0.1043559 
   60100    218.63184    -514.6212    132093.87   -44215.203    2668.7115   -46883.914   0.10169502 
   60200    221.41909   -498.66728    132105.75    -44186.48    2702.7337   -46889.214    0.1029585 
   60300     221.5762   -484.17515    132114.56   -44143.468    2704.6516   -46848.119    0.1059126 
   60400     221.8081    -483.2116    132128.47   -44116.847    2707.4822   -46824.329   0.10421372 
   60500    217.86983   -478.35723    132134.82   -44108.223      2659.41   -46767.633   0.10791335 
   60600     221.8685    -526.9593    132118.55    -44178.42    2708.2195   -46886.639    0.1037854 
   60700    227.07062   -490.08634    132128.89   -44073.748    2771.7187   -46845.466   0.10541922 
   60800    224.13346   -502.72022    132139.28   -44076.942    2735.8665   -46812.809   0.10769653 
   60900    220.42657   -515.77343     132136.3   -44116.893    2690.6186   -46807.512   0.10670195 
   61000    220.12041   -520.56329    132103.73   -44183.589    2686.8816    -46870.47   0.10889486 
   61100    222.40073   -474.20213    132115.72   -44136.349    2714.7161   -46851.065   0.10505008 
   61200    222.66153   -483.30278    132118.56   -44151.337    2717.8995   -46869.236   0.10606964 
   61300    220.44826   -475.47132    132118.22   -44168.966    2690.8834    -46859.85   0.10478415 
   61400    217.32286   -510.41941    132119.16   -44184.116    2652.7334   -46836.849   0.10581674 
   61500    214.79008   -503.21823    132111.34   -44174.724    2621.8173   -46796.541   0.10737144 
   61600    218.64352   -515.83759     132114.9   -44222.692    2668.8541   -46891.546   0.10259163 
   61700    216.78829   -513.62855    132100.42   -44227.881    2646.2083   -46874.089   0.10489126 
   61800    217.97268   -518.91131    132100.67   -44228.263    2660.6655   -46888.928   0.10529496 
   61900    218.06049   -511.09158    132103.79   -44161.296    2661.7373   -46823.034   0.10484664 
   62000    221.51763   -506.01501    132103.04   -44175.036    2703.9366   -46878.972   0.10455256 
   62100    218.89182    -489.0378    132108.75    -44195.75    2671.8849   -46867.635   0.10124133 
   62200    221.62038   -453.28695    132110.22   -44128.416    2705.1908   -46833.607   0.10407765 
   62300    215.18908   -507.84594    132110.62   -44208.707    2626.6877   -46835.395   0.10718516 
   62400    217.12072   -505.81804    132125.08   -44207.462     2650.266   -46857.728   0.10098312 
   62500    220.72358   -513.77913    132123.31   -44210.764     2694.244   -46905.008   0.10331417 
   62600    212.05681   -519.35966    132120.69   -44231.319    2588.4538   -46819.773    0.1030377 
   62700    217.20257   -485.50544    132114.77   -44222.081    2651.2651   -46873.347    0.1010618 
   62800    218.16812   -503.07346    132114.83   -44226.631     2663.051   -46889.682   0.10247848 
   62900    220.08332   -487.86792    132127.19    -44189.03    2686.4288   -46875.459   0.10208737 
   63000    219.70163   -495.13327    132120.43   -44219.089    2681.7698   -46900.859  0.099983185 
   63100    217.64336   -502.19212    132106.91   -44261.669    2656.6457   -46918.315  0.099934233 
   63200    218.94616   -486.14315    132121.66   -44163.963    2672.5482   -46836.511    0.1005649 
   63300    216.89145   -455.58951    132111.11   -44229.164    2647.4675   -46876.632  0.099786274 
   63400    214.55949   -510.33784    132101.45   -44282.597    2619.0027   -46901.599   0.10075728 
   63500    216.38923   -490.36113    132093.47   -44243.309    2641.3372   -46884.646    0.1019062 
   63600    211.04332   -502.07768    132093.97   -44297.343    2576.0828   -46873.426   0.10172932 
   63700    213.22948   -505.46323    132086.39   -44303.774     2602.768   -46906.542   0.10057735 
   63800    211.37157   -509.50989    132091.99   -44323.327    2580.0895   -46903.417   0.10071444 
   63900    214.61154   -521.46308    132104.85   -44248.622     2619.638    -46868.26   0.10485981 
   64000    218.85754   -499.63946     132118.4   -44191.175    2671.4664   -46862.641   0.10267054 
   64100    218.03735   -486.32919    132128.55   -44169.016    2661.4548   -46830.471   0.10410883 
   64200    220.31354   -511.95025    132140.57   -44148.583     2689.239   -46837.822   0.10477838 
   64300    217.95309   -500.03152    132134.74   -44153.418    2660.4264   -46813.844   0.10458675 
   64400    221.65264   -524.60566     132126.2   -44219.442    2705.5846   -46925.027   0.10174584 
   64500    215.88745   -476.98182    132117.18   -44201.818    2635.2123    -46837.03   0.10061766 
   64600    216.48531   -520.74617    132106.22   -44250.318      2642.51   -46892.828   0.10456489 
   64700    213.98953   -494.02847    132099.88   -44266.686    2612.0455   -46878.731   0.10239167 
   64800    216.47685   -484.15914     132098.3   -44211.996    2642.4067   -46854.403   0.10453855 
   64900     220.6537   -493.79497    132125.24   -44167.412    2693.3911   -46860.803   0.10485095 
   65000    221.41047   -508.18792    132134.27    -44145.29    2702.6285   -46847.918    0.1018959 
   65100    215.32259   -515.71216    132126.01    -44185.08    2628.3174   -46813.398   0.10607364 
   65200    220.98394   -504.03037    132119.98     -44202.3    2697.4222   -46899.722   0.10148476 
   65300    221.79327   -497.98378    132126.51   -44136.301    2707.3012   -46843.602   0.10510442 
   65400    218.17369   -488.05444    132118.55   -44175.639    2663.1191   -46838.758   0.10257133 
   65500    219.56827   -492.73975    132126.86   -44123.892    2680.1418   -46804.034   0.10174084 
   65600    222.50554   -493.14677    132121.31   -44119.904    2715.9954   -46835.899   0.10432928 
   65700    222.52185   -508.80944    132148.21   -44124.855    2716.1945    -46841.05   0.10039952 
   65800    218.50972   -479.28055    132135.82   -44155.342    2667.2208   -46822.563   0.10329876 
   65900    219.85747   -492.64132    132137.08   -44174.744    2683.6719   -46858.416   0.10263615 
   66000     221.1828   -499.56652    132138.07   -44168.132    2699.8495   -46867.981   0.10113929 
   66100    215.78575   -508.03544    132122.74   -44191.098    2633.9708   -46825.069    0.1045935 
   66200    217.65436   -500.84348    132101.75   -44239.826    2656.7799   -46896.606   0.10028858 
   66300    218.90684   -482.52175    132112.78   -44236.249    2672.0682   -46908.317   0.10163551 
   66400    220.86814   -501.30308    132115.68   -44218.446    2696.0087   -46914.455   0.10222303 
   66500    219.18788    -483.6519       132121   -44199.054    2675.4987   -46874.553   0.10486503 
   66600    215.49128   -506.37702    132102.78   -44230.827    2630.3765   -46861.203    0.1029132 
   66700     214.5386   -506.45543    132104.88   -44225.534    2618.7476   -46844.281   0.10535743 
   66800    214.48562   -471.91537     132106.3   -44254.802     2618.101   -46872.903   0.10227689 
   66900     219.8246   -505.50741    132117.43   -44241.285    2683.2708   -46924.556   0.10281665 
   67000    214.51979   -501.81508     132099.3   -44321.869    2618.5181   -46940.387  0.099824308 
   67100    217.21829   -517.25202    132112.99   -44189.324     2651.457   -46840.781   0.10579516 
   67200    216.96063   -508.77433    132106.92   -44230.145     2648.312   -46878.457   0.10360813 
   67300    217.30344    -507.6484     132105.9   -44227.999    2652.4964   -46880.496   0.10366367 
   67400    221.44151   -513.01171    132114.68   -44200.749    2703.0074   -46903.756   0.10410792 
   67500    215.75179   -509.82297    132112.92   -44185.867    2633.5563   -46819.423   0.10639656 
   67600    219.01022   -498.85626    132142.78   -44101.077      2673.33   -46774.407   0.10495727 
   67700    221.34651   -524.94685    132142.01   -44140.595    2701.8479   -46842.443   0.10794012 
   67800    219.35306   -521.09335    132138.21   -44170.478    2677.5149   -46847.993   0.10229947 
   67900    219.85608   -497.34585     132128.2   -44184.614     2683.655   -46868.269   0.10454037 
   68000    219.44688   -492.96524    132124.01   -44221.312    2678.6602   -46899.972  0.097645468 
   68100    217.49567   -510.51467    132113.79   -44223.732    2654.8429   -46878.575   0.10227168 
   68200    218.52332   -495.62343    132114.74   -44229.017    2667.3869   -46896.404   0.10108319 
   68300    214.73741   -472.44923    132130.52   -44169.242    2621.1744   -46790.416  0.099916271 
   68400    221.66037   -493.10063    132150.23   -44118.513    2705.6789   -46824.191   0.10486966 
   68500    219.97623   -488.70695    132146.24   -44144.586    2685.1216   -46829.708    0.1004781 
   68600     219.3419   -503.45067    132137.79   -44164.047    2677.3787   -46841.426   0.10358758 
   68700    220.36066   -475.50101    132123.44   -44190.982    2689.8142   -46880.796   0.10235535 
   68800    215.64239   -518.01305    132130.49   -44185.369     2632.221    -46817.59   0.10183684 
   68900    220.73109   -498.37409     132132.7   -44183.728    2694.3357   -46878.064   0.10421787 
   69000    221.43803   -514.10451    132133.58   -44175.089    2702.9649   -46878.054    0.1009661 
   69100    215.07044   -528.80689    132119.86    -44258.89    2625.2395    -46884.13   0.10419486 
   69200    218.31196   -491.25115    132120.75   -44237.927    2664.8069   -46902.733   0.10035248 
   69300    216.78231   -477.14989    132117.85    -44248.67    2646.1353   -46894.806  0.098496745 
   69400    213.87922   -499.13566    132110.65   -44292.034    2610.6989   -46902.733   0.10116016 
   69500    216.03453    -479.3203    132110.61   -44242.581    2637.0075   -46879.589  0.099009613 
   69600    218.77743   -508.80656    132140.49   -44099.213    2670.4886   -46769.701   0.10703727 
   69700     217.4693   -503.73441    132134.82   -44163.419     2654.521    -46817.94   0.10452952 
   69800    222.47003   -508.18854    132125.85   -44201.637    2715.5619   -46917.199   0.10247843 
   69900    216.20019   -508.06223    132107.17    -44250.56    2639.0297    -46889.59   0.10435197 
   70000    217.42858   -481.78205    132111.86   -44189.144     2654.024   -46843.168   0.10242539 
   70100    217.43931   -500.87387    132099.25    -44270.92    2654.1549   -46925.075   0.10176186 
   70200    219.28141   -466.18172    132119.74    -44177.84    2676.6403    -46854.48   0.10295952 
   70300    221.85295   -497.56786    132125.03   -44213.802    2708.0297   -46921.832   0.10344394 
   70400    222.70008   -483.41058    132129.12   -44113.228    2718.3701   -46831.598    0.1059298 
   70500    216.92508   -500.74959     132119.6   -44193.953     2647.878   -46841.831   0.10365515 
   70600    220.89864   -504.53261    132112.82   -44194.398     2696.381   -46890.779   0.10337119 
   70700    219.15258    -512.6218    132119.76   -44199.343    2675.0679   -46874.411   0.10209714 
   70800    216.40109   -525.33916    132099.48   -44214.666    2641.4819   -46856.148    0.1054971 
   70900    214.35133   -498.56939    132103.97   -44240.665    2616.4617   -46857.127   0.10261927 
   71000      220.229   -494.11224    132101.51   -44211.673     2688.207    -46899.88   0.10398269 
   71100    214.66684   -496.63349    132103.86   -44257.733    2620.3131   -46878.046   0.10142529 
   71200    215.60994   -494.93939    132112.54   -44203.757    2631.8248   -46835.582   0.10581039 
   71300    213.15822   -515.04771       132096   -44278.114    2601.8981   -46880.012   0.10354615 
   71400    215.20349   -506.20487    132092.41   -44230.147    2626.8636   -46857.011   0.10462342 
   71500    215.61043   -471.64951    132099.32   -44195.597    2631.8308   -46827.428   0.10522206 
   71600    221.17046   -485.42192    132105.68   -44186.959    2699.6989   -46886.658   0.10061087 
   71700     220.4281   -494.33866    132101.23   -44216.998    2690.6373   -46907.636   0.10416458 
   71800    215.39814   -497.79535    132085.21   -44282.757    2629.2395   -46911.996   0.10039514 
   71900    212.42761   -512.58567    132058.11   -44290.065      2592.98   -46883.045   0.10385277 
   72000    215.32718    -497.8608    132072.05   -44275.308    2628.3734   -46903.681   0.10283537 
   72100    220.36964    -491.7394    132105.73   -44176.646    2689.9238   -46866.569   0.10138491 
   72200    220.38746   -520.80254    132103.18   -44083.891    2690.1413   -46774.032   0.11382867 
   72300     225.0646   -499.76842    132126.91   -44037.992    2747.2323   -46785.225   0.10698041 
   72400    218.70229   -503.51832    132112.73   -44156.373    2669.5714   -46825.944   0.10900529 
   72500    217.80382   -503.92639    132094.81   -44159.862    2658.6043   -46818.466   0.10768752 
   72600    220.06977   -488.45096    132095.99   -44107.668    2686.2635   -46793.931   0.10748569 
   72700    218.97021   -511.26134    132087.78   -44191.623    2672.8417   -46864.465   0.10912406 
   72800    220.72437   -507.98455    132090.84   -44178.412    2694.2537   -46872.666   0.10784593 
   72900    216.03844   -497.37057    132090.14   -44165.839    2637.0553   -46802.894   0.10934196 
   73000    219.44195   -498.31087    132090.32    -44198.57       2678.6    -46877.17   0.10400973 
   73100     219.3645   -512.01841    132086.86   -44181.123    2677.6545   -46858.778   0.10532567 
   73200    220.88298   -474.30806    132089.93   -44112.413    2696.1898   -46808.603   0.10921313 
   73300    218.47227   -513.26806    132116.54   -44080.942    2666.7637   -46747.706   0.10860949 
   73400    224.17738   -486.67335     132116.2   -44088.117    2736.4026   -46824.519   0.11048494 
   73500    226.53979   -497.70603    132127.36   -44073.845    2765.2391   -46839.084   0.10526293 
   73600    222.64849   -492.60016    132116.78   -44102.431    2717.7403   -46820.171   0.10772187 
   73700    220.24455   -510.41785    132109.28   -44185.301    2688.3968   -46873.698   0.10428208 
   73800    214.71972   -531.32327     132094.8   -44246.392    2620.9585    -46867.35   0.10754887 
   73900    216.85868   -488.26571    132099.82   -44216.762    2647.0675   -46863.829   0.10519902 
   74000     218.6557   -473.50547    132091.33   -44203.756    2669.0027   -46872.758   0.10284645 
   74100    223.75093   -505.36286    132134.51   -44088.426    2731.1972   -46819.623   0.10629649 
   74200    218.22952   -527.51743    132130.43   -44166.463    2663.8005   -46830.264   0.10554726 
   74300    217.98719   -507.64789    132104.78   -44209.481    2660.8426   -46870.324   0.10280353 
   74400    221.05474   -473.83628    132109.75   -44187.178    2698.2863   -46885.465   0.10278606 
   74500    218.73637   -483.09804    132100.66   -44234.549    2669.9874   -46904.537   0.10198841 
   74600    219.78952   -489.24392     132111.5   -44199.402    2682.8426   -46882.244    0.1039851 
   74700    223.84974   -499.65076     132116.1   -44152.978    2732.4033   -46885.381   0.10400554 
   74800    215.79364   -491.13479    132100.04   -44202.842    2634.0672   -46836.909   0.10658887 
   74900    219.84629   -496.13086    132103.44   -44172.929    2683.5355   -46856.464   0.10444922 
   75000    216.07939   -500.77065    132083.25   -44214.635    2637.5551    -46852.19   0.10890189 
   75100    219.38497   -500.77753    132101.51    -44144.64    2677.9044   -46822.544   0.10791688 
   75200    217.42594   -505.96243    132094.57   -44147.981    2653.9917   -46801.973   0.11061205 
   75300    218.43168   -512.29041    132090.17   -44204.975    2666.2682   -46871.243   0.10752915 
   75400    221.25849   -511.41279     132081.7   -44219.367    2700.7734   -46920.141   0.10412071 
   75500    216.97677   -508.52165    132071.58   -44231.858     2648.509   -46880.367   0.10719694 
   75600    219.88398   -481.43148    132085.17   -44175.571    2683.9956   -46859.566   0.10524789 
   75700    223.41633   -496.21145    132102.22   -44115.254    2727.1129   -46842.367   0.10751073 
   75800    220.87781   -505.15423    132098.24   -44110.298    2696.1267   -46806.424   0.11257283 
   75900    218.85859    -478.3715    132089.25   -44151.964    2671.4792   -46823.443   0.10368482 
   76000    221.77172   -502.29657    132086.12   -44143.698    2707.0382   -46850.736   0.11087261 
   76100    218.13375   -520.30369     132076.6   -44211.624    2662.6316   -46874.255    0.1044539 
   76200    216.15729   -488.76708    132070.06   -44250.901    2638.5061   -46889.407    0.1081739 
   76300    217.81547   -465.56196    132078.96   -44216.393    2658.7464   -46875.139   0.10535875 
   76400     216.9329   -511.86646    132073.15   -44227.523    2647.9735   -46875.496   0.10669245 
   76500    214.77191   -512.23293    132087.96   -44192.371    2621.5955   -46813.967    0.1107869 
   76600    220.43889   -497.46305    132094.23   -44183.184     2690.769   -46873.954   0.10398412 
   76700    220.08784   -487.65457     132111.5   -44158.582     2686.484   -46845.066   0.10785782 
[...]
   81900    216.31645   -507.76604    132087.67   -44235.037    2640.4488   -46875.485   0.10674525 
   82000    220.15398   -480.18398    132104.63   -44186.119    2687.2913    -46873.41   0.10032351 
   82100    222.62516   -502.08718    132131.77   -44151.989    2717.4556   -46869.444   0.10657919 
   82200    223.31472   -490.67529    132132.53   -44120.906    2725.8726   -46846.779   0.10318142 
   82300    220.85615   -546.73706    132115.32   -44194.832    2695.8623   -46890.694   0.10740794 
   82400    221.45893   -485.91344    132111.88   -44133.301      2703.22   -46836.521   0.10838775 
   82500    222.06996   -490.92973    132138.17   -44054.179    2710.6786   -46764.858   0.10783867 
   82600    222.70077   -513.22399    132132.35   -44092.739    2718.3785   -46811.118   0.10966348 
   82700    222.48175   -491.47481    132108.52   -44183.564    2715.7051   -46899.269   0.10439352 
   82800    220.56676   -492.61038    132089.17   -44178.178    2692.3299   -46870.508   0.10424481 
   82900     217.7524   -482.44151    132098.02   -44152.199    2657.9766   -46810.176    0.1112483 
   83000    224.18346   -496.93048    132110.54   -44124.653    2736.4768    -46861.13    0.1038312 
   83100    221.16773   -498.56066    132114.36   -44108.448    2699.6656   -46808.114   0.11150301 
   83200    220.34678    -529.9529    132107.65   -44153.635    2689.6448   -46843.279   0.10509651 
   83300    218.74441   -491.01725    132099.21   -44171.839    2670.0855   -46841.924   0.10677072 
   83400    220.04606    -502.4056     132097.9   -44178.172    2685.9741   -46864.146   0.10666256 
   83500    213.84253   -531.78935    132077.31   -44272.741    2610.2512   -46882.992   0.10497646 
   83600    216.05885   -500.22997    132074.91    -44247.07    2637.3044   -46884.374   0.10564849 
   83700    218.68935   -534.22091    132096.19   -44250.406    2669.4135   -46919.819    0.1048625 
   83800    216.71049   -497.84326    132077.48   -44234.173    2645.2587   -46879.432   0.10322656 
   83900    220.63471   -502.47715    132093.74   -44217.586    2693.1593   -46910.745   0.10763515 
   84000    217.01926   -484.25125     132092.2   -44221.115    2649.0277   -46870.142   0.10041828 
   84100    218.94949   -475.10887    132089.69   -44191.242    2672.5888   -46863.831   0.10669416 
   84200     220.2644   -520.86649    132087.66   -44172.751    2688.6391    -46861.39   0.10545574 
   84300    218.48144    -506.8079    132083.74   -44218.786    2666.8756   -46885.662   0.10597987 
   84400    219.11818   -483.91724     132081.7   -44209.543    2674.6479   -46884.191   0.10245799 
   84500    217.39741   -481.61388    132082.66   -44222.487    2653.6435   -46876.131   0.10309867 
   84600    219.51974   -511.04132    132098.27   -44170.425    2679.5496   -46849.975   0.10448946 
   84700    215.18168   -500.67209    132088.71   -44184.967    2626.5973   -46811.564   0.10767455 
   84800    221.08868   -509.58033    132083.14   -44180.111    2698.7006   -46878.812   0.10382536 
   84900    224.05074   -473.08999    132103.94   -44125.675    2734.8568   -46860.532   0.10676821 
   85000    220.36594   -490.30837    132101.23   -44178.567    2689.8786   -46868.446   0.10097695 
   85100    216.70648   -521.77976    132090.98   -44203.002    2645.2097   -46848.212   0.10662063 
   85200    219.04236   -529.53342    132108.44   -44189.122    2673.7224   -46862.844   0.10345337 
   85300     217.6615   -513.63897    132098.53   -44190.134    2656.8671   -46847.001   0.10479058 
   85400    216.25265   -503.56416    132102.11   -44232.708      2639.67   -46872.378   0.10371889 
   85500    219.25215   -496.03797    132107.02    -44202.78    2676.2832   -46879.063   0.10269426 
   85600    216.73433   -514.02348    132098.58   -44221.006    2645.5497   -46866.556   0.10164729 
   85700    214.36512   -501.76001    132104.29   -44218.053      2616.63   -46834.683   0.10518025 
   85800    217.79633   -491.67416    132096.78   -44189.046    2658.5129   -46847.559   0.10152339 
   85900    217.82253   -503.06233    132110.54   -44153.578    2658.8326   -46812.411   0.10824426 
   86000    220.79413   -497.68876    132111.07   -44195.979    2695.1053   -46891.084   0.10163916 
   86100    219.55826   -472.21043    132113.69   -44167.057    2680.0197   -46847.077   0.10304144 
   86200    218.72655   -494.03214     132133.2   -44180.054    2669.8675   -46849.921   0.10500705 
   86300    218.27593   -493.41373    132124.17    -44197.68    2664.3671   -46862.047   0.10262031 
   86400    219.06083   -512.42545    132114.64   -44224.923    2673.9479   -46898.871   0.10342647 
   86500      216.432   -490.34213    132111.96   -44260.746    2641.8593   -46902.605   0.10092165 
   86600     215.2229   -502.02364     132117.3   -44162.124    2627.1006   -46789.224   0.10419802 
   86700    217.80914   -507.19743    132123.89   -44174.019    2658.6692   -46832.688   0.10833184 
   86800    219.30506   -492.41956    132124.84   -44221.338    2676.9291   -46898.267  0.098441961 
   86900    218.46673   -520.73476    132130.16   -44194.336    2666.6961   -46861.032   0.10561856 
   87000    219.25519   -479.99723    132123.67   -44165.245    2676.3203   -46841.565   0.10138784 
   87100    215.73883   -497.14742    132122.77   -44194.969    2633.3982   -46828.367   0.10377929 
   87200    220.73682   -519.78332     132134.7   -44162.595    2694.4058   -46857.001   0.10445546 
   87300    213.82082    -488.6288    132135.39   -44143.047    2609.9861   -46753.033   0.10239581 
   87400    220.50365   -512.11632    132123.37   -44180.636    2691.5595   -46872.196   0.10560632 
   87500    222.19342   -497.51828    132136.74   -44156.059    2712.1856   -46868.245   0.10144966 
   87600    221.33037   -508.18095    132132.31   -44175.258    2701.6509   -46876.909   0.10293726 
   87700    219.09647   -517.12404     132140.9   -44170.338    2674.3829    -46844.72   0.10416551 
   87800    217.91022   -498.98634    132130.97   -44195.542     2659.903   -46855.445  0.098705392 
   87900    217.15267    -518.4923    132114.93   -44236.161    2650.6561   -46886.817    0.1047589 
   88000    218.73166    -508.8812    132117.57   -44203.635    2669.9299   -46873.565   0.10123285 
   88100    221.27706    -489.1208    132119.06   -44177.637    2701.0001   -46878.637  0.099342729 
   88200    216.74175   -510.74686    132109.87   -44246.162    2645.6403   -46891.802   0.10120741 
   88300    219.10697   -504.70147    132103.19    -44222.26    2674.5111   -46896.771  0.099414333 
   88400     221.4189    -493.0803     132119.7    -44174.58    2702.7315   -46877.311   0.10239813 
   88500    218.99548   -512.36498    132122.82   -44218.935    2673.1502   -46892.086   0.10165314 
   88600    219.61688   -485.69161    132106.52   -44193.815    2680.7353   -46874.551    0.1009812 
   88700    221.05334   -471.79264    132121.95   -44180.123    2698.2693   -46878.392   0.10180094 
   88800    216.62569   -488.26345    132113.74   -44208.159    2644.2235   -46852.383   0.10127219 
   88900    214.59508   -481.95966    132095.84   -44208.847    2619.4371   -46828.284   0.10262146 
   89000    214.04595   -522.82249    132103.98   -44166.858    2612.7342   -46779.592   0.10876202 
   89100    219.50677   -517.92418    132111.08   -44204.054    2679.3912   -46883.445   0.10174295 
   89200    218.21577   -493.02733    132109.01   -44164.533    2663.6328   -46828.165   0.10386976 
   89300    216.72886   -501.75358     132107.3   -44251.896    2645.4829   -46897.379   0.10047419 
   89400    219.58985   -526.83106    132116.21   -44166.067    2680.4053   -46846.472   0.10494953 
   89500    218.94012   -511.06411    132114.24   -44228.854    2672.4744   -46901.328   0.10266901 
   89600    219.03906   -507.37328    132086.94   -44293.794    2673.6821   -46967.476  0.098723453 
   89700    219.13974   -489.28116     132095.7   -44215.818    2674.9111   -46890.729   0.10177049 
   89800     220.0328   -486.86674    132117.99   -44179.925    2685.8122   -46865.737   0.10330899 
   89900    219.64246   -497.07634    132121.04   -44161.326    2681.0475   -46842.373   0.10223341 
   90000     217.8168   -510.66095    132113.48   -44195.226    2658.7627   -46853.988   0.10725249 
   90100    221.51009   -494.93276    132110.92   -44155.554    2703.8446   -46859.399   0.10110311 
   90200    219.87447   -492.54009    132100.45   -44197.451    2683.8795   -46881.331   0.10378035 
   90300    217.49315   -519.80963    132093.76   -44210.815    2654.8122   -46865.627   0.10392568 
   90400    221.57076   -506.89104    132099.83   -44185.214    2704.5851   -46889.799    0.1035581 
   90500    222.59994   -477.10182    132110.17   -44189.889    2717.1478   -46907.036   0.10089403 
   90600    221.48394   -503.39569     132117.5   -44167.503    2703.5254   -46871.028   0.10088791 
   90700    218.62531   -511.06554    132110.83   -44200.656    2668.6317   -46869.288   0.10244436 
   90800    215.46211   -506.53145    132109.67   -44233.004    2630.0204   -46863.025   0.10114876 
   90900    219.73325   -475.04758    132113.85   -44177.524    2682.1558   -46859.679   0.09925145 
   91000    213.97619   -510.99131    132093.94   -44245.064    2611.8827   -46856.947   0.10592732 
   91100    215.73295   -489.56957    132086.76   -44291.524    2633.3264    -46924.85  0.096509422 
   91200    215.73434    -495.0184    132086.04   -44287.828    2633.3433   -46921.171   0.10073728 
   91300    213.27522     -516.165    132090.87   -44246.056    2603.3263   -46849.383   0.10186884 
   91400    216.48763    -497.8154    132103.74   -44199.956    2642.5383   -46842.494   0.10292635 
   91500    224.26177   -493.31575     132125.4   -44087.845    2737.4327   -46825.277   0.10341462 
   91600    220.82615   -491.85045    132127.02   -44122.176    2695.4962   -46817.672   0.10555832 
   91700     216.3545   -523.23552    132109.32   -44194.556    2640.9133   -46835.469   0.10272598 
   91800    220.09206   -479.57202    132123.28   -44113.302    2686.5355   -46799.838   0.10534984 
   91900     217.8614   -506.31801    132126.15    -44156.12    2659.3071   -46815.427   0.10401444 
   92000     217.5882   -524.21918    132117.61   -44162.897    2655.9724   -46818.869   0.10819566 
   92100    220.47764    -475.1148    132118.84   -44200.247     2691.242   -46891.489  0.099870674 
   92200    215.83749   -504.21916    132104.76   -44216.715    2634.6025   -46851.317   0.10510836 
   92300    221.32753   -479.63373    132119.76   -44125.526    2701.6161   -46827.142   0.10641468 
   92400    222.08726   -495.12169    132115.79   -44165.839    2710.8897   -46876.729   0.10525312 
   92500    218.11384   -499.33944    132111.75   -44145.368    2662.3886   -46807.757   0.10595887 
   92600     221.5676   -527.70098    132126.86   -44109.444    2704.5466   -46813.991   0.11002405 
   92700     217.9465    -511.1858    132122.75   -44170.547    2660.3459   -46830.893   0.10214272 
   92800    218.05189   -518.70194     132119.1   -44168.825    2661.6324   -46830.457   0.10774792 
   92900    218.45722   -492.13082    132125.47   -44191.172    2666.5799   -46857.752   0.10128222 
   93000    217.34712   -483.17725    132112.45   -44198.487    2653.0296   -46851.517   0.10376364 
   93100    219.80051   -486.54284     132132.2   -44192.711    2682.9768   -46875.688  0.098669279 
   93200     220.8802   -483.31775    132128.18   -44180.536    2696.1559   -46876.691  0.099710181 
   93300    214.89141   -508.27415    132120.62   -44225.178    2623.0542   -46848.233   0.10270112 
   93400    216.17824   -513.29961     132119.1   -44265.781    2638.7618   -46904.543  0.097982649 
   93500    216.85713   -473.10919    132111.37    -44233.56    2647.0486   -46880.609  0.099532612 
   93600    218.35216   -495.54966    132114.76   -44210.939    2665.2976   -46876.237   0.10315408 
   93700    219.25793   -501.36039    132121.08     -44200.7    2676.3537   -46877.053  0.097400184 
   93800    216.40078    -498.4524    132115.04   -44236.344    2641.4781   -46877.822   0.10352686 
   93900    212.74201   -512.68105    132107.16   -44258.643    2596.8177   -46855.461  0.098264729 
   94000    218.32072   -489.13298    132099.14   -44266.083    2664.9138   -46930.997   0.10251769 
   94100    222.86772   -504.88423    132135.93   -44185.589    2720.4164   -46906.006   0.10023187 
   94200    222.74116   -500.29548    132151.04   -44151.101    2718.8716   -46869.973   0.10104146 
   94300    216.88536   -518.54809    132148.47   -44170.725    2647.3931   -46818.118   0.10264126 
   94400    220.90542   -481.67602    132147.81   -44197.995    2696.4637   -46894.459   0.09916745 
   94500     220.8969   -486.39673    132147.79   -44128.412    2696.3597   -46824.772    0.1041241 
   94600    218.78127    -506.7373    132139.46   -44217.358    2670.5355   -46887.894   0.10299889 
   94700    217.90043   -516.80731    132139.74   -44221.208    2659.7835   -46880.992   0.10215682 
   94800    218.08908   -516.70225    132131.51   -44210.788    2662.0863   -46872.875    0.1044057 
   94900    216.97392   -493.50577    132130.54   -44247.954    2648.4742   -46896.428  0.099349946 
   95000    214.89664   -478.09522    132123.37   -44217.714    2623.1181   -46840.832   0.10504584 
   95100    216.34283   -504.24043    132133.14   -44212.175    2640.7708   -46852.946   0.10264344 
   95200    222.44733   -498.96033    132141.34   -44193.932    2715.2849   -46909.217   0.10051833 
   95300      216.701   -511.26551     132135.8   -44205.156    2645.1429   -46850.299   0.10339749 
   95400    218.80215   -487.50732    132141.61   -44179.599    2670.7903    -46850.39   0.10219012 
   95500    219.32267   -489.51603    132148.07   -44148.969     2677.144   -46826.113   0.10054952 
   95600    216.78961   -513.87156    132154.08   -44191.156    2646.2245   -46837.381   0.10427384 
   95700     222.7794     -506.173    132143.24   -44174.106    2719.3383   -46893.444  0.098207508 
   95800    218.31713   -500.80567    132131.41   -44182.199    2664.8699   -46847.069   0.10350598 
   95900    220.33192   -517.87897    132122.84   -44188.473    2689.4633   -46877.937   0.10278123 
   96000     217.0121   -509.78945    132144.25   -44162.472    2648.9402   -46811.412   0.10317297 
   96100    220.97181    -471.5794    132155.41    -44101.12    2697.2741   -46798.394   0.10485159 
   96200    220.16935   -496.41129    132153.83   -44128.812    2687.4789   -46816.291   0.10291201 
   96300    221.60964   -498.94584    132148.57   -44151.338    2705.0598   -46856.398   0.10257766 
   96400    222.44698   -492.11244    132139.05   -44181.413    2715.2806   -46896.694   0.10267913 
   96500     221.2069   -500.09464    132138.03   -44163.852    2700.1437   -46863.996  0.099670894 
   96600     214.9004   -518.72898    132130.15   -44201.336     2623.164     -46824.5   0.10478296 
   96700    220.92934   -506.36518    132129.37   -44181.988    2696.7557   -46878.744  0.099465909 
   96800    219.39849   -518.11855    132127.89   -44197.523    2678.0695   -46875.592   0.10145613 
   96900    218.87956   -487.77406    132140.53   -44233.634    2671.7352    -46905.37  0.099119271 
   97000    216.57655   -501.26652    132125.55   -44242.822    2643.6237   -46886.445   0.10103678 
   97100    217.56224   -507.19381    132116.02   -44231.243    2655.6554   -46886.899   0.10428316 
   97200    218.95615   -492.75579    132114.01    -44222.57      2672.67    -46895.24  0.098914924 
   97300     219.8086   -492.55863    132140.55   -44120.847    2683.0755   -46803.922   0.10507818 
   97400    219.40118   -513.32612    132143.97   -44160.682    2678.1023   -46838.784   0.10438185 
   97500    219.24387   -509.51371    132143.85   -44138.857    2676.1821    -46815.04   0.10548473 
   97600    218.99932   -509.58902    132146.61   -44127.841    2673.1971   -46801.038   0.11009316 
   97700    222.90212   -509.59793    132157.97    -44116.47    2720.8363   -46837.306   0.10044382 
   97800    225.86182   -501.97792    132142.66   -44154.006    2756.9636    -46910.97   0.10207432 
   97900    223.00695   -483.84959    132139.23   -44146.653    2722.1159   -46868.768   0.10305524 
   98000    219.11291   -499.01196    132120.88   -44180.672    2674.5835   -46855.256   0.10321078 
   98100    217.99769   -510.06217    132120.42   -44177.806    2660.9707   -46838.776   0.10682625 
   98200    220.54098   -512.81648    132120.07   -44200.518    2692.0152   -46892.533    0.1011949 
   98300    219.06933   -500.23699    132117.69   -44125.294    2674.0516   -46799.345   0.10716304 
   98400    218.56038   -508.41004    132107.67    -44155.77    2667.8391   -46823.609   0.10531705 
   98500    218.96847   -491.69521    132112.31   -44162.746    2672.8205   -46835.567    0.1051974 
   98600    218.55272   -495.40869    132120.32   -44169.822    2667.7457   -46837.567   0.10519635 
   98700    220.86734   -498.92869    132133.99   -44139.023    2695.9989   -46835.022   0.10420965 
   98800    219.71381   -505.91732    132133.17   -44123.899    2681.9185   -46805.818   0.10470385 
   98900    216.99813   -522.50755    132123.67   -44189.462    2648.7697   -46838.232   0.10380925 
   99000    219.83409    -498.5308    132117.17   -44175.448    2683.3866   -46858.834   0.10178658 
   99100     219.1883   -492.50158    132117.31   -44227.902    2675.5038   -46903.405    0.1002932 
   99200    218.03316   -515.37329     132116.4   -44207.879    2661.4037   -46869.283   0.10212417 
   99300    220.85539     -498.098     132122.8   -44192.997     2695.853    -46888.85   0.10120468 
   99400    217.17593   -523.63745     132115.4   -44217.537      2650.94   -46868.477   0.10013289 
   99500    217.61886   -492.24538    132109.85   -44180.402    2656.3465   -46836.749   0.10497891 
   99600    218.10822   -491.79627    132118.88   -44164.371    2662.3199   -46826.691   0.10364402 
   99700    220.45315   -498.53654    132098.47   -44205.859    2690.9432   -46896.802   0.10518058 
   99800    220.64935   -495.09082    132107.74   -44191.292    2693.3381    -46884.63   0.10184689 
   99900    217.51061    -525.1528    132098.98   -44221.872    2655.0253   -46876.897   0.10625032 
  100000    218.59627   -501.92461    132101.55   -44189.694    2668.2773   -46857.971   0.10361818 
Loop time of 50.6712 on 6 procs for 100000 steps with 4096 atoms

Performance: 852.556 ns/day, 0.028 hours/ns, 1973.509 timesteps/s
97.7% CPU use with 6 MPI tasks x no OpenMP threads

MPI task timing breakdown:
Section |  min time  |  avg time  |  max time  |%varavg| %total
---------------------------------------------------------------
Pair    | 33.37      | 34.165     | 35.219     |  12.1 | 67.42
Neigh   | 4.07       | 4.1457     | 4.2748     |   4.2 |  8.18
Comm    | 8.2925     | 9.435      | 10.248     |  24.9 | 18.62
Output  | 0.1709     | 0.1723     | 0.17837    |   0.7 |  0.34
Modify  | 2.0178     | 2.0314     | 2.054      |   0.8 |  4.01
Other   |            | 0.7223     |            |       |  1.43

Nlocal:        682.667 ave         707 max         650 min
Histogram: 1 0 0 0 2 0 1 0 1 1
Nghost:        1370.00 ave        1406 max        1340 min
Histogram: 1 1 1 0 0 1 0 1 0 1
Neighs:        0.00000 ave           0 max           0 min
Histogram: 6 0 0 0 0 0 0 0 0 0
FullNghs:      19345.0 ave       20032 max       18424 min
Histogram: 1 0 0 0 2 0 1 0 1 1

Total # of neighbors = 116070
Ave neighs/atom = 28.337402
Neighbor list builds = 4418
Dangerous builds = 0

undump              1
unfix               2
unfix               3
unfix               4




################################################
#######         Run Simulation         #########
################################################

reset_timestep      0
log                 log.run_${NAME}
log                 log.run_ice_219K_500atm_ML
