
# Create simulation box of size 50 x 50 x 50 Angstrom
#
lattice	            sc 1
Lattice spacing in x,y,z = 1.0000000 1.0000000 1.0000000
region 	            all block 0 50 0 50 0 50 units box
create_box          1 all
Created orthogonal box = (0.0000000 0.0000000 0.0000000) to (50.000000 50.000000 50.000000)
  1 by 2 by 3 MPI processor grid

# fill box with 4169 randomly distributed atoms
#
create_atoms        1 random 4169 63782 all
Created 4169 atoms
  create_atoms CPU = 0.000 seconds
mass                1 18.015

# Define potential
#
pair_style          sw
pair_coeff          * * ML_mW.sw mW
Reading sw potential file ML_mW.sw with DATE: 2019-02-27

# Run minimization
#
minimize            1.0e-8 1.0e-8 10000 1000
WARNING: Using 'neigh_modify every 1 delay 0 check yes' setting during minimization (../min.cpp:187)
Neighbor list info ...
  update every 1 steps, delay 0 steps, check yes
  max neighbors/atom: 2000, page size: 100000
  master list distance cutoff = 6.0032907
  ghost atom cutoff = 6.0032907
  binsize = 3.0016454, bins = 17 17 17
  1 neighbor lists, perpetual/occasional/extra = 1 0 0
  (1) pair sw, perpetual
      attributes: full, newton on
      pair build: full/bin/atomonly
      stencil: full/bin/3d
      bin: standard
Per MPI rank memory allocation (min/avg/max) = 4.255 | 4.258 | 4.261 Mbytes
Step Temp E_pair E_mol TotEng Press 
       0            0    7783778.6            0    7783778.6    5891538.7 
     630            0   -45100.671            0   -45100.671   -33.645425 
Loop time of 1.17187 on 6 procs for 630 steps with 4169 atoms

99.0% CPU use with 6 MPI tasks x no OpenMP threads

Minimization stats:
  Stopping criterion = max force evaluations
  Energy initial, next-to-last, final = 
       7783778.6045464  -45100.6138394717  -45100.6714481628
  Force two-norm initial, final = 2.0191929e+08 1.9154294
  Force max component initial, final = 1.0948746e+08 0.55224559
  Final line search alpha, max atom move = 0.074060414 0.040899537
  Iterations, force evaluations = 630 1001

MPI task timing breakdown:
Section |  min time  |  avg time  |  max time  |%varavg| %total
---------------------------------------------------------------
Pair    | 0.88505    | 0.98456    | 1.0454     |   5.6 | 84.02
Neigh   | 0.024047   | 0.024737   | 0.026108   |   0.4 |  2.11
Comm    | 0.080422   | 0.14104    | 0.24108    |  15.0 | 12.04
Output  | 0          | 0          | 0          |   0.0 |  0.00
Modify  | 0          | 0          | 0          |   0.0 |  0.00
Other   |            | 0.02154    |            |       |  1.84

Nlocal:        694.833 ave         711 max         678 min
Histogram: 1 2 0 0 0 0 0 1 0 2
Nghost:        1484.33 ave        1523 max        1464 min
Histogram: 2 1 0 1 0 1 0 0 0 1
Neighs:        0.00000 ave           0 max           0 min
Histogram: 6 0 0 0 0 0 0 0 0 0
FullNghs:      19864.7 ave       20554 max       18883 min
Histogram: 1 0 0 2 0 0 0 0 1 2

Total # of neighbors = 119188
Ave neighs/atom = 28.589110
Neighbor list builds = 26
Dangerous builds = 0

# Add velocity/set timestep
#
velocity            all create ${TEMP} 120598 rot yes dist gaussian
velocity            all create 298 120598 rot yes dist gaussian
timestep            5.0

# Define output
#
compute	            1 all msd
thermo	            100
thermo_style        custom step temp press vol etotal ke pe c_1[4] density

# Neighbor lists
#
neigh_modify        delay 0 every 1 check yes

# Set fixes
#
fix                 1 all momentum 10 linear 1 1 1 rescale
fix                 2 all nve
fix                 3 all temp/csvr ${TEMP} ${TEMP} 500.0 928347
fix                 3 all temp/csvr 298 ${TEMP} 500.0 928347
fix                 3 all temp/csvr 298 298 500.0 928347
fix                 4 all press/berendsen iso ${PRES} ${PRES} 1000.0 modulus 20000
fix                 4 all press/berendsen iso -1000 ${PRES} 1000.0 modulus 20000
fix                 4 all press/berendsen iso -1000 -1000 1000.0 modulus 20000

# Run 0.5 ns equilibration
#
dump                1 all custom 1000 eq.${NAME}.dump id type x y z vx vy vz
dump                1 all custom 1000 eq.liquid_298K_1000atm_ML.dump id type x y z vx vy vz
run                 100000
Per MPI rank memory allocation (min/avg/max) = 3.506 | 3.508 | 3.511 Mbytes
Step Temp Press Volume TotEng KinEng PotEng c_1[4] Density 
     630          298    1320.2999       125000   -41398.315    3702.3569   -45100.671 2.1849767e-33   0.99771203 
     700    185.58715   -463.67406    126731.39    -40224.22    2305.7378   -42529.957   0.38516009   0.98408143 
     800     224.8196   -733.59746    127381.66   -39107.075    2793.1624   -41900.237   0.96613286   0.97905776 
     900    254.84331   -696.21324    127616.92   -38429.103    3166.1774    -41595.28    1.5941185   0.97725287 
    1000    266.76967   -799.09957    127895.46   -37961.527    3314.3508   -41275.878    2.3867488   0.97512456 
    1100    279.75256   -892.22819    128503.22   -37595.924    3475.6503   -41071.574    3.2606589   0.97051266 
    1200    280.66496    -878.5112    128536.12   -37552.068     3486.986   -41039.054    4.1198754   0.97026427 
    1300     288.9196   -958.07958    128848.43   -37440.584    3589.5418   -41030.126    5.1189318   0.96791247 
    1400    285.83423   -722.11914    129124.45   -37379.403    3551.2091   -40930.612    6.2285125   0.96584343 
    1500    286.89751   -915.88577    128951.23   -37282.752    3564.4193   -40847.172    7.2384249   0.96714089 
    1600     292.7565   -859.72058    129090.21   -37073.446    3637.2115   -40710.657    8.0904462   0.96609963 
    1700    284.70822   -853.28161    129224.48   -37033.355    3537.2195   -40570.575    9.1949287   0.96509584 
    1800    289.81576   -1147.1778    129292.35   -37087.095    3600.6757    -40687.77      10.2264   0.96458921 
    1900    297.07822   -954.19384    129030.04   -37070.046    3690.9047    -40760.95    11.366875   0.96655011 
    2000    300.71245   -1176.3511    129156.14   -36982.258    3736.0564   -40718.314    12.344943   0.96560645 
    2100    293.70727   -985.13958    129323.98   -36888.205    3649.0239   -40537.229    13.481654   0.96435326 
    2200    294.74397   -940.97591    129065.51   -36907.927    3661.9039   -40569.831    14.134647   0.96628449 
    2300    298.10901   -1121.8254    129062.75    -36853.15    3703.7112   -40556.862    15.279246   0.96630516 
    2400    298.22116   -834.84829    128975.17   -36867.918    3705.1046   -40573.022    16.409161   0.96696135 
    2500    303.25351   -1003.4781    129040.73   -36800.482    3767.6266   -40568.108    17.396285   0.96647006 
    2600    302.94458   -987.06643    129258.98   -36708.479    3763.7884   -40472.267    18.334921   0.96483821 
    2700    300.79209    -1158.507    129228.79   -36712.169    3737.0458   -40449.215    19.416125   0.96506365 
    2800    300.05501   -1034.2142    129117.96   -36685.019    3727.8883   -40412.907      20.5637   0.96589198 
    2900    297.00054   -1066.9628    129412.32   -36766.437    3689.9396   -40456.376    21.808654   0.96369499 
    3000    303.82391   -862.18882    129266.03   -36827.494    3774.7132   -40602.207    23.010147   0.96478556 
    3100    297.19323   -1186.6018    129660.23   -36768.237    3692.3335   -40460.571    24.153987   0.96185243 
    3200    292.11773    -917.2978    129485.89   -36803.262    3629.2755   -40432.537    25.257452   0.96314741 
    3300    298.25579   -969.58749    129363.63   -36776.751    3705.5348   -40482.285    26.378882   0.96405773 
    3400    293.90575   -924.68447    129366.12   -36809.862    3651.4898   -40461.352    27.330914   0.96403918 
    3500    298.14967   -712.96393     129456.9   -36844.194    3704.2163    -40548.41    28.727418    0.9633631 
    3600    292.78848    -884.8199    129608.63   -36887.605    3637.6088   -40525.214    30.297715   0.96223533 
    3700    289.70088   -1352.6161    129103.32   -36998.362    3599.2485    -40597.61    31.474669   0.96600154 
    3800    297.00052   -779.56297    128785.33   -36943.235    3689.9393   -40633.174    32.575944   0.96838674 
    3900    295.79179   -920.42721     128762.9    -36964.25     3674.922   -40639.172    33.570354   0.96855541 
    4000    295.58028   -1380.8951    129056.23   -36929.663    3672.2942   -40601.957    34.848887   0.96635398 
    4100    297.66094   -1060.8391    128871.74   -36914.244    3698.1443   -40612.389    35.998895   0.96773744 
    4200     297.4814   -765.04521    128561.27   -36913.527    3695.9138   -40609.441    37.067421   0.97007442 
    4300    294.80245   -1067.4489    128623.66   -36894.835    3662.6305   -40557.466    37.998903    0.9696039 
    4400    294.20937   -821.65656    128675.08   -36878.745    3655.2621   -40534.007    39.543682   0.96921645 
    4500    289.50534   -814.75412    128781.82   -36863.353     3596.819   -40460.172     40.64472   0.96841313 
    4600    289.15713   -848.05507       128869   -36906.213    3592.4928   -40498.705    42.021386     0.967758 
    4700    300.60454   -935.47683    128841.07   -36808.712    3734.7157   -40543.427    43.221817   0.96796776 
    4800    297.29837   -1268.1022    128837.28   -36899.112    3693.6398   -40592.752    44.260584   0.96799626 
    4900    303.69995   -936.48103    128712.81    -36753.25    3773.1732   -40526.423    45.060548   0.96893232 
    5000     303.3875   -840.75482    128976.09   -36688.135    3769.2912   -40457.426      46.3723   0.96695441 
    5100    306.27233   -1081.2904    129176.87    -36771.64    3805.1325   -40576.773    47.718868   0.96545153 
    5200    294.91386   -934.77453    129209.77   -36857.588    3664.0146   -40521.602    49.094149   0.96520571 
    5300    298.45194   -1080.2939    129514.08   -36798.455    3707.9717   -40506.427    50.447452   0.96293779 
    5400     299.1576   -887.81063    129395.07   -36839.129    3716.7389   -40555.868     51.45777   0.96382344 
    5500    300.52889   -866.52378    129535.62   -36825.381    3733.7759   -40559.157    52.666089   0.96277771 
    5600    298.29708   -980.02898    129321.79    -36837.11    3706.0478   -40543.158    53.534017    0.9643696 
    5700    299.97288   -879.33746    129214.61   -36832.122    3726.8679    -40558.99    54.532726   0.96516953 
    5800    299.05872   -1339.7088    129036.79   -36890.847    3715.5104   -40606.358    55.578168   0.96649956 
    5900    292.96264   -1087.3198    129180.89   -36935.528    3639.7726   -40575.301    57.107883   0.96542149 
    6000    295.07549   -951.33238     129215.4   -36938.298    3666.0227   -40604.321    58.526275   0.96516364 
    6100    299.17442   -1283.0437    129243.72   -36854.534    3716.9479   -40571.482    59.779867   0.96495214 
    6200    294.44851   -1056.4231    129293.74   -36937.277     3658.233    -40595.51    60.816341   0.96457883 
    6300    294.33617    -1000.728    129431.78   -36870.344    3656.8374   -40527.181    62.116862    0.9635501 
    6400    298.41658   -1244.1366    129069.55   -36834.974    3707.5324   -40542.506    62.895391   0.96625424 
    6500    297.73214   -733.51716    129098.11    -36764.61     3699.029   -40463.639     63.52866   0.96604047 
    6600    296.36325   -1114.6302    129211.16   -36870.454    3682.0218   -40552.476    64.456395   0.96519528 
    6700    295.91549   -1137.2638    129055.49   -36979.758    3676.4588   -40656.217    65.588207   0.96635957 
    6800    294.05151   -674.35587    129011.56   -36875.179    3653.3007    -40528.48    66.430772    0.9666886 
    6900    297.73894   -828.56648    129051.14   -36783.423    3699.1135   -40482.536    67.343095    0.9663921 
    7000    302.57833   -1185.3644    128971.58   -36765.617     3759.238   -40524.855    68.281527   0.96698825 
    7100    303.88605   -948.89374    129425.66   -36787.854    3775.4853   -40563.339    69.595436   0.96359567 
    7200    295.16818   -819.48737       129631   -36874.862    3667.1742   -40542.036    70.791501   0.96206929 
    7300    293.73648   -1038.0681    129392.56   -36956.673    3649.3868    -40606.06    71.522388   0.96384213 
    7400    295.10742   -1011.7849    129252.86   -37009.987    3666.4194   -40676.407    72.483834    0.9648839 
    7500      293.781   -1009.3275    129496.69   -36961.773      3649.94   -40611.713     73.39771   0.96306708 
    7600     290.8174   -909.27631    129457.45   -37093.115    3613.1201   -40706.235    74.722416     0.963359 
    7700    298.74083   -1053.1304    129329.47   -36975.883     3711.561   -40687.444    75.588274   0.96431232 
    7800     296.8198   -785.22767     129223.2   -36952.433     3687.694   -40640.127    76.844837   0.96510536 
    7900    294.56324   -882.96007    129492.53   -37019.211    3659.6585    -40678.87    78.312936   0.96309802 
    8000    296.10002   -1046.1296    129356.49   -36972.326    3678.7515   -40651.077    79.100382   0.96411093 
    8100    295.00805   -1011.4864    129089.37    -37070.99    3665.1849   -40736.175    80.266467   0.96610594 
    8200    287.49255   -1005.3481    129090.33   -37094.307    3571.8122   -40666.119    81.558704   0.96609876 
    8300    295.03837   -974.72545    129132.35   -37048.275    3665.5615   -40713.837    82.629092   0.96578435 
    8400    293.45241   -993.14427    129243.87   -37001.077    3645.8575   -40646.935    83.847336   0.96495101 
    8500     300.8705   -959.19019    129496.23   -36889.909      3738.02   -40627.929    84.928285   0.96307053 
    8600    293.83869   -776.85399     129596.2   -36916.033    3650.6567   -40566.689    85.909533   0.96232762 
    8700    302.27292   -1049.7923    129683.43    -36904.23    3755.4437   -40659.674    86.920407   0.96168034 
    8800    294.67136   -1019.2653    129672.04   -36961.617    3661.0017   -40622.619    88.026975   0.96176483 
    8900    292.71369   -981.24423    129813.01   -37064.855    3636.6796   -40701.534    89.653997   0.96072034 
    9000    298.79099   -1001.0568    129869.11   -37014.343    3712.1842   -40726.527    90.810494   0.96030536 
    9100    293.48834   -1032.8498     129714.2   -37108.464     3646.304   -40754.767     91.56795    0.9614522 
    9200    295.41124   -769.63283    129591.37   -36955.494    3670.1941   -40625.689    92.679806   0.96236351 
    9300    291.80391   -1110.9338    129617.52   -36989.752    3625.3765   -40615.128    93.389032   0.96216931 
    9400    296.75789   -864.95525    129972.59   -36927.384    3686.9249   -40614.309    94.540854    0.9595408 
    9500    295.62423   -1279.8473    129518.23   -36950.469    3672.8403   -40623.309    95.390295   0.96290696 
    9600    299.56498   -998.81877    129290.05   -36912.857    3721.8002   -40634.657    96.148132   0.96460637 
    9700     295.4462   -1024.6079    129680.86   -36796.045    3670.6284   -40466.674    97.523276   0.96169936 
    9800    290.42352   -978.44254    129940.03   -36892.639    3608.2265   -40500.866    98.809645   0.95978122 
    9900    292.93166   -1091.8622    130007.45    -36980.63    3639.3877   -40620.018    99.460343   0.95928353 
   10000    294.70958   -1220.3093    129773.43   -36988.714    3661.4766    -40650.19    100.02777   0.96101339 
   10100    296.12511   -1024.2346    129481.65    -36952.19    3679.0632   -40631.253    100.99685   0.96317897 
   10200    295.35905   -895.48469    129519.09   -37006.061    3669.5456   -40675.606    102.71387   0.96290054 
   10300    299.33752   -1144.5746    129491.26   -36991.792    3718.9742   -40710.766    103.52427   0.96310753 
   10400    298.82723   -1117.2052    129545.88   -36947.022    3712.6343   -40659.656    104.87496   0.96270142 
   10500    297.66021   -1238.9072     129292.6   -36908.044    3698.1352   -40606.179    105.75871   0.96458733 
   10600    300.40486   -1137.8215    129062.67   -36829.207    3732.2348   -40561.442    107.03229   0.96630576 
   10700    298.06763    -1167.866    128917.86   -36810.072     3703.197   -40513.269    108.12594   0.96739118 
   10800    299.92934   -1181.8085    128721.09   -36772.651    3726.3271   -40498.978    109.43488   0.96887003 
   10900    295.92267   -935.86596    128995.68   -36786.935     3676.548   -40463.483    110.58953   0.96680763 
   11000    303.58804   -926.56556    129570.53   -36763.645    3771.7828   -40535.428    111.81244   0.96251829 
   11100    296.11914   -1113.4202    129277.02    -36835.64     3678.989   -40514.629    113.05521   0.96470354 
   11200    297.26833   -922.61721    129132.14   -36823.424    3693.2666   -40516.691    113.98193   0.96578591 
   11300    296.53037   -1080.0044    129505.11   -36821.427    3684.0982   -40505.525    114.99162   0.96300447 
   11400     297.6213   -903.50992    129496.84   -36813.685    3697.6518   -40511.336    116.44946   0.96306599 
   11500    292.83371     -1018.78     129412.1   -36839.446    3638.1708   -40477.617     117.7627   0.96369666 
   11600    299.41073   -827.58371    129536.92   -36848.783    3719.8838   -40568.667    119.09317   0.96276798 
   11700    301.95192   -1130.2615    129591.55   -36719.038    3751.4556   -40470.493    120.28495   0.96236219 
   11800    297.06114    -1395.838    129571.77   -36833.782    3690.6924   -40524.474     121.4571    0.9625091 
   11900    300.17409   -1030.1841    129518.74   -36856.461    3729.3678   -40585.829    122.49527   0.96290315 
   12000    292.28931   -803.74702    129535.68   -36860.438    3631.4071   -40491.845    123.95827   0.96277725 
   12100    296.79675   -965.78334    129868.15   -36778.984    3687.4076   -40466.391    125.11286   0.96031248 
   12200    295.70467   -923.46711    129856.89   -36766.966    3673.8396   -40440.805    126.71695   0.96039571 
   12300    300.18999   -1022.7786    129736.98   -36794.032    3729.5653   -40523.597    127.56969   0.96128337 
   12400    301.69123   -905.65438    129930.92   -36789.191    3748.2167   -40537.408    128.95645   0.95984856 
   12500    295.91023   -966.12237    129944.54   -36924.808    3676.3935   -40601.201    130.40403   0.95974792 
   12600     296.2647    -999.7738    129988.37   -36811.848    3680.7975   -40492.646    131.69539   0.95942431 
   12700    298.31552   -926.23742    129986.74   -36787.073    3706.2769    -40493.35    132.66109   0.95943638 
   12800    303.90493   -1189.2901    129675.04   -36741.724    3775.7198   -40517.443    133.57942   0.96174258 
   12900    291.05951    -1180.725    129656.49   -36817.564    3616.1281   -40433.692    134.43624   0.96188012 
   13000    304.36089   -1135.6972    129366.77   -36752.889    3781.3846   -40534.274    135.30475   0.96403433 
   13100    300.74357   -1082.5881    129385.63   -36754.494     3736.443   -40490.937     136.8166   0.96389379 
   13200    300.30615   -834.48551     129291.2   -36624.097    3731.0085   -40355.106    138.22965   0.96459781 
   13300    303.25345   -1052.3721    129252.92   -36682.033    3767.6258   -40449.659    139.51921   0.96488342 
   13400    293.86598   -960.65733    129522.56   -36774.544    3650.9958    -40425.54    141.27117   0.96287473 
   13500    296.12821    -1055.256    129764.47   -36822.494    3679.1018   -40501.596    142.59687   0.96107972 
   13600    303.27062   -882.08024    129535.88   -36890.636    3767.8391   -40658.475    143.60883   0.96277577 
   13700    298.98098   -1182.7945    129779.64   -36890.321    3714.5446   -40604.866    144.89313   0.96096743 
   13800    295.08996   -878.11541    129736.44   -36792.348    3666.2025    -40458.55    146.20131   0.96128742 
   13900    299.25486    -1163.998    129793.38   -36837.137    3717.9473   -40555.084    146.97256    0.9608657 
   14000     296.3268   -860.32113    129826.71   -36809.303    3681.5689   -40490.872    148.12509   0.96061901 
   14100    296.90539   -699.77728    130217.97   -36796.055    3688.7574   -40484.813    149.88835   0.95773264 
   14200    300.01274   -1144.5297    130118.44   -36812.481    3727.3631   -40539.845    150.79124   0.95846526 
   14300    291.45735   -1084.1203    129972.74   -36866.941    3621.0708   -40488.012    151.63904   0.95953971 
   14400    293.72503   -1335.2672    129618.39   -36840.638    3649.2446   -40489.882    152.77524   0.96216288 
   14500    300.85366   -1025.9924    129718.87   -36782.655    3737.8108   -40520.466    154.66875   0.96141755 
   14600    296.53502   -984.64947    129690.46    -36792.69    3684.1559   -40476.846    155.48483   0.96162817 
   14700    298.00685   -926.45842     129465.7   -36845.471    3702.4419   -40547.913    155.86093   0.96329766 
   14800    294.81265   -1295.2767    128993.32   -36914.735    3662.7572   -40577.492     156.9592    0.9668253 
   14900     298.8522   -1154.3083    128860.45   -37048.856    3712.9446     -40761.8    158.25588   0.96782222 
   15000    292.14679   -794.79334    128540.21   -37071.685    3629.6365   -40701.321    158.75491   0.97023338 
   15100     292.1192   -610.40189    129134.24   -37083.415    3629.2937   -40712.709    160.36234   0.96577021 
   15200    292.30728   -1198.5544    128937.52   -36976.722    3631.6304   -40608.352    161.27193   0.96724373 
   15300    294.15809    -834.3586    129150.76   -36959.074    3654.6248   -40613.699    162.05535   0.96564668 
   15400    295.86183   -1083.5202    128917.95   -36959.571    3675.7922   -40635.363    163.24164   0.96739056 
   15500    295.13957   -1067.3398    128541.51   -36947.753    3666.8188   -40614.572    164.05879   0.97022359 
   15600    298.02335   -798.81617    128771.11   -36853.052     3702.647   -40555.699    165.40015   0.96849363 
   15700    289.80216   -872.64898    129084.28   -36966.889    3600.5067   -40567.396    166.36422   0.96614398 
   15800    296.44895    -1050.961    129361.65    -36938.36    3683.0865   -40621.447     167.7269   0.96407242 
   15900    291.25127   -1167.2061    129094.78   -36986.915    3618.5105   -40605.426    168.79011   0.96606541 
   16000     296.2207   -988.03547    129043.37   -36894.634    3680.2508   -40574.885    169.75139    0.9664503 
   16100    301.12827   -982.45808    129377.81   -36829.412    3741.2225   -40570.634    171.23712   0.96395204 
   16200    302.21613   -1023.2738     129403.3   -36932.919    3754.7381   -40687.658    172.20312   0.96376219 
   16300    295.79975   -915.03166    129318.94   -36964.458    3675.0209   -40639.479    173.69472   0.96439089 
   16400    302.57956   -970.72584    129345.85   -36828.256    3759.2534   -40587.509    174.44603    0.9641902 
   16500    294.43703   -1128.3453    129165.78   -36793.075    3658.0904   -40451.165    175.37623   0.96553438 
   16600     299.7349   -1024.1785    128913.33    -36744.37    3723.9113   -40468.281    176.00545    0.9674252 
   16700    297.18894   -1055.3882    128813.55   -36787.181    3692.2802   -40479.461    177.28409   0.96817454 
   16800    302.38173   -810.17581    128863.84   -36779.218    3756.7955   -40536.013    178.36979   0.96779677 
   16900    302.14073   -1232.0854     128995.8   -36714.076    3753.8014   -40467.877    180.08972   0.96680672 
   17000    299.37489   -1102.7651    129138.85   -36740.138    3719.4385   -40459.577    181.68605   0.96573574 
   17100    301.06279   -1123.2154    128830.51   -36637.814     3740.409   -40378.223    182.84122   0.96804712 
   17200    305.05291   -1075.9439    129238.92   -36678.886    3789.9823   -40468.869    184.52037   0.96498796 
   17300    298.12336   -1185.2045    128934.89   -36769.612    3703.8895   -40473.501    185.31024   0.96726344 
   17400    298.30508   -932.04752    128770.95   -36794.825    3706.1472   -40500.972    186.70642   0.96849487 
   17500    301.20514   -1133.3536    128871.43   -36774.075    3742.1776   -40516.253    187.83716    0.9677397 
   17600    299.48285   -1023.4525    128979.06   -36745.747    3720.7798   -40466.527    189.13938   0.96693218 
   17700     298.7782   -1034.7307    129099.54   -36763.639    3712.0252   -40475.665    190.55414   0.96602977 
   17800    297.39268   -1035.6415    129134.24   -36758.212    3694.8115   -40453.023    191.62771   0.96577019 
   17900    301.48165   -797.90163    129484.18    -36685.77    3745.6129   -40431.383     193.1095   0.96316019 
   18000    299.29574   -775.83611    129370.23   -36627.276    3718.4552   -40345.731    193.95243   0.96400855 
   18100    300.13804   -1059.6427    129236.75    -36768.71    3728.9198    -40497.63    195.41494    0.9650042 
   18200    299.66392   -928.16051    129371.04   -36760.428    3723.0294   -40483.458    196.18049    0.9640025 
   18300    303.73298   -1100.2518    129481.47   -36639.185    3773.5835   -40412.768      197.535   0.96318032 
   18400    298.60154   -951.99811    129261.27   -36757.146    3709.8304   -40466.976    198.26088   0.96482109 
   18500    304.47508   -658.64809    129314.43   -36711.407    3782.8034    -40494.21    199.19683   0.96442451 
   18600    294.50716   -843.09445    129459.73   -36782.252    3658.9618   -40441.213    200.89857   0.96334208 
   18700    296.40017   -1075.1893    129402.15    -36739.18    3682.4806   -40421.661    202.53415   0.96377076 
   18800    302.38316   -830.13211     129381.4   -36704.112    3756.8133   -40460.925    203.98691   0.96392529 
   18900    301.65166   -875.07631    129414.23   -36762.083    3747.7252   -40509.808    205.54034   0.96368076 
   19000    299.78202    -1123.374    129290.91   -36754.186    3724.4967   -40478.682    206.76959   0.96459992 
   19100    292.92807   -1024.8527    129407.75   -36843.328    3639.3431   -40482.671    207.72654   0.96372903 
   19200     307.5961   -1220.6534    129453.07   -36820.508     3821.579   -40642.087    208.97821   0.96339164 
   19300    303.81646   -1213.1231    129127.81   -36775.022    3774.6206   -40549.643    209.13685   0.96581831 
   19400    300.62331   -1100.7345    129022.64   -36791.028    3734.9489   -40525.977    209.91134   0.96660555 
   19500    303.08784   -875.99673    129127.77   -36784.084    3765.5682   -40549.652    211.11849   0.96581861 
   19600    298.45184   -1044.7557    129127.68   -36828.952    3707.9705   -40536.922    212.31014   0.96581929 
   19700    301.46395   -1100.1263    129269.48   -36794.167     3745.393    -40539.56    213.62252   0.96475988 
   19800    295.90415    -824.5884    129225.32   -36836.379    3676.3179   -40512.697    215.28691   0.96508951 
   19900    294.34102   -937.79787    129080.25   -36843.184    3656.8976   -40500.081    216.79634   0.96617414 
   20000    298.72327   -1031.8258    128856.67   -36922.245    3711.3428   -40633.587    217.36021   0.96785062 
   20100    299.09176   -985.40162    128809.32   -36883.797    3715.9209   -40599.718    218.28816   0.96820633 
   20200    300.43845   -1171.1668    128633.96   -36953.529    3732.6522   -40686.181    219.19557   0.96952625 
   20300    295.80891    -914.7275    128557.67   -36999.628    3675.1347   -40674.762    220.09822   0.97010161 
   20400    293.90061   -1045.2937    128941.04   -36998.287    3651.4259   -40649.713    221.97256   0.96721727 
   20500    300.55339   -842.40836    128692.36   -36950.592    3734.0802   -40684.672    222.28988   0.96908632 
   20600    291.04475   -884.07121    128697.53   -36975.182    3615.9447   -40591.127    223.21176   0.96904739 
   20700    297.71411   -829.29857    128817.87   -36877.771     3698.805   -40576.576    224.43497   0.96814207 
   20800    300.14483   -911.48807    129047.45    -36883.52    3729.0043   -40612.524    226.42046   0.96641976 
   20900    292.94681    -1018.307    128935.02    -36911.35     3639.576   -40550.926    227.14818   0.96726245 
   21000    293.83952   -1283.7893    128742.03   -37013.826     3650.667   -40664.493    227.82492   0.96871244 
   21100    289.48616   -990.62932    128391.17   -37044.185    3596.5807   -40640.766    228.80707    0.9713597 
   21200    292.69079   -820.19195    128360.49   -37010.204    3636.3951   -40646.599    230.02126    0.9715918 
   21300    291.51656   -962.83964    128634.39   -37012.368    3621.8064   -40634.175    232.20109   0.96952306 
   21400    287.93084   -816.12318    128824.52   -36958.715    3577.2574   -40535.972    234.50714   0.96809216 
   21500    294.77068   -986.09569    128990.28   -36915.368    3662.2358   -40577.603    235.80193   0.96684805 
   21600    296.51144   -1126.8259    129232.38   -36824.817    3683.8629    -40508.68    236.73423    0.9650368 
   21700     300.9552   -776.21853    129250.48   -36776.864    3739.0724   -40515.936    237.71038   0.96490169 
   21800    299.25028   -1107.6303     129071.2   -36772.674    3717.8904   -40490.565    238.24276   0.96624194 
   21900    303.15145   -1246.1315    128631.77   -36832.916    3766.3585   -40599.274    239.31503   0.96954274 
   22000    293.47969   -1104.9965    128599.11   -36877.342    3646.1965   -40523.539    240.16954   0.96978901 
   22100     301.4021   -946.84055    128685.02   -36780.915    3744.6246    -40525.54    240.86084   0.96914157 
   22200    294.65556   -877.14162    128714.25   -36822.955    3660.8054    -40483.76    242.45934   0.96892146 
   22300    300.77382   -1097.4313    129035.84     -36792.2    3736.8188   -40529.019    243.61451    0.9665067 
   22400    300.66518   -1205.6928    128915.92    -36764.02    3735.4691   -40499.489    244.67989   0.96740574 
   22500    298.44393   -873.84185    128666.49   -36780.285    3707.8723   -40488.157    245.64007   0.96928117 
   22600    299.05177   -788.02042    128690.33   -36719.849     3715.424   -40435.273    247.08997   0.96910158 
   22700    300.72277   -882.84117    128831.39   -36728.946    3736.1846    -40465.13     248.8507   0.96804053 
   22800    304.02999   -1003.6031    128787.39   -36680.828    3777.2735   -40458.102    249.66097   0.96837124 
   22900    301.37312   -1150.4413    128767.48   -36758.473    3744.2646   -40502.738    251.55368   0.96852099 
   23000    298.93834   -1006.1066    128694.49    -36739.24    3714.0148   -40453.255    253.79418   0.96907024 
   23100    294.34287   -1290.1362    128808.64   -36864.678    3656.9206   -40521.598    255.07808   0.96821147 
   23200    299.59899   -935.89843    128679.92   -36795.425    3722.2227   -40517.647    256.05329   0.96917996 
   23300    297.61337   -805.83078     128797.6   -36866.373    3697.5534   -40563.926    257.37541   0.96829444 
   23400    297.31401   -773.26753    129246.41   -36765.578    3693.8341   -40459.412    259.49362   0.96493207 
   23500    298.10685   -1223.0628    129201.69   -36792.503    3703.6844   -40496.187    260.78211   0.96526607 
   23600    295.87522    -889.5933    129406.01   -36780.485    3675.9585   -40456.443    261.51605   0.96374201 
   23700    299.58901   -1092.1026    129138.03   -36865.013    3722.0987   -40587.112    262.94819   0.96574191 
   23800    291.96511   -961.72484    129159.28   -36967.051    3627.3793   -40594.431    263.73286   0.96558299 
   23900    297.23559   -1294.9744    129272.86     -36986.2    3692.8598    -40679.06    264.89241   0.96473463 
   24000    297.75016   -1227.8561    129041.95   -36882.702    3699.2529   -40581.955    266.05173   0.96646091 
   24100     301.8838   -935.96629    128669.63   -36901.018    3750.6093   -40651.627    266.56853   0.96925748 
   24200    292.43994   -945.41056    128680.44   -36987.901    3633.2786    -40621.18    268.07007   0.96917608 
   24300    293.25983   -1158.2218    128432.65   -36939.803    3643.4649   -40583.267    268.69783   0.97104592 
   24400    295.91678   -893.17142    128304.15   -36997.197    3676.4749   -40673.671    269.18521   0.97201848 
   24500     297.5742   -990.58479    128500.76   -36919.511    3697.0667   -40616.578     270.5198   0.97053123 
   24600    298.82294   -881.99746    128467.45   -36902.955    3712.5811   -40615.537    272.00583   0.97078291 
   24700    295.12131   -1064.0323    128636.87   -36934.326     3666.592   -40600.918    273.82568   0.96950435 
   24800    293.93442   -953.36967    128690.03   -36908.216     3651.846   -40560.062    275.54008   0.96910388 
   24900    298.43127   -921.66057    128747.19   -36825.437    3707.7149   -40533.152     276.7442    0.9686736 
   25000    300.98446   -931.90326     128946.9   -36807.375    3739.4359    -40546.81    278.32689    0.9671733 
   25100    313.68903   -1030.3339    128966.78   -36830.232    3897.2776   -40727.509    279.30274   0.96702428 
   25200    300.60116   -1061.5693    128789.79   -36920.941    3734.6737   -40655.615    280.67778   0.96835321 
   25300    298.70275   -1149.4187    128799.82   -36930.613    3711.0878   -40641.701    281.96373   0.96827778 
   25400    299.65907   -924.60823    128803.46   -36911.548    3722.9692   -40634.517    283.87183   0.96825044 
   25500    303.38082   -934.92806    128842.64   -36834.011    3769.2082   -40603.219    285.16433   0.96795597 
   25600    296.49499   -1011.0166    128486.59    -36961.82    3683.6585   -40645.479    285.73181    0.9706383 
   25700    295.81398   -800.23245    128605.39   -36969.688    3675.1977   -40644.886    287.23943   0.96974168 
   25800    300.29697   -1198.5787     128645.4   -36949.733    3730.8944   -40680.627    288.69804   0.96944007 
   25900    303.44082   -964.04942    129183.25   -36869.602    3769.9537   -40639.555    290.96727   0.96540384 
   26000    303.22883   -1186.3327    129289.85   -36764.015    3767.3199   -40531.335    292.72937   0.96460784 
   26100    297.93595   -1059.0326    129115.68   -36857.877    3701.5611   -40559.438    293.99206   0.96590907 
   26200      296.477   -770.00473     129466.3   -36824.151    3683.4351   -40507.586    296.36983   0.96329316 
   26300     297.1658   -1219.2163    129599.92   -36784.894    3691.9927   -40476.887    297.82106   0.96230003 
   26400    299.11644   -1129.3805    129627.56   -36782.677    3716.2276   -40498.904    298.75482   0.96209483 
   26500    301.71257   -1101.1961    129466.14   -36864.923    3748.4818   -40613.405    300.14813   0.96329436 
   26600    292.46291   -944.47515    129019.14   -36943.607     3633.564   -40577.171    301.05473   0.96663179 
   26700    299.34749   -966.85003    128825.76   -36946.918    3719.0981   -40666.016    301.67517   0.96808284 
   26800     297.6054   -828.27217    129105.74   -36858.871    3697.4543   -40556.325    303.55729   0.96598344 
   26900    298.72568   -1211.7844    129087.07   -36865.279    3711.3728   -40576.652    304.70802   0.96612315 
   27000     297.7076   -1031.1855    129340.29   -36927.822    3698.7241   -40626.546    306.89779   0.96423165 
   27100    297.42009   -799.54987    129445.42   -36929.084    3695.1521   -40624.236    307.91711   0.96344853 
   27200    294.04759   -1024.2438    129060.84    -36950.48    3653.2521   -40603.732    309.04793    0.9663195 
   27300    293.21707   -1179.0635    128942.68   -36990.174    3642.9336   -40633.108    309.64093   0.96720502 
   27400      299.623   -980.63248    128686.78   -36915.565     3722.521   -40638.086    310.76592   0.96912829 
   27500    300.02355   -1248.0858    128574.54   -36850.963    3727.4975    -40578.46    311.87958   0.96997431 
   27600    300.36825    -1013.778    128930.84   -36874.262    3731.7801   -40606.042    313.20879   0.96729379 
   27700     299.5968   -1045.7958    129118.52   -36913.643    3722.1956   -40635.839    314.73047   0.96588777 
   27800    301.32345   -1131.3396    129239.19   -36812.873    3743.6475    -40556.52    316.26908   0.96498596 
   27900    302.12972   -1206.2807    129287.35   -36822.874    3753.6646   -40576.539    317.02103   0.96462647 
   28000    299.02608   -963.36494    129291.26   -36858.868    3715.1049   -40573.973    319.02017   0.96459733 
   28100    297.29131    -1215.576    129484.51   -36813.686     3693.552   -40507.238    321.17974   0.96315771 
   28200    296.42392   -962.87401    129690.97   -36877.716    3682.7756   -40560.492    321.86672    0.9616244 
   28300    293.67335   -835.77072    129700.46   -36845.911    3648.6024   -40494.513    323.67465   0.96155408 
   28400    294.38914   -1142.9278    129678.83    -36876.55    3657.4955   -40534.045    324.63759   0.96171446 
   28500    298.87796   -1277.8587    129443.64   -36917.701    3713.2646   -40630.966    325.63833   0.96346181 
   28600    297.70306   -974.35034    129305.84   -36862.539    3698.6677   -40561.206    326.86183   0.96448857 
   28700    292.79602    -932.3736    129509.26   -36871.331    3637.7025   -40509.033    327.81821   0.96297361 
   28800    296.20856    -1105.663    129468.22   -36819.824    3680.0999   -40499.924    329.31181   0.96327886 
   28900    303.16039   -1385.8605       129529   -36767.829    3766.4697   -40534.299    330.49682   0.96282687 
   29000    296.84243   -931.29672    129539.93    -36869.24    3687.9752   -40557.215    331.95212   0.96274562 
   29100    297.12746   -1101.1807    129159.58   -36818.493    3691.5163    -40510.01    332.28393   0.96558076 
   29200    299.29758   -1160.8136    129073.07   -36788.589     3718.478   -40507.067    333.67252   0.96622792 
   29300    299.54763   -810.05815    129323.41   -36853.564    3721.5847   -40575.149    336.15327   0.96435752 
   29400    298.79828   -1188.8238    129247.76   -36904.084    3712.2746   -40616.358    337.01096   0.96492196 
   29500    293.69018   -965.10128     129125.3    -36946.58    3648.8115   -40595.392    338.41673   0.96583709 
   29600    300.26908   -906.24399     129432.9    -36826.96     3730.548   -40557.508    340.15746   0.96354174 
   29700    291.22838   -850.43154    129191.05   -36882.617    3618.2261   -40500.843    340.80273   0.96534555 
   29800    298.86371   -818.78929    129139.68   -36871.279    3713.0876   -40584.367    342.10616   0.96572956 
   29900    297.38256     -1006.97    128991.71   -36909.632    3694.6858   -40604.318     343.5387   0.96683733 
   30000    300.09302   -1034.6557    128794.65   -36900.479    3728.3606    -40628.84    344.66186   0.96831662 
   30100    298.09734   -972.70307    128674.92   -36907.839    3703.5662   -40611.405    345.30537   0.96921768 
   30200    291.96885   -948.46706     128697.3    -36923.02    3627.4258   -40550.446    346.80363   0.96904913 
   30300    302.06239   -1040.2294    128723.85   -36860.148    3752.8281   -40612.976    348.42599    0.9688492 
   30400    301.61699   -693.45501    128921.88   -36826.578    3747.2944   -40573.872    350.17184   0.96736104 
   30500    296.57753   -856.22493    128963.14   -36844.513     3684.684   -40529.197    351.32058   0.96705156 
   30600    299.48724    -1036.635    128999.23    -36846.54    3720.8343   -40567.374    352.05948   0.96678098 
   30700    300.85775   -1206.0832    129130.23   -36854.071    3737.8616   -40591.932    352.82452   0.96580018 
   30800    299.50327   -897.17147    129285.16   -36767.619    3721.0335   -40488.652    354.34351   0.96464285 
   30900    295.05643   -979.97707    129214.15   -36910.811    3665.7859   -40576.596    355.01007   0.96517292 
   31000    294.57296   -1086.0186    128981.57    -36975.27    3659.7793   -40635.049     355.7276   0.96691334 
   31100    296.10973    -1030.358    129216.57    -36956.93    3678.8721   -40635.802    356.82493   0.96515487 
   31200    289.13903   -887.05779    128902.49   -36987.081     3592.268   -40579.349    357.51084   0.96750656 
   31300    304.02862    -1058.692     129071.4   -36917.782    3777.2566   -40695.038    359.81755   0.96624042 
   31400    294.19914   -1042.0199    128917.66   -36857.253    3655.1349   -40512.388    360.40998   0.96739272 
   31500    297.08323   -945.64237    128784.54    -36904.27    3690.9669   -40595.237     360.9797   0.96839265 
   31600    296.55694   -1181.6946    128782.28   -36808.218    3684.4282   -40492.647    361.80568   0.96840967 
   31700    299.31981   -1078.0385    128641.96   -36866.527    3718.7542   -40585.281    362.84546   0.96946601 
   31800    299.95257   -820.17004     128667.8   -36806.515    3726.6156    -40533.13    364.25717   0.96927126 
   31900    303.17794   -1010.7377    128856.66   -36764.831    3766.6876   -40531.518     366.1773   0.96785066 
   32000    305.38772   -664.35294    129411.74   -36759.271     3794.142   -40553.413    368.37968   0.96369933 
   32100    301.04948   -878.61143    129535.28   -36781.356    3740.2436     -40521.6     369.7427   0.96278023 
   32200    297.09296   -860.83946    129970.99   -36772.476    3691.0878   -40463.563    372.29343   0.95955259 
   32300    300.46769   -1179.8947    130111.44    -36707.59    3733.0154   -40440.605    374.02297   0.95851685 
   32400    292.65916   -1378.0461    130070.42   -36812.475    3636.0022   -40448.477    375.67305   0.95881908 
   32500     300.6134   -996.58325    129427.01   -36813.021    3734.8258   -40547.847    375.47539   0.96358558 
   32600    299.50783   -1353.7173     129172.6   -36773.021    3721.0902   -40494.111    376.28073   0.96548343 
   32700    297.76026   -1121.7396    128893.73   -36862.816    3699.3783   -40562.195    376.30601   0.96757232 
   32800    292.17468   -1175.3747    128752.79   -36925.799     3629.983   -40555.782    377.47865   0.96863147 
   32900    296.78084    -1043.263    128788.84   -36945.759      3687.21   -40632.968    378.27405   0.96836031 
   33000    289.34243   -863.48203    128656.88   -37025.561     3594.795   -40620.356    379.10244   0.96935355 
   33100      297.778   -1165.5996    128866.46   -36928.404    3699.5987   -40628.003    380.70937   0.96777702 
   33200    294.15613   -871.86124    128864.98   -36971.424    3654.6006   -40626.025    381.83411   0.96778819 
   33300    294.63739   -1225.5341    129030.95   -36845.091    3660.5798   -40505.671    383.54912   0.96654333 
   33400    293.64545   -799.30118    129041.57   -36890.211    3648.2558   -40538.467    385.51274   0.96646375 
   33500    296.57633   -979.06709    129377.89   -36844.155    3684.6692   -40528.824    387.94029   0.96395144 
   33600    297.29693   -1288.3615    129290.01   -36818.597    3693.6219   -40512.219    388.95636   0.96460662 
   33700    300.79434   -882.63762    129073.67   -36806.697    3737.0737    -40543.77    390.03308   0.96622344 
   33800    297.84798   -922.02571    128880.62   -36821.371    3700.4681   -40521.839    391.04411   0.96767072 
   33900    294.21257   -925.05954    128690.03    -36831.72    3655.3018   -40487.022    392.67295   0.96910385 
   34000    302.82255   -1066.1355    128765.49   -36784.731    3762.2723   -40547.004    394.93902   0.96853596 
   34100    299.70591   -672.16428    128859.82   -36833.257    3723.5511   -40556.809    396.20151   0.96782696 
   34200    305.76187   -1115.5422    129025.51    -36832.65    3798.7905   -40631.441    396.73935   0.96658411 
   34300    293.10231   -820.82018    129104.17   -36886.702    3641.5079    -40528.21     397.8299   0.96599519 
   34400    297.56466    -899.0348    129516.26   -36781.172    3696.9482    -40478.12    399.43318   0.96292156 
   34500    298.64944   -1083.2441    129420.13   -36798.943    3710.4255   -40509.368    400.02594   0.96363682 
   34600    302.36954   -1070.1105    129574.91   -36788.766    3756.6441    -40545.41     401.4563   0.96248573 
   34700    294.33318    -710.0569    129175.15   -36908.362    3656.8002   -40565.162    401.46629   0.96546437 
   34800    297.94948   -863.06929    129274.56   -36915.652    3701.7291   -40617.381     402.6992   0.96472195 
   34900    296.38609   -1078.9433    128949.46   -36932.575    3682.3056    -40614.88    402.75899   0.96715417 
   35000     291.5658   -953.33793    129097.75   -37016.156    3622.4182   -40638.574     404.1071   0.96604323 
   35100    295.39056   -793.14073    128977.14   -36951.061    3669.9371   -40620.998    405.35173   0.96694656 
   35200    295.29045   -892.72379    128993.87   -36959.401    3668.6933   -40628.095    406.37356   0.96682118 
   35300    294.99791   -1072.9411    128906.31   -36940.253    3665.0588   -40605.312    407.94682   0.96747786 
   35400    298.25347   -1053.4101    129377.48   -36945.196     3705.506   -40650.702    410.32892   0.96395451 
   35500     298.6091   -976.51099    128892.31    -36835.38    3709.9244   -40545.305    409.91783   0.96758298 
   35600    299.00217   -1013.2499    129163.96   -36862.301    3714.8079   -40577.109    412.49148   0.96554799 
   35700    300.79816   -944.51066    129400.97   -36807.658    3737.1212   -40544.779    414.66294   0.96377951 
   35800    292.12631   -1246.5775    129235.18    -36866.56     3629.382   -40495.942    415.53923    0.9650159 
   35900     306.2204   -899.59798       128977   -36804.607    3804.4873   -40609.094    416.25216   0.96694765 
   36000    298.47206   -1024.7982    128978.21   -36764.353    3708.2218   -40472.575    417.05407   0.96693858 
   36100     293.3086   -721.16262    129169.32   -36785.029    3644.0709     -40429.1    419.31647   0.96550795 
   36200    295.60233   -1130.0652     128968.1   -36820.822    3672.5681    -40493.39    419.80843   0.96701435 
   36300    296.61186   -959.49068    128588.98   -36898.245    3685.1106   -40583.355     420.9667   0.96986537 
   36400     297.6664   -1168.3051    128834.06   -36801.753    3698.2122   -40499.965     422.4889   0.96802044 
   36500    298.61102   -908.37883    128839.37   -36752.884    3709.9481   -40462.832    422.97025   0.96798055 
   36600    291.96525    -906.3365    128913.63   -36947.327    3627.3811   -40574.708    424.87835   0.96742294 
   36700      300.178   -1191.5635    128671.03   -36863.917    3729.4164   -40593.334    425.57509   0.96924694 
   36800    296.73493   -863.98981    129048.22   -36854.241    3686.6396   -40540.881     427.1134   0.96641395 
   36900    300.85645   -854.20079    129050.31   -36877.703    3737.8455   -40615.548    428.62925   0.96639834 
   37000    305.74207   -973.08388     129162.4   -36798.226    3798.5445    -40596.77    430.42924   0.96555964 
   37100    300.98997   -836.61893    129061.33   -36799.866    3739.5042    -40539.37    431.61942   0.96631582 
   37200    301.24211   -1175.7689    128810.18   -36879.809    3742.6369   -40622.446    432.50408   0.96819989 
   37300    295.34692   -1123.5335    128824.33   -36884.373    3669.3949   -40553.768    433.02287   0.96809353 
   37400    293.11969   -785.84294    128779.86       -36945    3641.7239   -40586.723    433.91677   0.96842782 
   37500    294.34653   -1099.2001    128861.48   -36933.672    3656.9661   -40590.638    434.28701   0.96781443 
   37600    298.41422   -965.70549    128836.18   -36869.243    3707.5031   -40576.746    435.60679    0.9680045 
   37700    297.31273   -1111.1833    128694.24   -36900.748    3693.8182   -40594.566    436.92715   0.96907216 
   37800    296.17147   -1098.6018    128918.17   -37011.913    3679.6392   -40691.552    438.80495   0.96738885 
   37900      297.356   -753.87508    129212.84   -36952.408    3694.3558   -40646.764     440.7913   0.96518278 
   38000    293.94347   -883.31035    129076.71    -36924.59    3651.9584   -40576.548    441.60216   0.96620063 
   38100    296.74882   -840.17185    129366.41   -36843.614    3686.8122   -40530.426     443.4163   0.96403697 
   38200    293.29682   -948.79128    129363.25    -36836.01    3643.9244   -40479.935    444.27009   0.96406055 
   38300    297.59146   -1169.1732    129190.85   -36782.013    3697.2811   -40479.294    444.57497   0.96534702 
   38400    293.96178   -909.13226    129190.03   -36843.528     3652.186   -40495.714    446.23355   0.96535315 
   38500    297.79013   -967.01355    129182.28    -36859.69    3699.7495    -40559.44    447.69807   0.96541111 
   38600    301.32482    -1076.273    129241.98   -36814.213    3743.6645   -40557.877    448.96573   0.96496511 
   38700    301.29329   -1155.6469    128878.01   -36854.095    3743.2728   -40597.368    449.03664   0.96769036 
   38800    294.96888   -1239.0993    128812.04   -36922.633    3664.6982   -40587.331      449.294   0.96818592 
   38900    291.08302   -1046.1099    128806.75   -36847.436    3616.4201   -40463.856    450.28236   0.96822569 
   39000    298.82869   -955.29968     128981.8   -36874.379    3712.6525   -40587.032    451.31151   0.96691164 
   39100    298.51376   -1014.2828     128833.6   -36844.108    3708.7399   -40552.848    453.32509   0.96802393 
   39200    300.27246     -728.777    129044.42   -36892.548    3730.5899   -40623.138     454.9118    0.9664424 
   39300    297.09958   -987.24296    129025.39   -36883.786      3691.17   -40574.956    455.75149   0.96658498 
   39400    295.34734   -1081.1592    128740.07   -36852.128    3669.4001   -40521.528    456.21733   0.96872715 
   39500    300.70096   -1283.9465    128956.78    -36821.85    3735.9137   -40557.764    457.97768   0.96709922 
   39600     294.8501   -1084.2066    128888.04   -36864.337    3663.2225    -40527.56    459.40266     0.967615 
   39700    298.56456   -779.15892    129346.78    -36769.01    3709.3709   -40478.381    461.82649   0.96418329 
   39800    294.91034   -1088.5155    129621.02   -36875.044    3663.9709   -40539.015    463.57958   0.96214337 
   39900    291.79922   -909.53473    129537.13   -36943.039    3625.3182   -40568.357    464.91544   0.96276648 
   40000    289.56256    -1358.991    129471.84   -36965.161      3597.53   -40562.691    466.49595   0.96325197 
   40100    297.86186   -911.46397    129381.81   -36876.272    3700.6406   -40576.913     467.0567   0.96392225 
   40200    296.97641    -777.6136    129578.04   -36881.575    3689.6398   -40571.215    468.11491   0.96246248 
   40300    299.87293   -1175.4255    129298.83   -36884.407    3725.6262   -40610.034    469.32724   0.96454084 
   40400    306.96558    -1089.519    129368.33   -36753.854    3813.7453   -40567.599    471.05719   0.96402265 
   40500    299.52025   -921.57552    129626.23   -36749.287    3721.2444   -40470.531    473.72138   0.96210471 
   40600    298.10899   -1224.2301    129568.88   -36809.512    3703.7109   -40513.223    475.09277   0.96253054 
   40700    298.23171   -1143.5025    129641.25   -36866.295    3705.2356   -40571.531      477.122   0.96199319 
   40800    297.70227   -1052.1347    129433.04   -36911.963    3698.6578   -40610.621    478.08181   0.96354071 
   40900    294.75615   -835.35966    129571.94   -36926.243    3662.0553   -40588.298     478.9895   0.96250777 
   41000     294.0453   -1292.0394     129526.4   -36819.612    3653.2236   -40472.836    479.38251   0.96284622 
   41100    297.36641   -760.62238    129438.07   -36796.503    3694.4852   -40490.988    480.36376   0.96350328 
   41200     296.6059   -874.78696    129946.12   -36807.994    3685.0366    -40493.03    482.34566   0.95973629 
   41300    293.05522   -1006.1188    129839.45   -37040.434    3640.9228   -40681.357    482.65135   0.96052474 
   41400    292.74621   -1099.9151    129822.15   -36974.166    3637.0837   -40611.249    483.93395    0.9606527 
   41500    298.30465   -813.47801    129718.15   -36991.865    3706.1418   -40698.007    484.51012   0.96142295 
   41600    293.31719   -872.95127    129461.23   -36937.254    3644.1775   -40581.432    484.58789   0.96333091 
   41700    295.74068   -1104.1743    129436.11   -36896.062     3674.287   -40570.349    485.65215   0.96351786 
   41800    297.89222   -1067.8237    129408.95   -36903.263    3701.0178   -40604.281    487.85172   0.96372007 
   41900    297.25948   -1130.0707    129325.38   -36879.432    3693.1566   -40572.588    488.42215   0.96434285 
   42000    296.33913   -797.96797    129301.85   -36847.144    3681.7222   -40528.866    490.41647    0.9645183 
   42100    293.26622   -1103.3917    129363.96   -36784.956    3643.5443   -40428.501    492.06664   0.96405527 
   42200    301.05156   -1002.5179    128965.65   -36701.485    3740.2695   -40441.754    491.22888   0.96703269 
   42300    305.74844   -1168.3692    129101.47    -36716.28    3798.6235   -40514.903    492.90339   0.96601539 
   42400    301.94895   -621.55037    129166.62   -36754.544    3751.4187   -40505.962    494.29974   0.96552814 
   42500    298.75825   -1103.8886    129060.23    -36767.97    3711.7773   -40479.747    494.80857   0.96632405 
   42600    296.16179   -1096.4858     129093.8     -36737.1    3679.5188   -40416.619    495.72776   0.96607278 
   42700    298.62383   -1137.7772    128784.45   -36772.199    3710.1073   -40482.306     496.2477   0.96839336 
   42800    301.68556   -1045.5463    128575.73   -36757.404    3748.1463   -40505.551    497.26966   0.96996533 
   42900    294.38799   -959.63984    128882.13   -36838.404    3657.4811   -40495.885    499.06458    0.9676594 
   43000    298.97258   -1015.4239    128671.33   -36884.568    3714.4402   -40599.009     500.5401   0.96924472 
   43100    300.52792   -1101.4001    128583.56   -36870.307    3733.7638   -40604.071    501.97145   0.96990627 
   43200     298.1135   -768.83598    128629.61    -36790.47     3703.767   -40494.237    503.28559   0.96955902 
   43300    301.15131   -1117.3839    128548.27    -36801.45    3741.5087   -40542.959    504.54556   0.97017255 
   43400    300.20978   -782.40841    128644.73   -36757.963    3729.8112   -40487.774    505.33913   0.96944514 
   43500    303.07077   -812.00405    128828.62   -36752.708    3765.3562   -40518.064    506.81432   0.96806131 
   43600    302.79492   -916.67611    128530.26   -36666.247    3761.9291   -40428.176    507.43243    0.9703085 
   43700    296.34199   -958.96495       128696   -36697.866    3681.7577   -40379.624    508.65876   0.96905886 
   43800     303.5101   -1241.4093    129329.54    -36680.95    3770.8144   -40451.764    511.05296   0.96431184 
   43900    297.81015   -869.87836    129309.35   -36736.646    3699.9981   -40436.644    512.53756   0.96446235 
   44000    300.94341   -1108.2138    129053.88   -36759.354    3738.9259    -40498.28    513.04717    0.9663716 
   44100    296.94154   -1293.8539     128917.4    -36798.73    3689.2065   -40487.936    513.61791   0.96739466 
   44200    293.22427   -817.09086    128757.53   -36839.703    3643.0231   -40482.726    514.21495   0.96859579 
   44300    295.81718   -943.95362    128882.15   -36824.894    3675.2374   -40500.131    517.16683   0.96765926 
   44400    299.13005   -1000.0622    128818.72   -36801.811    3716.3966   -40518.208    518.40573   0.96813569 
   44500    296.57369   -1066.9222    128543.21   -36835.054    3684.6363    -40519.69     519.2163   0.97021077 
   44600    296.85363    -873.8597     128449.9   -36915.141    3688.1143   -40603.256    521.08316   0.97091552 
   44700    297.07217   -1053.7365    128708.51   -36889.515    3690.8295   -40580.344    523.37919   0.96896467 
   44800    297.80827   -668.35512     129046.6    -36861.01    3699.9748   -40560.985    526.20995   0.96642611 
   44900    300.25552   -909.40854     129471.5   -36772.346    3730.3795   -40502.725    528.56328   0.96325446 
   45000    298.83242   -1308.2246     129607.1   -36758.537    3712.6988   -40471.236    529.78605   0.96224666 
   45100     304.3652   -1006.0613    129419.13   -36690.648    3781.4382   -40472.087    530.63294   0.96364424 
   45200    292.84019   -861.42503    129335.66   -36793.623    3638.2513   -40431.874    531.16392   0.96426621 
   45300    297.77032   -1265.3614    129317.09   -36791.852    3699.5033   -40491.355    531.82489   0.96440462 
   45400    301.02771   -832.01475    129355.54   -36803.015    3739.9732   -40542.988    533.13242   0.96411799 
   45500    304.67825   -977.45887    129515.96   -36821.114    3785.3276   -40606.441    533.90639   0.96292383 
   45600    297.40887   -1035.9611     129557.5   -36825.577    3695.0126    -40520.59    534.34954   0.96261511 
   45700    301.88409   -1174.2717    129613.66   -36822.921    3750.6128   -40573.533    535.55023   0.96219799 
   45800     299.8768   -741.72458    129247.41   -36812.354    3725.6742   -40538.029    535.68381    0.9649246 
   45900     302.7421   -767.35746    129266.53   -36725.073    3761.2727   -40486.346    536.26263    0.9647819 
   46000    303.00329   -1159.6988    129197.32   -36708.789    3764.5178   -40473.307    537.54078   0.96529872 
   46100    310.35647   -1282.8275    129173.29   -36644.095    3855.8738   -40499.969    537.58826   0.96547823 
   46200    308.84685   -939.14422    129121.52   -36622.863    3837.1183   -40459.981    538.58323   0.96586539 
   46300    302.52649   -867.07772     129053.2   -36638.709    3758.5941   -40397.303    540.14903   0.96637667 
   46400    304.70349   -835.90259    128834.47   -36734.856    3785.6411   -40520.497    540.20063   0.96801738 
   46500    303.13818   -943.00123    129154.64   -36733.322    3766.1937   -40499.516    542.52548   0.96561767 
   46600    301.13043   -862.26684    129428.02   -36724.751    3741.2494   -40466.001    544.22495   0.96357811 
   46700     298.9788   -941.93905    129221.64   -36808.706    3714.5175   -40523.223    544.74375     0.965117 
   46800    296.46738   -807.77771    129201.54   -36884.058    3683.3156   -40567.373    546.14083   0.96526716 
   46900    301.95924   -832.14345    129222.61   -36812.554    3751.5465   -40564.101    546.99801   0.96510973 
   47000    299.82027     -924.782    129144.14   -36762.252    3724.9719   -40487.224    548.59926   0.96569622 
   47100    299.75754   -799.79454    129299.75   -36755.297    3724.1925   -40479.489    550.46173   0.96453399 
   47200    293.87728   -1052.6812    129303.09   -36814.725    3651.1361   -40465.861    551.28896   0.96450904 
   47300    290.65093   -786.76671    128970.32   -36811.476    3611.0518   -40422.527    551.37034   0.96699769 
   47400    299.41215   -753.69418    128903.46   -36744.184    3719.9014   -40464.085    552.29803   0.96749929 
   47500    301.82178   -951.30478    128949.19   -36665.037    3749.8387   -40414.876    554.02206   0.96715617 
   47600    308.31151   -950.14629    129157.46   -36601.856    3830.4672   -40432.324    556.96028    0.9655966 
   47700    306.88313   -1105.9793    129572.74   -36652.991     3812.721   -40465.712    559.97751   0.96250189 
   47800    305.51478   -902.27253    129363.84    -36701.56    3795.7207    -40497.28    559.28705   0.96405617 
   47900    293.04591   -1199.9049    129361.84   -36826.303    3640.8072    -40467.11    560.71716     0.964071 
   48000    296.41116    -966.4588    128734.44   -36876.407    3682.6171   -40559.024    560.05108   0.96876955 
   48100    294.88565   -1000.5982    128806.58   -36819.374    3663.6642   -40483.038    562.47816   0.96822696 
   48200    297.34376   -1081.0577    128964.22   -36864.434    3694.2037   -40558.637    563.35012   0.96704343 
   48300    296.17055   -1100.2656    129183.16   -36835.668    3679.6278   -40515.296    565.45232   0.96540448 
   48400    299.65116    -1136.613     128848.1   -36742.987    3722.8709   -40465.858    566.57549   0.96791498 
   48500    297.06087   -890.16412    128898.36   -36841.743    3690.6891   -40532.432    567.61282   0.96753757 
   48600    293.12623   -1266.1973    129020.57   -36824.414    3641.8051   -40466.219    569.18131    0.9666211 
   48700    300.22812   -1074.6138    128811.29   -36807.104     3730.039   -40537.143    571.14666   0.96819156 
   48800    299.63623   -856.43349    129193.41   -36841.858    3722.6854   -40564.543    573.59488   0.96532789 
   48900    301.19952   -1111.2867    129295.04   -36804.152    3742.1078   -40546.259    575.40594    0.9645691 
   49000    298.82628   -1070.0897     129148.4    -36858.43    3712.6226   -40571.052      575.565   0.96566433 
   49100    299.26484   -897.40402    129406.41   -36865.177    3718.0713   -40583.249    577.54261   0.96373901 
   49200    296.64376   -803.77695    129445.01   -36883.074    3685.5069    -40568.58    579.07166   0.96345159 
   49300     297.4989    -671.0328    129320.63   -36806.388    3696.1311   -40502.519      579.385   0.96437823 
   49400    302.32311    -863.1536    129538.59   -36744.614    3756.0673   -40500.681    581.66967   0.96275562 
   49500    300.38845   -1152.9801    129363.19   -36790.372     3732.031   -40522.403    581.25258   0.96406094 
   49600    299.99679   -1116.6508    129443.81    -36758.38    3727.1651   -40485.545     581.9928   0.96346053 
   49700    297.22139   -1154.0406    129417.72   -36776.698    3692.6834   -40469.381     582.7678   0.96365475 
   49800    298.52265   -1030.7792    129209.79   -36850.221    3708.8502   -40559.071    582.99283   0.96520556 
   49900    300.75603   -1064.7453    128865.72   -36726.475    3736.5979   -40463.073    582.58344    0.9677826 
   50000    297.53788    -718.9142    129300.74   -36722.457    3696.6155   -40419.072    585.29128   0.96452658 
   50100    301.52371   -995.87035    129521.95   -36739.338    3746.1355   -40485.473     586.5691   0.96287926 
   50200    302.03646   -967.87508    129677.92   -36795.743    3752.5059   -40548.249    588.05888   0.96172121 
   50300    298.30554   -1060.2047    129351.48    -36781.01    3706.1529   -40487.163    588.25113   0.96414829 
   50400    295.07443   -965.41164    129284.92   -36816.234    3666.0096   -40482.243    588.22775   0.96464464 
   50500    301.97464   -925.52406    129309.94   -36878.186    3751.7378   -40629.923    589.41323   0.96445794 
   50600     295.6359   -982.23696    129316.86   -36912.504    3672.9852   -40585.489    590.31144   0.96440637 
   50700    294.08982   -1045.9917    129217.67   -36919.291    3653.7767   -40573.068     590.3935   0.96514669 
   50800    294.53967   -1102.6544    128886.71   -36900.556    3659.3657   -40559.922     590.2953     0.967625 
   50900    298.52561   -1168.4656    128880.72   -36803.833     3708.887    -40512.72    591.14531   0.96766996 
   51000    298.00472   -1014.0997    128660.46    -36821.63    3702.4155   -40524.046     591.2622   0.96932657 
   51100    296.70437   -875.18144    128610.98   -36875.908      3686.26   -40562.168     592.6519    0.9696995 
   51200    300.38698   -1030.7247    128752.55   -36831.491    3732.0128   -40563.504    594.34998   0.96863324 
   51300    295.20942   -945.09304    128928.53   -36937.133    3667.6866   -40604.819    597.12262   0.96731117 
   51400    292.98267   -878.68802    128826.14   -36968.201    3640.0215   -40608.223     597.8133   0.96807994 
   51500     297.4788   -946.26378    128977.13   -36973.594    3695.8814   -40669.475     599.7412   0.96694666 
   51600    296.09801   -833.25649    128858.55   -36856.434    3678.7265   -40535.161    600.91352   0.96783649 
   51700    300.25268   -654.69124    128972.13   -36837.258    3730.3442   -40567.602    603.02798   0.96698413 
   51800    295.63551   -966.34852    128888.21   -36895.658    3672.9804   -40568.638    603.80029   0.96761376 
   51900     290.0012   -988.60999    128429.91   -36998.866    3602.9797   -40601.846    602.67419   0.97106663 
   52000    293.62437    -1283.299    128149.58     -37019.9     3647.994   -40667.894    603.43588   0.97319092 
   52100    296.37663   -1140.9105    128016.38   -36938.194    3682.1881   -40620.383    603.87757   0.97420345 
   52200    295.68478   -974.45083    127983.97   -36982.102    3673.5926   -40655.694    604.82163   0.97445019 
   52300    293.13576    -1194.669    128191.97   -36975.294    3641.9235   -40617.217    607.03197   0.97286904 
   52400    297.49955   -1067.5884    128213.89   -36905.906    3696.1393   -40602.045     608.2445   0.97270272 
   52500    296.07948   -913.55553    128326.42   -36863.009    3678.4963   -40541.506    610.35249   0.97184981 
   52600    296.49983   -827.15143    128615.83   -36880.106    3683.7187   -40563.825    612.47507   0.96966291 
   52700     298.3366   -863.27509    128619.12   -36902.859    3706.5388   -40609.397    613.02524    0.9696381 
   52800     300.0204   -1138.3722    128837.34   -36877.466    3727.4583   -40604.925    614.85516   0.96799583 
   52900    300.43564   -1131.6744     128805.5   -36863.942    3732.6173   -40596.559    615.17765   0.96823511 
   53000    293.94553   -1108.4325    128955.41    -36825.75    3651.9841   -40477.734    616.61543   0.96710953 
   53100    296.80234   -1064.7206    129003.27   -36869.405    3687.4771   -40556.882    618.03058   0.96675069 
   53200      297.468   -913.51408    129168.21   -36872.951    3695.7472   -40568.698    619.46093    0.9655162 
   53300    296.66005   -1258.5255    129301.75   -36862.614    3685.7093   -40548.324    621.16214   0.96451906 
   53400    292.86877   -1082.5289    129335.87   -36946.851    3638.6063   -40585.457    622.10945   0.96426465 
   53500    295.71532   -833.22032    129189.29   -36970.512     3673.972   -40644.484    621.81836   0.96535866 
   53600    291.86091   -1065.6611    129338.42   -36964.698    3626.0847   -40590.783    623.71288   0.96424563 
   53700    291.40179   -1105.8962    129455.69   -36997.754    3620.3806   -40618.135    624.62429   0.96337215 
   53800    299.60051   -946.62596    129479.53   -36827.877    3722.2416   -40550.118    625.18711   0.96319475 
   53900     293.2086   -1080.4005    129466.69   -36867.884    3642.8284   -40510.713    626.33489   0.96329025 
   54000    302.47096   -844.68982    129228.47    -36859.13    3757.9041   -40617.034    626.41825   0.96506604 
   54100    298.25815   -957.67848    129618.81   -36874.843    3705.5641   -40580.407    629.31913   0.96215977 
   54200    297.28791   -1270.9995    129541.84     -36846.1    3693.5099    -40539.61    630.71256   0.96273144 
   54300    296.02756   -999.01464     129107.2   -36829.076    3677.8512   -40506.927    629.89635   0.96597246 
   54400     305.0434   -1171.1519    129293.46   -36885.374    3789.8641   -40675.238    631.74464   0.96458093 
   54500     294.1555   -765.77893    129252.62   -36886.208    3654.5928   -40540.801    632.82657   0.96488567 
   54600    299.90891   -1072.6399    129440.11   -36744.973    3726.0732   -40471.047    635.48087   0.96348807 
   54700    305.13719   -1034.3296    129252.12   -36778.456    3791.0294   -40569.485    635.73618   0.96488945 
   54800    299.74233   -1238.4849     129054.6   -36873.624    3724.0036   -40597.627     636.2529   0.96636618 
   54900    297.86947   -1025.4039    129295.05   -36935.724    3700.7351   -40636.459    637.31566   0.96456906 
   55000    288.95246   -1154.7432    129281.86   -36997.547      3589.95   -40587.497    638.17644   0.96466744 
   55100    296.43982   -877.82906     129355.5   -36927.844    3682.9732   -40610.817    639.86541    0.9641183 
   55200    297.79979   -794.42752    129531.76   -36925.385    3699.8695   -40625.254     641.9944   0.96280635 
   55300    292.97566   -1006.5523    129600.48   -36855.836    3639.9344    -40495.77    642.75101   0.96229584 
   55400    300.69438   -1282.1772    129213.22   -36852.313    3735.8319   -40588.145    641.00451   0.96517994 
   55500    299.50224   -1098.2204    129111.68   -36797.127    3721.0207   -40518.147    641.38752   0.96593894 
   55600     291.7744   -1006.6487    129229.94   -36872.008    3625.0099   -40497.018    643.20573   0.96505504 
   55700    297.83015   -943.84901    129191.43   -36863.981    3700.2467   -40564.228    643.51479    0.9653427 
   55800    303.46435   -915.57719    129266.28   -36882.457    3770.2461   -40652.703    644.68299   0.96478376 
   55900    296.60209   -725.64367    129343.57   -36840.688    3684.9893   -40525.677    646.24349   0.96420722 
   56000    297.15875   -1040.2546    129267.76   -36820.237    3691.9052   -40512.142    646.67066   0.96477268 
   56100    299.82744   -676.90228    129061.84   -36754.485     3725.061   -40479.546    648.13397     0.966312 
   56200    303.98763   -912.51401    129461.53   -36731.995    3776.7472   -40508.743    650.12671   0.96332866 
   56300    296.77933   -1113.5513    129408.52   -36754.335    3687.1913   -40441.527     651.9986   0.96372325 
   56400     300.6878   -1047.9649    129739.28   -36714.494    3735.7502   -40450.244    654.45825   0.96126634 
   56500    292.71007   -928.51588    129681.31    -36823.35    3636.6346   -40459.985    655.54241   0.96169605 
   56600     295.4811   -1463.2925    129150.29   -36866.101     3671.062   -40537.163    654.98613   0.96565018 
   56700    293.35218   -1237.6392    129211.16   -36915.497    3644.6123   -40560.109    656.77785   0.96519531 
   56800    300.59009   -947.65148    129012.05   -36870.256    3734.5362   -40604.792    658.15804   0.96668492 
   56900    296.53518   -998.28347     129197.5   -36845.954    3684.1579   -40530.112    659.66461   0.96529737 
   57000    301.34546   -1113.1746    129385.67   -36759.066    3743.9209   -40502.987    661.94756   0.96389348 
   57100     296.5689   -997.42488    129376.34   -36828.907    3684.5768   -40513.484    662.65763   0.96396296 
   57200    297.15193    -763.4014    128870.62   -36904.549    3691.8205   -40596.369    662.11196   0.96774584 
   57300    297.19487   -1018.9911    128709.99    -36967.38    3692.3539   -40659.734    662.89723   0.96895353 
   57400    292.19155   -1045.8413    128561.44   -37006.325    3630.1926   -40636.518    664.56448   0.97007315 
   57500    292.91283   -844.22874    128644.35   -37045.097    3639.1538   -40684.251    665.43313   0.96944799 
   57600    293.09356    -952.9353    128852.45   -36983.823    3641.3991   -40625.222    667.19556   0.96788231 
   57700    290.88204     -1041.96    128968.32   -37047.828    3613.9233   -40661.752    667.89006   0.96701269 
   57800    295.31791   -825.65191    129175.84   -37049.954    3669.0345   -40718.988    669.96933   0.96545922 
   57900    288.94248   -963.95774    129538.91   -37031.756    3589.8261   -40621.582      672.604   0.96275323 
   58000    295.37715   -931.88225    129340.92   -37021.997    3669.7705   -40691.768    672.99453   0.96422696 
   58100    294.65347   -956.28765    129185.92   -36951.705    3660.7795   -40612.485    671.71315   0.96538384 
   58200    295.20661   -1018.0216     129199.2   -36879.473    3667.6517   -40547.125    672.99356   0.96528464 
   58300    299.55678   -1140.8538     128879.4   -36777.354    3721.6983   -40499.053     672.9186    0.9676799 
   58400    300.99632   -1155.6926    128846.07   -36775.324    3739.5832   -40514.907    674.66771   0.96793025 
   58500    296.11653   -977.99628    128561.57   -36795.158    3678.9566   -40474.114    674.16359    0.9700722 
   58600    304.32666   -1050.0736    128904.43   -36722.615    3780.9593   -40503.574    675.76744   0.96749201 
   58700    303.26314   -934.01042    129106.78   -36745.409    3767.7462   -40513.155    678.60402   0.96597567 
   58800     298.9406   -899.32826    129027.37   -36829.247    3714.0428    -40543.29    679.42729   0.96657016 
   58900    294.45632    -1034.022    129271.47   -36874.502    3658.3301   -40532.832     682.0708   0.96474498 
   59000    298.13375   -904.60163    129092.26   -36869.348    3704.0186   -40573.366    682.30578   0.96608426 
   59100    299.89737   -926.83087    129272.88   -36911.311    3725.9299   -40637.241    684.32081   0.96473447 
   59200    298.20411     -1075.36    129572.75   -36925.262    3704.8927   -40630.155    686.36695   0.96250178 
   59300    291.53654   -1055.1808    129251.39   -36922.179    3622.0548   -40544.234    686.66597   0.96489488 
   59400    290.22515   -877.56878    129436.09    -36987.91     3605.762   -40593.672    689.31249   0.96351802 
   59500    295.27451   -1021.5082    129724.59    -36917.33    3668.4953   -40585.825    691.05352    0.9613752 
   59600     296.8636   -1197.2305    129761.64   -36936.164    3688.2382   -40624.402    691.88155   0.96110067 
   59700    291.95274   -1184.8894    129261.79   -36954.918    3627.2256   -40582.144    691.10519   0.96481723 
   59800    294.49608   -926.33872    129277.18   -36948.785    3658.8241   -40607.609     691.5887   0.96470241 
   59900    302.34443   -1221.5798    129275.86   -36908.009    3756.3321   -40664.342    692.54212   0.96471224 
   60000    298.13859    -758.0437    129281.61   -36950.787    3704.0788   -40654.865    694.47819   0.96466929 
   60100    294.95474   -1056.4424    129115.61   -36893.113    3664.5225   -40557.635    694.66475   0.96590959 
   60200    295.91855   -990.84773    128996.77   -36858.268    3676.4969   -40534.765    695.91849   0.96679946 
   60300    298.64978   -783.00206    129289.13    -36789.92    3710.4297    -40500.35    697.79698   0.96461318 
   60400    303.78187   -979.15567    129724.19   -36664.705    3774.1909   -40438.896    701.04708   0.96137815 
   60500    302.57725   -1044.9291    129692.05   -36702.367    3759.2247   -40461.592    701.05372   0.96161637 
   60600     296.3841   -1273.6692    129389.67   -36766.094    3682.2809   -40448.375    701.07312    0.9638637 
   60700    299.46146   -916.08274    129159.58   -36853.647    3720.5141   -40574.161    700.81923   0.96558078 
   60800    301.14475   -1125.5276    128958.97   -36816.627    3741.4273   -40558.054    699.65572   0.96708285 
   60900    293.64873   -867.03521    128994.08    -36801.61    3648.2966   -40449.907    699.85839   0.96681958 
   61000    297.45801   -938.44578    129083.77   -36856.831    3695.6232   -40552.454    702.04295    0.9661478 
   61100    299.37481   -1071.1366    129200.72   -36873.609    3719.4375   -40593.047    704.57708   0.96527328 
   61200    294.53242   -1095.1501       129206   -36865.511    3659.2756   -40524.786     706.8428   0.96523382 
   61300    296.27381   -1101.1803    128937.25   -36871.436    3680.9107   -40552.346    707.03056   0.96724573 
   61400     296.9017   -1026.2605    128729.28   -36927.032    3688.7116   -40615.743    707.67552   0.96880833 
   61500    295.48439   -1117.0074    128959.91   -36926.073    3671.1029   -40597.176    709.63229   0.96707574 
   61600    294.63684   -1063.2224       128859    -36871.48    3660.5729   -40532.053     710.9403   0.96783311 
   61700    294.07189   -957.51664    128863.13   -36968.282     3653.554   -40621.836    712.55041   0.96780204 
   61800    293.40487   -1046.8968    128870.42    -37041.67    3645.2669   -40686.937    712.93456   0.96774729 
   61900    295.01232   -903.68071    129140.54    -36948.29    3665.2379   -40613.527    715.52477    0.9657231 
   62000    293.63462   -974.09911    129165.63   -36929.202    3648.1212   -40577.323    716.23302   0.96553555 
   62100    293.80321   -1034.4441    129287.91   -36947.035    3650.2159   -40597.251    717.56174   0.96462231 
   62200    297.66094   -1197.2817    129209.45   -36874.284    3698.1443   -40572.428    718.02125   0.96520808 
   62300    293.46819    -1128.366    129108.75   -36915.499    3646.0536   -40561.553    718.93857   0.96596089 
   62400    297.34731   -956.42307     128887.1   -36842.369    3694.2478   -40536.617    719.67028   0.96762208 
   62500    299.13241   -837.58088    128945.43   -36848.492    3716.4259   -40564.918    719.59083    0.9671844 
   62600    293.27444   -1186.4389    129068.26   -36861.574    3643.6464    -40505.22    721.67781    0.9662639 
   62700    292.65465   -1125.9962    129018.85   -36851.453    3635.9461   -40487.399     722.2635   0.96663396 
   62800     297.0056    -913.0056    128969.15   -36841.636    3690.0024   -40531.639    722.32367   0.96700647 
   62900    299.54306   -1288.0189    128742.81   -36746.133    3721.5279   -40467.661    721.72007   0.96870658 
   63000    300.66667   -1170.6297    128541.63   -36699.757    3735.4876   -40435.245    722.24349    0.9702227 
   63100    307.52803   -967.70489    128897.83   -36684.249    3820.7333   -40504.982    725.83061   0.96754151 
   63200    299.84947   -1055.5977    129033.56   -36713.106    3725.3347   -40438.441    727.01573    0.9665238 
   63300    299.10841   -1072.8474    128847.08   -36803.552    3716.1277   -40519.679    726.98917   0.96792265 
   63400    302.32858   -1108.8624     128781.2   -36721.225    3756.1352    -40477.36    727.80716   0.96841775 
   63500    291.51606   -994.47073    128709.38   -36822.496    3621.8002   -40444.296    728.86448   0.96895818 
   63600    302.62192   -1150.8049    128456.68   -36811.395    3759.7796   -40571.174    729.85888   0.97086426 
   63700    290.85316   -858.89202    128502.05   -36835.422    3613.5644   -40448.987    730.66128   0.97052148 
   63800    298.91397   -844.96475    128589.27   -36994.489     3713.712   -40708.201    732.28317    0.9698632 
   63900    300.88393   -805.35014     128899.7    -36985.26    3738.1869   -40723.447    734.68161   0.96752748 
   64000    296.34097   -1041.3967    129042.89   -37000.036    3681.7451   -40681.781    736.25261   0.96645393 
   64100    301.94894   -1288.9187    129059.73   -36890.696    3751.4185   -40642.114    736.95123    0.9663278 
   64200    299.16939   -1067.0787    128990.14   -36855.601    3716.8854   -40572.487    738.58893   0.96684914 
   64300    299.79162   -549.50339    129058.15    -36730.54    3724.6159   -40455.156    740.05813   0.96633965 
   64400    295.30748   -1075.1963    129085.69   -36716.719    3668.9049   -40385.624    741.95139   0.96613343 
   64500    299.35784     -1305.08    128987.64   -36705.994    3719.2267   -40425.221    742.34531   0.96686788 
   64600     300.3111    -1047.342    128909.73   -36740.127      3731.07   -40471.197    743.82531   0.96745221 
   64700    294.58156    -1098.518    128858.31   -36783.438    3659.8861   -40443.324    743.75515   0.96783824 
   64800    301.43898    -867.9854    129213.26    -36781.94    3745.0828   -40527.023    745.17655   0.96517962 
   64900    302.96221   -1286.8371    129159.47   -36752.323    3764.0074    -40516.33      746.473   0.96558153 
   65000    299.65373   -1022.5043    129249.59   -36724.839    3722.9028   -40447.742    747.56077   0.96490829 
   65100    302.78402   -1092.5606    128934.37   -36779.302    3761.7936   -40541.096    747.78077    0.9672673 
   65200    301.88722   -1038.2219    129182.55   -36768.241    3750.6518   -40518.893    750.49869   0.96540905 
   65300    295.59296   -1006.9234    128953.56   -36794.892    3672.4517   -40467.344    749.95992   0.96712341 
   65400    303.94818   -806.04335    129152.39   -36721.986    3776.2571   -40498.243    752.36302    0.9656345 
   65500    305.38303   -1314.3265    129322.91   -36811.483    3794.0838   -40605.567     754.0898   0.96436124 
   65600    300.03018   -1333.9103    129258.17   -36844.501    3727.5799   -40572.081    755.08008   0.96484423 
   65700    293.89535   -872.66629    129168.14   -36934.624    3651.3606   -40585.984    754.94054   0.96551676 
   65800    295.57354   -1149.9297    128936.44   -36969.604    3672.2104   -40641.815    755.45849   0.96725179 
   65900     298.4288   -1047.3616    128762.93   -36959.645    3707.6842   -40667.329    755.08986   0.96855521 
   66000    301.95934   -1138.7152    128778.56   -36846.472    3751.5478    -40598.02     755.9036   0.96843762 
   66100     300.0115   -722.91615    128756.98   -36763.778    3727.3478   -40491.125    757.67734   0.96859993 
   66200    302.98906   -903.36543    128840.81   -36681.501     3764.341   -40445.842    759.27836    0.9679697 
   66300    298.87131   -628.28131    129582.98   -36726.548     3713.182    -40439.73    764.34587   0.96242579 
   66400    299.94118   -1141.3009     129316.9   -36793.325    3726.4741   -40519.799    765.30003   0.96440608 
   66500    294.22102   -997.95145    129128.61   -36813.935    3655.4067   -40469.341    766.50288   0.96581235 
   66600    292.34191   -1401.3989    129001.23   -36862.767    3632.0606   -40494.827    766.88597   0.96676597 
   66700    297.54735   -897.66166    128831.27   -36869.397    3696.7331    -40566.13    768.44789   0.96804141 
   66800    305.40909   -926.62749    129030.09    -36790.63    3794.4075   -40585.038    769.97051   0.96654973 
[...]
   84700     290.1126   -1125.3954    128993.79    -36950.04    3604.3636   -40554.404    983.15605   0.96682177 
   84800    295.08327   -972.24213    129105.56   -36915.702    3666.1194   -40581.821    983.77812   0.96598475 
   84900    295.38684   -1034.2904    129551.51   -36888.033    3669.8909   -40557.924    987.10203   0.96265961 
   85000    299.47427   -955.13378    129156.22   -36848.705    3720.6732   -40569.378    987.42307   0.96560585 
   85100    304.41441   -881.41696    129190.72   -36867.767    3782.0496   -40649.817     989.6192   0.96534801 
   85200    296.76021   -1255.0819    129423.67    -36870.36    3686.9536   -40557.314    992.72084   0.96361047 
   85300    294.37205   -1122.9619    129476.72   -36892.261    3657.2832   -40549.545    993.75759   0.96321567 
   85400    295.79344   -1106.6211     129270.6   -36894.371    3674.9425   -40569.314    994.29399   0.96475152 
   85500     298.1241   -887.94436    129216.28   -36849.068    3703.8986   -40552.966    995.39488   0.96515702 
   85600    297.63485   -994.77906    128907.35   -36829.633    3697.8203   -40527.453    995.01114   0.96747011 
   85700    291.89862   -818.54373    129094.11   -36876.503    3626.5532   -40503.056    995.55162   0.96607046 
   85800    294.32022   -1225.6134    129439.04   -36856.033    3656.6393   -40512.672    998.98623   0.96349603 
   85900    301.50904   -856.43878    129263.55   -36735.448    3745.9532   -40481.401    1000.0042    0.9648041 
   86000    298.03839   -1195.8729    129317.95   -36787.433    3702.8339   -40490.267    1002.0557   0.96439828 
   86100    300.90802   -1172.1357     128859.1   -36802.979    3738.4861   -40541.465     999.8462   0.96783231 
   86200    298.61393    -905.6435    128969.41   -36764.172    3709.9843   -40474.157    1001.6195    0.9670045 
   86300    299.63564   -1136.8295    128833.83   -36805.457    3722.6781   -40528.135    1002.7826   0.96802216 
   86400    305.19332   -1108.8747    128947.27    -36811.11    3791.7268   -40602.836    1003.6971   0.96717053 
   86500    297.27401    -762.1904    128850.01   -36808.066    3693.3372   -40501.403     1004.979   0.96790061 
   86600    296.90338   -955.01848    129115.19   -36733.007    3688.7325    -40421.74    1007.9825   0.96591274 
   86700    302.61207   -841.78253    128965.93   -36712.915    3759.6573   -40472.572    1007.2577   0.96703065 
   86800    298.28795   -843.97274    128817.41   -36813.787    3705.9343   -40519.722     1007.876   0.96814557 
   86900    303.11944   -724.40976    128872.36   -36785.051    3765.9608   -40551.012    1010.3146   0.96773276 
   87000    303.08488   -909.03165    128684.91    -36823.91    3765.5315   -40589.441    1010.3748   0.96914241 
   87100    295.21235    -983.4801    128882.76   -36842.927     3667.723    -40510.65    1012.9139   0.96765465 
   87200    300.49492   -796.31873    129098.88   -36859.934    3733.3538   -40593.288    1015.4223   0.96603475 
   87300    297.97002   -818.09506    129009.61   -36856.426    3701.9844    -40558.41    1016.6043   0.96670319 
   87400    296.02816   -809.47082       129316   -36869.868    3677.8587   -40547.726     1019.413    0.9644128 
   87500    301.98293   -1025.1865    129032.79   -36875.673    3751.8408   -40627.513     1017.936   0.96652957 
   87600    296.61894     -1048.98    128909.71   -36878.003    3685.1985   -40563.202     1018.251   0.96745239 
   87700     296.1983   -974.36862    128999.87   -36902.494    3679.9725   -40582.467    1020.0531   0.96677618 
   87800    298.44042   -934.33126    128835.77   -36856.709    3707.8287   -40564.538    1020.3947   0.96800758 
   87900     295.2805   -954.03693       128637   -36905.503    3668.5698   -40574.073    1020.4268   0.96950332 
   88000     291.0345   -909.06054    128890.27   -36892.621    3615.8174   -40508.438    1022.6061   0.96759831 
   88100    296.64046   -863.45817    129204.71   -36795.767    3685.4659   -40481.233    1024.7252   0.96524348 
   88200    298.38107    -1102.878    129293.36   -36725.007    3707.0913   -40432.098      1027.49   0.96458162 
   88300    301.37809   -892.18891    129596.73   -36774.987    3744.3264   -40519.313    1030.7288   0.96232366 
   88400    295.77531   -1123.2016    129356.52   -36923.861    3674.7173   -40598.579    1030.3742    0.9641107 
   88500    305.34313   -1094.7759    129004.86   -36857.894     3793.588   -40651.482    1029.1395   0.96673881 
   88600    301.06186   -764.40278     129053.2   -36778.204    3740.3974   -40518.602    1031.6456    0.9663767 
   88700    301.26349   -1007.0221    129201.87    -36736.21    3742.9025   -40479.112    1033.7016   0.96526468 
   88800    300.97655   -792.22836    129469.11    -36663.48    3739.3375   -40402.817    1036.3728    0.9632723 
   88900    299.34712   -767.04971     129647.8   -36706.723    3719.0935   -40425.816    1038.5946   0.96194465 
   89000    303.97236    -1216.631    129373.75   -36714.866    3776.5576   -40491.424    1037.4868    0.9639823 
   89100    294.14623   -938.26792     129117.8   -36838.546    3654.4776   -40493.023     1037.494   0.96589316 
   89200    291.59731   -1074.0479    129147.47   -36886.943    3622.8098   -40509.753    1039.2962   0.96567126 
   89300    299.77452   -831.27079    129176.05   -36919.533    3724.4036   -40643.937    1041.6248   0.96545765 
   89400    293.05484   -1051.0893    128997.97   -36975.928    3640.9181   -40616.846    1041.3158   0.96679045 
   89500    295.93882   -857.97653    128801.67   -37020.552    3676.7488   -40697.301    1042.2267   0.96826383 
   89600    287.74544   -1025.3992    128833.21   -37098.547    3574.9541   -40673.501    1042.6773   0.96802682 
   89700    291.41106   -840.30023    129144.47   -37057.316    3620.4958   -40677.812    1045.6704   0.96569371 
   89800    295.76221   -820.61181    129139.07   -37019.085    3674.5545    -40693.64    1046.5881   0.96573412 
   89900    294.39888   -974.34055    129006.93   -37120.209    3657.6165   -40777.826    1046.6194   0.96672327 
   90000    297.39617   -977.67057    129027.31   -36981.695    3694.8548   -40676.549    1048.2056   0.96657062 
   90100    293.31532   -1031.6002    129007.77   -36995.721    3644.1543   -40639.876    1049.3965   0.96671699 
   90200    288.89784   -906.80801    128998.38   -37038.796    3589.2714   -40628.068    1050.9371   0.96678739 
   90300    292.82643   -995.28028    129101.17   -37042.044    3638.0803   -40680.124    1052.1668    0.9660176 
   90400    295.47667   -937.81629     129139.5   -37038.247     3671.007   -40709.254    1053.2205   0.96573087 
   90500    295.70944   -698.03067    129047.32   -36973.776    3673.8989   -40647.675    1053.9271    0.9664207 
   90600     299.4417   -860.32201    129170.06   -36832.202    3720.2685   -40552.471    1056.1376   0.96550238 
   90700    297.83832   -1051.6689    129045.66   -36827.645    3700.3482   -40527.994    1056.0719   0.96643319 
   90800    294.51592   -957.26146    128870.83   -36854.112    3659.0706   -40513.183     1056.159   0.96774422 
   90900    290.71175   -1003.3804    128964.09   -36933.182    3611.8075    -40544.99    1057.5368   0.96704445 
   91000    297.11256   -1009.1485    129159.02   -36976.355    3691.3313   -40667.686    1060.4356   0.96558494 
   91100     297.9968   -1257.0378    129397.55   -36976.538    3702.3171   -40678.855    1062.3327   0.96380498 
   91200    295.06024   -1005.8691    129482.25   -36950.783    3665.8332   -40616.616    1063.1018   0.96317449 
   91300    300.79086   -987.90764    129464.28   -36806.336    3737.0305   -40543.367    1063.9406   0.96330818 
   91400    302.36443   -1149.6668    129603.33   -36783.373    3756.5806   -40539.953    1064.5888   0.96227468 
   91500    299.85608   -1182.7701    129389.68   -36793.508    3725.4168   -40518.925    1065.0036   0.96386357 
   91600    301.02852   -1062.8935    129419.33    -36842.16    3739.9833   -40582.144    1066.8974    0.9636428 
   91700    297.04918   -997.04362    129322.55   -36931.056    3690.5439     -40621.6    1067.6894   0.96436395 
   91800    301.55057   -1072.3694    129243.09   -36883.081    3746.4692    -40629.55    1069.5356   0.96495685 
   91900    292.46024   -950.97413    129526.93   -36880.732    3633.5308   -40514.262    1072.5324    0.9628423 
   92000    299.32948   -1133.2881    129368.01   -36888.763    3718.8743   -40607.638    1072.7918   0.96402505 
   92100    291.60908   -773.41269    129261.23   -36967.334    3622.9559    -40590.29    1074.5561   0.96482141 
   92200    293.55891   -1009.7295    129197.13   -36898.335    3647.1807   -40545.516    1074.9783   0.96530007 
   92300    298.48698   -800.27054    128962.92   -36766.616    3708.4071   -40475.023    1075.0016   0.96705317 
   92400    296.51073   -702.01421    129202.35   -36757.193    3683.8541   -40441.047    1076.2596   0.96526109 
   92500    291.48459   -983.78473    129233.17   -36809.659    3621.4092   -40431.068    1077.9597   0.96503092 
   92600     304.3391   -1119.2004    129511.09   -36772.497     3781.114   -40553.611    1079.1872   0.96296003 
   92700    303.85532   -1027.7503    129495.28   -36769.724    3775.1035   -40544.828    1080.2261   0.96307762 
   92800    297.30945   -734.26264    129439.46   -36810.104    3693.7774   -40503.881    1081.0736    0.9634929 
   92900    300.30011   -988.16696     129305.2   -36766.355    3730.9334   -40497.288    1081.5711    0.9644933 
   93000    300.13461   -1029.9655    129361.72    -36823.63    3728.8772   -40552.507    1085.1965    0.9640719 
   93100    300.94861   -1147.5546    129327.99   -36768.374    3738.9905   -40507.364    1085.1415   0.96432338 
   93200    299.79812   -1184.5647    129386.79   -36785.805    3724.6967   -40510.502     1086.413   0.96388517 
   93300    300.42932   -1029.9793    129458.61   -36808.884    3732.5388   -40541.423     1087.836   0.96335036 
   93400    295.58338   -1168.4791    129521.59   -36826.601    3672.3327   -40498.933    1088.9013   0.96288196 
   93500    296.94039   -1044.4418    129444.93   -36880.913    3689.1923   -40570.105     1090.069   0.96345222 
   93600    294.47373   -923.60745    129389.48   -36956.685    3658.5464   -40615.232    1090.6301   0.96386509 
   93700    292.36353   -965.42099    129004.62   -36939.725    3632.3292   -40572.054    1089.9686   0.96674062 
   93800    293.72927   -1026.2538    128881.53   -36876.314    3649.2972   -40525.611     1090.844   0.96766387 
   93900    298.86458   -744.28063    128890.81   -36850.062    3713.0984   -40563.161    1090.2553   0.96759425 
   94000    298.20233   -833.98939    128906.54   -36882.684    3704.8706   -40587.554    1090.7641   0.96747615 
   94100    290.04885   -1038.8792    128928.74   -36878.809    3603.5716   -40482.381     1092.342   0.96730959 
   94200     296.6995   -1228.1262    128836.93   -36866.025    3686.1994   -40552.224    1092.7147   0.96799885 
   94300    298.73339   -695.34931    128736.91   -36786.232    3711.4686   -40497.701    1094.1248   0.96875096 
   94400    294.48138   -740.65983    129239.82   -36770.458    3658.6415   -40429.099    1098.2126   0.96498126 
   94500    298.94772   -856.94038    129448.95   -36680.018    3714.1313   -40394.149    1100.7188   0.96342226 
   94600    297.41684   -1050.6629    129482.41   -36726.816    3695.1116   -40421.927    1101.7622   0.96317336 
   94700     298.9343   -1256.9088    129622.47   -36784.041    3713.9646   -40498.006    1103.8882   0.96213258 
   94800    295.36777   -984.34118     129334.1   -36773.938    3669.6539   -40443.592    1103.3103   0.96427778 
   94900    303.08043   -1128.8625    129312.02   -36743.426    3765.4763   -40508.902    1103.7867   0.96444243 
   95000    301.35535   -708.59089    129418.09   -36745.072    3744.0438   -40489.116    1106.8495   0.96365205 
   95100    300.52474   -859.98472    129256.12   -36747.274    3733.7243   -40480.999    1106.0989   0.96485956 
   95200    299.63399   -1263.6751    129108.04   -36772.259    3722.6576   -40494.917    1106.2345   0.96596617 
   95300    305.53379   -1013.0688    129056.18   -36638.358    3795.9568   -40434.315    1107.5908   0.96635439 
   95400    294.08718   -1055.9214    129168.64   -36728.819     3653.744   -40382.563    1109.7171   0.96551302 
   95500    303.63284    -1066.086    129332.07   -36719.743    3772.3393   -40492.082    1110.9755   0.96429297 
   95600     302.8776   -1027.0836    129208.79    -36701.92    3762.9563   -40464.876    1112.2964   0.96521299 
   95700    300.64703   -906.76474     129296.5   -36798.815    3735.2436   -40534.059    1114.7509   0.96455824 
   95800    293.70309   -1032.9289    129509.44   -36887.283    3648.9719   -40536.255     1116.399   0.96297231 
   95900    302.70717     -886.229    129619.72   -36824.447    3760.8388   -40585.286     1118.822   0.96215299 
   96000    292.81285   -1263.1839    129422.59   -36933.152    3637.9117   -40571.064    1118.2739   0.96361848 
   96100    300.06393   -1481.2601    129356.51   -36882.825    3727.9992   -40610.824    1119.2805    0.9641108 
   96200    299.57104   -977.09771    129281.17   -36933.105    3721.8754    -40654.98    1121.6086   0.96467262 
   96300    294.41373   -872.21654    129485.63   -36862.518     3657.801   -40520.319    1124.1404   0.96314941 
   96400    300.71781   -1014.9151    129248.42   -36849.683     3736.123   -40585.805    1125.1662   0.96491705 
   96500    296.25551   -907.75742    129484.28       -36904    3680.6833   -40584.684    1127.7575   0.96315943 
   96600      295.994   -1121.3756    129260.81   -36888.706    3677.4343   -40566.141    1128.0665   0.96482454 
   96700    290.75541   -926.96762    129180.47   -37041.112      3612.35   -40653.462    1127.8962   0.96542459 
   96800    288.82924   -900.57023    129265.63    -37093.92    3588.4192   -40682.339    1128.4046   0.96478859 
   96900    289.42283   -925.12553    129009.91   -37006.085     3595.794   -40601.879    1127.8381   0.96670095 
   97000    298.41595   -1227.3478    129066.69   -37009.714    3707.5247   -40717.238     1129.425   0.96627566 
   97100    295.36001   -853.35916     128959.7   -36971.131    3669.5575   -40640.688    1129.8268   0.96707735 
   97200    294.34374   -1125.1156    129226.92    -37000.32    3656.9314   -40657.251    1132.9005    0.9650776 
   97300    287.53854   -1025.9603    129216.52   -36966.299    3572.3835   -40538.682    1135.1102   0.96515523 
   97400    294.35223   -891.98683    128885.78   -36982.563    3657.0369     -40639.6    1134.8501   0.96763195 
   97500    302.80423   -1055.8523    128838.25   -36851.006    3762.0447   -40613.051    1136.2822   0.96798893 
   97600    290.19152   -774.79574    129051.59    -36907.41    3605.3442   -40512.754    1139.0393   0.96638876 
   97700    299.66038   -1089.9332    129459.21   -36814.096    3722.9854   -40537.082    1141.3759   0.96334591 
   97800    299.86057   -1262.7609    129393.68   -36783.892    3725.4726   -40509.365    1142.3168   0.96383383 
   97900    298.39769   -940.67742     129378.5   -36724.085    3707.2978   -40431.383    1142.8681   0.96394689 
   98000    296.80296   -964.70196    129642.06   -36756.137    3687.4848   -40443.622    1146.5504    0.9619872 
   98100    295.52284   -849.12367    129856.23    -36859.65    3671.5806    -40531.23     1149.008   0.96040065 
   98200    301.73384   -850.01254    129777.71   -36797.863    3748.7461   -40546.609    1149.4928   0.96098173 
   98300    299.03409   -996.86488     129612.5   -36853.231    3715.2044   -40568.435    1149.9983   0.96220659 
   98400    289.31455   -1016.1195    129532.87   -36860.452    3594.4487   -40454.901    1151.4564    0.9627981 
   98500    294.99156   -887.58071    129479.16   -36892.084      3664.98   -40557.064    1152.0134   0.96319751 
   98600     298.2656   -947.38834     129616.4     -36950.7    3705.6567   -40656.357    1153.3803   0.96217763 
   98700    290.64732   -1032.1992    129482.19   -36969.903    3611.0071    -40580.91    1153.2086   0.96317499 
   98800    291.55227   -862.62183    129733.74   -36924.285    3622.2501   -40546.535    1156.0789   0.96130739 
   98900    298.25943   -1049.7858    129805.18   -36911.985      3705.58   -40617.565    1156.5851   0.96077835 
   99000    290.39178   -1219.6072    129323.87   -36979.273    3607.8322   -40587.105    1154.3916   0.96435412 
   99100    296.53861   -1016.3725    128979.05   -36892.077    3684.2005   -40576.278    1152.9112   0.96693224 
   99200    297.93759   -1007.6175    129065.26   -36870.963    3701.5815   -40572.544    1155.4491   0.96628638 
   99300    295.99913   -906.34805    128963.86   -36812.478     3677.498   -40489.976    1157.0956   0.96704612 
   99400    299.39138    -984.6496    129140.34    -36780.43    3719.6434   -40500.073    1159.2012    0.9657246 
   99500    304.82814   -837.76197    129357.12   -36636.694    3787.1898   -40423.884    1160.5574   0.96410622 
   99600    307.61912   -1112.8652    129354.98    -36681.83    3821.8649   -40503.695    1160.9196    0.9641222 
   99700    304.33068   -969.17243    129411.49   -36699.264    3781.0094   -40480.274    1162.7046   0.96370114 
   99800    297.98062   -812.80315    129643.04   -36722.047    3702.1161   -40424.163    1164.7051   0.96197994 
   99900    299.33806   -829.56051    129668.43   -36828.244    3718.9809   -40547.225    1165.5547   0.96179156 
  100000    292.99108   -1111.9716     129341.8   -36825.889    3640.1259   -40466.015      1165.56   0.96422045 
  100100    300.01784   -1028.4928    129341.12   -36752.466    3727.4265   -40479.892    1166.8402   0.96422546 
  100200    301.16036   -1543.7912    129281.11   -36732.612    3741.6212   -40474.234    1167.7764   0.96467309 
  100300    301.95312   -864.20982    129144.66    -36731.01    3751.4704    -40482.48    1167.9936   0.96569233 
  100400    295.86238    -1074.489    129175.14   -36769.276     3675.799   -40445.075    1168.6852   0.96546442 
  100500    298.47683   -1183.6488    128929.93   -36652.982     3708.281   -40361.263    1167.4891   0.96730065 
  100600    303.01347   -852.82961    128687.56   -36774.225    3764.6443    -40538.87    1166.4161   0.96912247 
  100630    303.88345   -940.89257    128622.05   -36742.788    3775.4529   -40518.241    1166.5199   0.96961601 
Loop time of 110.935 on 6 procs for 100000 steps with 4169 atoms

Performance: 389.418 ns/day, 0.062 hours/ns, 901.430 timesteps/s
98.7% CPU use with 6 MPI tasks x no OpenMP threads

MPI task timing breakdown:
Section |  min time  |  avg time  |  max time  |%varavg| %total
---------------------------------------------------------------
Pair    | 86.561     | 87.51      | 88.18      |   5.8 | 78.88
Neigh   | 6.6443     | 6.6747     | 6.7467     |   1.3 |  6.02
Comm    | 13.04      | 13.799     | 14.805     |  15.5 | 12.44
Output  | 0.17144    | 0.17285    | 0.17943    |   0.7 |  0.16
Modify  | 2.0294     | 2.0415     | 2.0496     |   0.5 |  1.84
Other   |            | 0.7363     |            |       |  0.66

Nlocal:        694.833 ave         705 max         680 min
Histogram: 1 0 0 0 1 0 1 1 1 1
Nghost:        1474.33 ave        1489 max        1448 min
Histogram: 1 0 1 0 0 0 0 1 0 3
Neighs:        0.00000 ave           0 max           0 min
Histogram: 6 0 0 0 0 0 0 0 0 0
FullNghs:      19569.0 ave       19914 max       18951 min
Histogram: 1 0 0 0 0 1 1 1 0 2

Total # of neighbors = 117414
Ave neighs/atom = 28.163588
Neighbor list builds = 7120
Dangerous builds = 0

undump              1
unfix               2
unfix               3
unfix               4


################################################
#######         Run Simulation         #########
################################################

reset_timestep      0
log                 log.run_${NAME}
log                 log.run_liquid_298K_1000atm_ML
