LAMMPS data file via write_data, version 29 Oct 2020, timestep = 800000

4175 atoms
1 atom types

-0.14727987896484152 50.14727987896207 xlo xhi
-0.14727987896484152 50.14727987896207 ylo yhi
-0.14727987896484152 50.14727987896207 zlo zhi

Masses

1 18.015

Atoms # atomic

1032 1 0.6215603493063382 2.416187503853366 5.311823874553459 0 0 0
1497 1 7.739739144455854 13.662155605004326 0.6788357671566766 0 1 1
2224 1 32.413099431584655 23.668240022746534 0.7233442432764512 0 0 0
665 1 7.027620151418532 3.9278649101087533 1.6580482505456902 1 0 0
751 1 14.289808383071605 1.6532711089588228 3.0523646253426726 1 0 0
3245 1 5.1222920457714585 13.084289338646983 1.6051803037440668 1 1 1
3473 1 47.0800517625357 5.424520481140302 1.1243311989474152 0 1 1
3914 1 33.8616445049355 4.146616616887325 0.02967514788768233 0 0 2
2260 1 23.460435727482004 2.6154311634017153 2.1579605185990545 -1 1 0
708 1 3.664698524061745 0.5537682792327608 0.3609256314152578 0 0 0
2729 1 28.018633390390523 2.5822762294793913 1.8619129401974308 0 0 0
4050 1 33.624633219985924 2.041119078592001 1.7991941358887698 0 1 0
610 1 36.29010591252634 1.3231025841396262 1.9094555388976722 0 0 0
2034 1 28.082694111814863 -0.12062641118532724 4.907690357872114 0 1 0
4031 1 49.29382774258114 15.570848560795687 0.5260313234921983 0 1 1
67 1 19.080523917655313 0.42753786238121727 3.08140376715879 1 0 0
3991 1 46.46111487423363 2.7158408793454405 1.1215305330790981 -1 0 0
2178 1 43.6869228883706 1.918612570554528 1.7722613807687637 0 1 0
3266 1 47.407835445021604 2.1026396750073575 3.7370439194689835 -1 -1 0
1380 1 2.3857500312841298 2.994571639067975 2.8753912353925535 0 0 0
3832 1 24.228711412660566 0.6702210378379835 14.613794121512141 1 1 1
802 1 8.55931299187527 7.908115996634274 0.8603613403301555 -1 0 0
1057 1 8.520270008459706 0.8126807305737707 6.7349354301555096 0 1 0
1688 1 9.402685495266871 3.423053664504404 2.880419334715834 0 1 1
352 1 10.976740653795682 4.433366307424656 0.953775006628985 0 0 0
1171 1 13.590254205208423 3.6990743302606126 1.4708452747248868 0 0 0
2664 1 15.550563361880483 5.6508794719960935 1.6512331763487396 1 1 0
510 1 18.052985350659032 4.682673952023729 1.0245568462914962 1 0 1
2742 1 21.750958505349445 4.555562884992655 2.697648642800751 -1 1 0
2134 1 29.205330018859243 4.955697641910978 1.2023139014622721 -1 0 0
2536 1 31.240225142197836 5.251009147378043 2.7429643453879167 0 0 0
3577 1 37.35046892290208 7.6094795589956705 2.963275333441478 0 1 1
1827 1 38.65435356671014 6.328741738493994 0.8191741193046761 -1 1 1
1343 1 40.58290306275376 3.8545540833245484 3.596251364611878 -1 0 0
1966 1 43.555800536761666 3.2511451533701345 4.6171372584615025 -1 0 1
638 1 49.165625416605195 4.324839878138961 3.2139301849918085 -1 0 0
1449 1 0.7908922904202914 8.06681649961219 2.666203261626842 0 -1 0
2203 1 8.450341231274031 10.089352678715194 2.276984911515019 0 1 0
166 1 42.71454852737365 24.77151166693527 13.840503673200041 0 -1 0
1513 1 10.464843460067632 10.843464323568476 3.974134059538599 0 -1 1
3058 1 10.782151241155582 8.021233034323823 4.081376216554271 0 1 1
925 1 18.420797807934495 7.8153684401055425 2.246523278367761 0 0 0
3411 1 20.95565746162681 7.634350393385525 1.096449861542056 0 0 0
1132 1 16.646679245717696 0.7068769578146193 1.5053627132508889 -1 0 0
1234 1 24.439339908866298 6.810865724197579 2.932644441393556 0 0 0
952 1 27.59151172937667 6.740605634688974 2.7661874274438527 0 0 0
3879 1 28.85628599405285 9.422205486299447 1.9007222918478512 -1 1 1
1661 1 33.49412784110399 6.949621820643741 1.86363621319996 0 0 2
1227 1 35.325207909406515 5.444426624956634 3.7320863059089118 1 0 0
703 1 38.21625419115759 10.227026100960714 1.717891614896939 0 0 0
2699 1 41.26356471490226 7.885401405120824 1.1699200323643144 0 1 1
3559 1 42.726546687733816 6.368851442995266 3.014826751010612 -1 0 1
4032 1 45.28027356036536 7.3654618205384255 1.9308463528502275 0 0 0
2912 1 3.751271613044329 7.753482842785708 2.2094942713551102 0 1 0
3863 1 33.75072270436327 16.567361100717616 0.15919963822179256 -1 1 1
1184 1 6.221921141954728 13.154159644403336 4.394486090004749 0 0 1
4027 1 17.846563326736977 10.82730472013682 0.15625394637826318 0 0 1
2830 1 12.362480880872381 12.150657045979841 2.7833100280092946 0 1 1
2772 1 15.0845389676216 12.105884818605924 0.4503875461475261 0 1 0
232 1 19.794167062860986 22.136951225425012 1.510370510937446 0 0 0
2596 1 17.44270530367296 10.323530852884529 2.9409903537046924 1 1 0
2440 1 25.329974068333172 9.40229049738675 0.8085424824303008 1 0 0
701 1 22.96790482498022 9.03572676578169 2.2535892232147283 0 0 -1
1351 1 26.437451709245263 10.837981469064506 2.6361945625443712 0 0 1
2025 1 6.104872207594827 6.396301768310837 1.6624804259327293 1 1 1
2292 1 33.40246607526851 9.32023755875876 2.8490834412925934 0 0 1
3070 1 38.11626053247255 12.403027925970234 3.328572525722537 -1 0 1
2192 1 11.239813851911032 7.3621083010524195 1.2533102197294421 0 -1 1
793 1 40.95826387300539 10.397801888558195 1.9547257491361587 0 0 0
2920 1 49.76249527942586 11.464930896705328 2.9285630831316114 1 1 0
764 1 31.724882638979956 0.515437674907062 13.149387418575246 0 0 -1
154 1 1.4930777987611241 0.7465230927408956 12.52937812657113 0 0 0
2033 1 5.021564218377169 2.033871713004341 2.6322957668469527 0 0 0
48 1 6.192035814290346 24.241063228662156 2.691641526865899 0 0 0
3417 1 9.871981772596984 13.922188954481317 2.6528656051419763 0 1 1
2219 1 8.652620207488438 14.384414574857379 5.219683252696033 0 1 0
2099 1 13.02564059991622 16.817540154803655 3.2560898163819227 1 0 1
2290 1 16.64044506604347 8.36605776416513 15.91250841387696 0 1 0
256 1 35.19556739380526 24.21219513375384 4.607888323165878 0 0 1
1727 1 21.879335030912515 12.28347291805697 0.5807579692918177 0 0 1
2057 1 23.44294368218578 12.72235011841837 2.885967663636153 0 0 1
3344 1 24.182017663375607 15.481227147846285 3.2636764084081906 0 1 1
1726 1 27.688253487160143 13.105221238710865 2.051887784709393 0 1 1
170 1 33.91393808708622 11.643454258103029 1.2857374597751625 0 -1 0
2821 1 30.438684499693977 13.263950419082368 2.0268064826536483 0 2 0
123 1 11.500655655851288 21.561799125215934 0.8880298853417543 1 -1 0
2964 1 35.67657808869477 13.506482191065961 2.200308797726095 0 0 1
2121 1 40.109877846562426 13.862680589876412 2.812137190741162 0 1 0
3517 1 46.649402681199035 13.717414096519905 1.0712092635672208 0 0 0
3317 1 44.38646422568766 13.445055336402516 2.265393295427939 0 0 0
4092 1 11.767932033179237 0.7060450635539615 4.289540399861087 0 1 1
2000 1 48.87158262810921 14.083138680532615 3.1871115150545952 0 0 0
1053 1 49.54377829476587 17.880039518998576 2.203013170372915 -1 0 0
1381 1 2.7052660364436725 17.376649645088026 3.6841405531861016 0 0 1
2582 1 16.481783091429804 8.064329086470773 0.38975008219511786 1 1 1
3728 1 10.526049788554051 16.628998519864798 1.5238394613867927 1 1 1
3082 1 15.933665833799495 13.632117155700934 2.613299043011787 0 1 1
3847 1 19.0597722481895 13.17500765579348 1.072894400503137 0 1 0
2336 1 19.11597521728241 16.36594072596256 2.061727412687467 1 1 0
3535 1 19.811860997724175 18.676916377181186 3.539929902491244 0 0 1
1928 1 24.34659857117703 17.09910566194612 0.9184002108043103 0 1 0
522 1 26.626618707777958 19.664905580825167 0.5403676564006756 0 0 1
686 1 27.900955191321394 17.781011763757327 2.073290691363861 -1 0 0
2880 1 3.8642560359298885 10.289527251198724 1.3577735761128127 0 1 1
1678 1 35.22411586396234 18.438160758187312 1.7981204569494404 -1 0 1
3133 1 32.23333369417625 15.377310398403619 2.537571264045304 -1 0 0
3216 1 21.929631173258972 5.406633909630821 0.14335472001647437 0 0 0
1370 1 38.50388478862355 15.97053448277649 1.9269332700770536 0 0 0
1043 1 41.42089362022094 18.710773276311986 3.549992039230094 0 -1 0
2041 1 44.2355916347918 17.67080631273387 1.8290979080082783 0 -1 1
381 1 5.170441735663587 18.7918678852762 2.0174807132640655 1 0 0
64 1 8.450627080412112 17.86314186166966 2.922562437145888 0 0 0
601 1 12.454148944496955 21.15262719741305 4.846898614068184 0 0 0
3825 1 15.256369393969733 18.505415487641724 3.0332420370858566 0 0 1
3531 1 17.13203566792833 20.471193756519476 0.7944517154388429 1 0 0
1435 1 39.906629153489575 18.017675402512662 0.8241838322468674 0 0 1
307 1 17.716611491471504 20.073300317085792 3.656634433291245 0 -1 0
541 1 21.420305321258205 19.903821748491495 1.601131883106832 0 0 0
3636 1 24.334821729321334 20.235638941545997 2.1479809880066187 0 0 1
4001 1 33.930866284795954 20.506145298093518 2.683445864705869 0 0 1
2244 1 13.49719865096526 8.631009992151345 -0.08741554245591696 0 1 0
2211 1 38.19376223726398 21.814637566321153 2.5668784183272537 0 0 -1
809 1 43.50739578339942 20.396197698374195 1.4973941644253006 0 0 0
401 1 40.60236689391678 20.781088767340584 0.9592105198567251 -1 0 0
3146 1 45.36671640050308 22.185725363467405 2.565089818997247 0 1 1
375 1 47.84350392060958 19.637892498032436 1.1899547162062711 -1 -1 1
1183 1 -0.03137725534698538 24.42360537103225 0.5059988197747574 0 -1 1
3814 1 16.95236265971752 17.448166396102366 0.9718193006201274 1 0 0
2443 1 7.540113082621741 22.5651113632214 0.6901050212499737 1 1 0
171 1 38.75728209094028 23.856124254006165 7.2054382050576296 -1 1 1
1069 1 15.492944399180056 23.02898948311406 3.482897049596698 2 -1 1
3116 1 3.285045136981063 8.7528893358307 15.475691460111452 1 0 0
1323 1 4.265039722828386 24.60751939057255 0.5098814793663146 0 -1 0
578 1 29.07010908498674 21.146077132362436 0.7333953954694034 0 0 0
3672 1 21.247155776501714 0.7418924665473932 14.98111958832339 0 1 1
1983 1 23.6757650981587 23.13529857742881 1.3584744677430942 0 0 0
2388 1 26.286539934729692 22.932530901989573 1.8959330935585497 0 0 0
1483 1 29.88447215374486 23.895141289478303 1.48101414856168 0 -1 1
1028 1 13.87656877584707 17.328877759215715 16.191720050140866 0 0 0
1142 1 38.65418292590974 24.50112323561479 2.6451395322205946 0 0 0
407 1 46.43508022984368 23.58725456974379 0.1767113288886844 -1 1 0
1374 1 48.47004521656186 22.40861785145993 1.1345971326559965 -1 0 0
3569 1 3.646439769581353 2.88638866153407 6.420670754488396 0 1 1
2619 1 5.861980815469653 1.2166760653151427 5.240031032816168 0 1 0
608 1 9.377387122734394 0.6542827098078927 2.6750805692085002 0 0 0
2277 1 46.41795398348356 18.841104570401168 16.012884645194166 -1 1 0
535 1 2.119464120221599 6.529694800159544 0.1827869909563431 0 0 0
3800 1 20.283710551029937 2.1817070780263736 7.175447492294009 -1 1 0
3096 1 24.437434565062055 1.7410279525913348 4.635239895117189 0 2 1
424 1 27.45618789362174 2.8707815882119494 4.503593491429845 0 1 0
393 1 30.136184612019196 2.289470098486538 5.644766266606264 0 0 0
3099 1 32.32562690652459 3.145269455670137 4.044899671886632 1 0 0
3031 1 37.39335208326236 0.8914445787418315 4.6330476335732635 -1 0 1
2082 1 36.67519385779201 2.703304861410577 6.33379125639968 0 0 1
1776 1 40.182151032964626 1.1577791201883312 4.4137582819820045 -1 1 1
2090 1 37.994649547965764 2.321887280339328 -0.08249477600092474 -1 0 1
958 1 20.214356645900434 24.11769586837363 3.6579229176748767 1 0 0
4136 1 19.439840567962314 3.2823290096140743 2.9281115504936204 0 1 1
714 1 3.0500054193325847 5.002348710664994 4.789368982126545 0 1 1
3515 1 9.171189165229752 3.703288799430925 5.68946487298545 1 1 1
3580 1 13.217540059799136 6.986531665805363 5.353981366002964 2 1 1
1813 1 15.878903325935646 3.04431376439374 5.1346982865974296 1 0 0
4101 1 17.980331965926695 0.7125359040575551 5.713221058554147 0 1 1
653 1 22.57213308896532 3.3860101673826857 5.668966310863725 1 1 -1
25 1 18.638468530505417 4.553476114977696 5.315008301475168 0 1 -1
1054 1 22.608685031595332 6.002956519144624 4.942688240010814 0 1 1
698 1 24.66025821519985 6.0306774753641434 7.1700254508397885 1 1 -1
1491 1 26.50081211652742 5.3168958138487685 5.167806410688672 0 0 1
3708 1 28.858131445973783 5.814423603558557 6.901288699048464 -1 0 1
2455 1 34.180286835447205 4.079550810420265 5.919445585953599 0 0 -1
3633 1 33.19493755996082 4.252474405361855 8.82704484828172 0 1 1
2823 1 39.04067564220817 5.968977845060458 4.340732606329754 0 1 0
770 1 42.50441804727568 5.3601140674475225 6.1072962605468435 0 0 0
1956 1 45.75715428743082 2.4798800441376696 6.035146563380377 -1 0 1
98 1 47.65892545986671 1.8407395248215317 8.19545143692846 0 0 0
1944 1 48.45428246179125 5.391902899592938 5.74548474791255 0 0 1
3247 1 4.893654331283148 8.761883023504058 5.62800838058162 0 1 0
3831 1 8.42743016063704 6.318822096550064 4.95336456181128 1 0 1
2652 1 15.665312788797117 6.027544314419893 4.340722091565479 1 0 0
2430 1 14.969708543159268 8.510945833306108 7.84160973073113 0 0 0
1130 1 17.706013602848866 7.80735692926968 5.20227137810633 0 0 0
696 1 29.930236018378338 7.19798854057185 4.708084663194519 0 0 0
2522 1 32.28886829040198 6.62162635460158 6.5385851752395885 0 0 -1
2461 1 35.00042718426205 8.398973055346048 4.917781809061345 0 0 0
3228 1 37.3970441573496 8.51529807361528 7.0416315018034386 0 1 1
2950 1 43.87741885901107 8.490958943281793 4.869261187252618 1 1 1
1527 1 48.626683458705756 8.4627941391094 4.723283037943054 -1 1 1
1917 1 46.51642381371488 9.493932304439175 3.3672551813923937 0 0 0
3662 1 0.7211458010071043 10.98212907374238 5.373661335501777 0 1 0
1384 1 5.898309648140961 10.308075100026858 3.600697369769891 0 0 0
3562 1 6.195561748553212 12.949154707364212 9.093633077260227 0 1 0
1575 1 13.566620234850603 9.828127738642856 5.327996556766869 -1 0 0
954 1 14.293340601805983 10.15949293702494 2.399462184698177 -1 0 1
3998 1 17.43751551899719 13.3090895984574 6.771498793121673 0 1 1
3072 1 18.95685954583014 12.540956691266608 3.911769313944565 1 0 1
2878 1 21.419692506270234 12.024567499646528 4.88275091481818 0 1 0
3929 1 23.782671953982693 10.274657905744322 4.841229831038678 1 1 1
1346 1 26.449597657953486 11.280103149593108 5.6227734460294725 0 0 0
3921 1 30.842872167760692 9.575846068751625 3.7854947130969863 0 0 0
928 1 30.5114484419565 12.181416429917615 4.898811645201284 0 0 1
68 1 37.572999511413485 11.935388970527475 5.925030916603192 0 0 0
3731 1 39.85992200583364 10.44204303314913 6.6570663213194035 0 1 0
1320 1 41.95836170395144 10.92685604953921 4.480854666948452 0 1 0
1167 1 45.17700491479849 7.895081780478179 7.086382171569893 -1 0 0
214 1 44.92937901860792 11.632824447842609 4.238668670916388 -1 1 0
3596 1 2.2135185767825956 13.12003034499356 6.195694724851516 1 1 1
3902 1 4.958106297123261 13.425842884727944 6.530148297632823 0 0 0
357 1 5.592276542758242 16.28472570532595 3.52895662444396 0 0 1
3205 1 7.59011328367777 17.002574286686162 6.050725427374067 0 1 0
2574 1 9.96774777291588 12.440845288967358 6.361072462136783 1 2 0
995 1 13.749824115701573 14.17505152301188 4.109921343186441 1 -1 0
3321 1 18.001880299973 15.102293463488861 4.16639707502263 1 0 0
3018 1 22.207452731526352 14.410251962256009 6.041477943595101 0 1 1
1866 1 23.563084548052586 17.370485897701784 5.4630988855769385 0 0 0
2781 1 26.74832851667031 15.234166224631204 3.614036713470842 -1 0 -1
985 1 28.211704453798127 14.108506824970396 5.624969532560997 -1 -1 1
2713 1 33.16107249378426 12.60168667787664 5.972501412838947 -1 1 -1
3406 1 34.265507493738866 14.443307014122011 4.177268694288674 1 2 0
666 1 42.13728403817349 12.785420796571339 6.195108276539737 0 0 0
1976 1 41.69405292182975 15.139009496705317 4.867285116585486 -1 0 1
2269 1 44.29959112659748 15.986206230499146 4.07974574111628 -1 0 0
3622 1 46.389852610448 15.920474695866769 5.745629626577399 -1 1 1
1525 1 47.37001059033577 12.83244836480533 5.0678451734514685 -1 0 1
2454 1 0.8507446883132412 15.111387372817013 4.604397869834047 1 1 1
383 1 2.8958445843712184 17.75407485073314 6.4066973141571655 0 0 0
2157 1 11.882264932603038 18.011275220185944 5.366825639421495 0 0 1
1094 1 15.734087284147646 15.238903967225085 6.340399221763651 0 -1 0
1646 1 20.073878269403558 16.373211238823924 6.075373726872477 0 0 0
673 1 23.960402805596363 19.882811988673986 4.6522168892804014 0 0 -1
2042 1 27.66914724316882 18.032805136436217 4.956773113219798 0 1 0
4039 1 29.533340740359368 16.877169115731707 6.2431276096299495 -1 0 0
3242 1 31.9996827139333 17.06124318939379 4.883844678351577 0 1 0
3681 1 36.63439667540507 16.965872595618503 3.7362710059086304 0 0 1
2139 1 35.96102669496199 15.810548743190374 6.102650977139305 1 1 0
1114 1 39.798313597936 16.65661867855634 6.158501047474974 -1 -1 0
517 1 48.447932953230506 17.42385273480939 4.712340850053974 -1 0 0
3267 1 46.25258898278314 19.243562734042364 3.485576179875966 0 1 1
2828 1 2.6327585890912557 21.414594420375316 3.166730406451041 1 0 1
2274 1 1.4434206991332637 19.369723775371067 1.5215333425400632 1 0 0
846 1 5.048886913962338 20.770533190459236 4.275233393951822 0 -1 1
4150 1 9.684433310639582 19.666068479968374 4.719533324063066 0 0 1
3749 1 13.531596589844511 19.839781854803793 7.258876758561227 1 1 1
2916 1 13.834545014364094 20.877962993920207 2.6765301224207687 1 0 1
2984 1 15.964483832330071 18.27358412729219 5.865680535047755 1 1 1
452 1 18.131571765727372 19.905244306769603 7.312769291454457 0 0 1
1372 1 20.8462489286923 19.271733824928802 6.126444099171599 1 0 0
2236 1 26.471602004817235 20.49611905207577 5.130427994746485 0 0 1
713 1 28.563719073147706 22.26039260178453 4.274994981783729 0 0 1
4068 1 29.52950710411186 20.007144765346528 3.280810352119406 -1 1 1
3735 1 32.098252987871504 19.724778462025952 4.380868195222333 -1 1 1
3916 1 35.9242142693078 21.64781474917474 4.205044500479277 0 1 0
3864 1 38.610805654654826 18.67809587267562 4.636001701352733 0 0 2
1292 1 40.67353086776069 21.32939782071896 4.3354722372750745 0 0 0
3522 1 43.800411398796854 18.767540566703342 5.163392380526367 0 0 0
1751 1 48.351284393673836 22.891467536319603 4.061781844469414 -1 0 1
2510 1 2.188146544934714 23.832246929257757 2.0727130143335173 0 0 0
476 1 5.418278628901035 23.41051269345917 5.4230514041360856 0 0 0
1224 1 9.772235457615647 21.96669077960568 3.139568047638324 1 0 1
855 1 32.8748745127632 21.147943039016585 -0.13240533332163443 0 0 0
2934 1 9.546067737937422 23.88205939235124 5.08284550654808 0 0 1
2153 1 15.822635768288965 23.65996355779103 0.6718929389280817 0 0 0
1765 1 17.48446482807552 22.263233798757938 5.327773629861387 0 1 1
2793 1 18.927258130179307 24.633948035949064 6.383181529859256 0 1 0
1952 1 18.558256689659533 22.790187401777022 8.421370651342215 1 0 1
2967 1 22.604464429098723 21.681982029600185 6.264503538441118 -1 0 0
2561 1 22.82304484954799 23.4919539641415 4.240945043174039 0 0 0
2026 1 27.201625743307616 24.85217297489281 3.497147052859323 -1 0 1
5 1 33.41173082013016 23.45299801773132 6.569196388882959 0 0 0
1696 1 3.272298544474394 15.187518356846912 1.9271142015172176 0 0 1
1744 1 42.166948445115835 20.613598358829343 6.665069496850239 -1 0 0
3858 1 42.37244719616393 23.62107962395301 4.251074518317983 0 0 1
1974 1 15.77307231731992 -0.019460615252076097 14.019903507883667 1 0 0
3106 1 44.05024563978567 23.896961906637326 16.32928691175198 -1 1 0
896 1 0.5606767472899664 1.669354803631184 9.825103168315438 1 0 0
3886 1 39.95290588279519 1.7569601544300006 15.475321297539951 0 2 0
2590 1 3.4046566746218128 4.627134512369762 8.369455716184813 0 1 0
2 1 7.664709287240554 2.9682370088669816 9.444595433783041 0 0 0
1521 1 40.31008504944171 3.8156692226933098 0.9053622579169052 1 1 0
3202 1 10.309107145318567 1.792353952022279 9.397724853614235 1 1 0
1281 1 37.4171333536555 24.496004313408594 14.288772141182768 0 0 0
3047 1 25.726581389511477 0.9101110750889376 7.065832890704617 0 0 1
4045 1 28.357934499133577 0.5773537430303681 8.29006144252966 1 1 0
4114 1 32.97307030216328 1.4603851665165126 8.974093995574478 0 0 1
780 1 38.69616992141515 0.6372151915844723 9.094109429473471 -1 0 1
2743 1 35.991039076089365 0.7574845643625799 8.571596601320977 0 0 0
3325 1 40.64253304240525 1.0722263127611147 7.151034043613231 0 1 0
1233 1 22.720061395633692 23.878664726064958 13.250741104066753 1 -1 1
1704 1 48.17237255603513 0.6089268047737534 10.84879047119427 0 1 1
3217 1 42.183221787366136 3.0145406143148232 10.93292176584226 0 0 0
4055 1 2.3165899169580007 0.3831829868867098 6.549188091513728 0 1 0
3747 1 49.69964605539545 3.6725519666058077 7.736612479047774 0 1 0
2029 1 5.563457874914105 6.623249649362721 4.60966299504174 1 0 1
3174 1 5.914515245759481 6.13812162285377 8.713216044368794 0 1 1
4087 1 6.63695999309127 3.721116191708518 7.08621336235604 1 0 1
3074 1 13.72234381104687 4.306022495324642 6.839393323197195 0 0 -1
372 1 14.59607704108245 5.983644011604438 9.106064998859159 1 0 1
2749 1 15.227066522202202 1.2114835294853274 10.16100989621957 1 0 1
1801 1 18.38776081760808 4.20270135174408 8.087781442836532 1 0 0
3390 1 21.859244927933037 3.3151667375193883 9.504282763073482 -1 1 0
1645 1 24.301690525252162 3.405581826067949 7.980695092796916 0 0 1
898 1 26.77467190051906 4.291651961745578 9.524443671873321 0 0 0
3498 1 29.212961781354476 3.234721549298986 8.535627280170798 0 1 0
2024 1 37.465532092082086 5.3055270351836805 6.5530171266807775 0 0 0
3740 1 40.874295670203324 7.786266471479114 5.520333758963817 -1 1 1
201 1 43.821666067838535 4.902345567856538 9.493227415618394 -1 0 0
2884 1 48.138730971616695 5.399430512301324 9.528171521918752 1 0 -1
2485 1 2.3484877980923264 9.24085658865537 6.622329165157491 1 1 0
4005 1 1.136005149406315 6.875437534743797 5.603342773824803 0 0 1
761 1 2.2282719456727187 8.590029110973537 9.103757157772442 0 0 0
2304 1 8.715301703037436 7.9675044978355185 7.054384589886124 0 0 0
4131 1 9.86054706014538 6.035325929541963 8.717458069515928 0 1 0
3160 1 10.952645975859811 4.0582802385318715 7.4713751404731 0 1 1
3218 1 16.349202405949395 7.091187804792597 11.60287885008159 0 1 0
3055 1 17.866734331452783 9.94780157781153 7.01790324089331 -1 1 1
2489 1 20.06090987475481 6.949416019712139 6.212850312645284 0 0 0
1504 1 19.393050827279783 6.674621665977579 8.900951516611748 -1 0 1
1135 1 23.008130478359828 8.609204891816198 6.874859160355378 0 0 1
3204 1 27.022570964260158 7.186769268560016 8.626404139233761 1 1 0
414 1 32.1641938825278 9.714293848967055 6.483581868227376 0 0 0
3309 1 33.26937522297706 8.990848184436558 9.162628174629946 -1 0 1
887 1 35.024418242963804 6.771523937002498 7.818260112105042 0 0 0
2088 1 38.02172512260185 9.622015904422977 9.723632850273791 -1 0 1
3206 1 40.2713802694591 7.630100612116297 8.260724412716513 0 1 1
571 1 42.42907282441605 7.177151110408236 10.051613342899174 -1 0 1
2662 1 43.553870902956106 9.664733512999991 8.694577087330156 -1 0 0
1950 1 45.8244745180521 5.1853988424353386 7.704577814005275 -2 1 0
2268 1 47.69181811930612 9.25827407335937 7.1587564683495595 0 1 0
1352 1 48.61157695776316 8.170250680954423 9.612003481344036 -1 0 0
3715 1 49.816966558607774 12.544494188353648 9.486506092455791 -1 1 0
3173 1 6.2587689571331735 8.757184170022096 8.09670595610134 1 0 1
3421 1 9.046168423222987 13.618994966460965 8.662787928919466 0 1 1
2346 1 10.86847064425522 9.654226898816809 6.997751204459166 1 1 0
2060 1 11.858606911902772 9.951242064641743 9.537975053329443 1 0 0
3840 1 15.04272513864801 11.673092281880987 7.105931679655231 0 1 1
1564 1 18.981082086776812 13.510089398558211 8.8977858442787 1 0 1
2464 1 20.560276930704063 10.247961808635788 7.017441944118509 0 0 0
1554 1 23.5770495222046 9.32778944114456 9.396142173648608 0 0 0
396 1 27.3598722763086 9.746110513901375 7.762130201565974 -1 0 0
2398 1 25.76856404520894 11.09281485017984 9.732977934839676 0 0 0
3898 1 29.913290048355815 10.311516318798299 8.177940203128509 0 1 1
42 1 35.32576259820489 10.802192346186304 6.27286246499038 0 0 0
859 1 35.31660031226214 10.780370412802405 9.343428080396768 0 0 0
2776 1 40.88214304800431 10.66756031629087 9.647834976052058 0 1 0
1317 1 48.901394000426706 11.754186928327456 7.014953690125369 -1 0 1
3289 1 1.4833438987954821 14.17860799808747 8.733148263315412 0 -1 0
3817 1 3.6039450202856167 13.277171594182253 10.195271360984625 0 0 0
1654 1 4.355833562432312 15.24610226273373 11.668370401704815 0 0 1
3014 1 8.943479980844733 16.582599716656038 8.46732502508484 0 0 0
1099 1 12.671113482119116 13.48810297154815 7.020883762014083 0 0 1
73 1 13.011707609152282 15.096774189710718 9.522950803825625 1 1 -1
3423 1 17.52118852819416 14.41158736394282 10.953547144490123 0 0 0
1367 1 15.054312463362367 13.28258829401726 11.003669843710917 0 0 0
614 1 21.388523915077982 16.124623170118323 10.146597018922403 0 0 0
2679 1 25.191563980034854 13.77444757085545 6.427770511814322 0 1 0
3363 1 25.39024508021463 13.654462633369386 9.179825167642935 -1 0 0
2640 1 29.972135015566607 12.942439638062316 8.89408376546535 0 1 0
1800 1 32.54770525290722 14.153919708385802 8.165665786715103 0 0 1
1552 1 36.92180247207466 14.897529725984569 9.736105653378345 0 1 0
3779 1 34.47590819415838 13.46095271297651 10.070806972638284 0 0 1
3560 1 37.86080026571307 14.494674967826393 7.204426640529911 0 1 0
3399 1 40.34659984270925 13.354399567262726 8.487357277269131 1 0 -1
1192 1 42.47872084607498 15.327366511635324 9.084684572421288 -1 -1 -1
3006 1 44.574272181657435 11.85245286872803 7.41658798250266 0 1 0
2645 1 45.04674179371244 13.827892239758242 9.147628324138022 0 0 0
1432 1 0.362802050989669 16.567013478894562 7.03270757705201 1 1 1
989 1 2.7236979911822603 20.74001112417028 11.644746107833832 -1 0 0
1628 1 4.911363882814749 16.011735928049195 7.301272428936441 1 0 1
1954 1 11.344320827246344 16.379625797153015 7.5672664584473495 0 -1 0
3066 1 14.661695112550381 19.768437628452908 11.24610535564892 0 0 1
1092 1 15.75034445560145 16.087508165358674 8.970162412008277 1 0 1
111 1 18.855207089869463 16.642121679640717 8.630541526973388 0 0 0
2021 1 16.375995679289787 18.777787398730833 9.220345391974012 0 0 1
579 1 21.943401021685986 18.47589218387778 8.839631549536524 0 0 0
3050 1 25.810991789762806 16.708042489934098 6.61804115474503 1 0 1
3546 1 27.904266539674452 14.838670685110932 8.215176238189718 0 1 1
931 1 29.54854346054156 18.11234241632172 9.120936329538882 0 0 0
745 1 33.18556508405169 16.760288356353374 7.382265721724868 0 0 0
1746 1 32.400293997643146 18.339716957113737 9.414593735648506 0 0 0
2819 1 36.00377341719012 18.180625717472275 7.945200076898333 -1 0 1
1729 1 40.967606908734865 18.032411971185443 8.106726895690684 0 0 1
2579 1 46.26433798944289 16.290109141242116 8.412251266194367 0 0 0
459 1 43.942460853889 17.999526696968157 8.409409819166301 -1 0 -1
2477 1 48.9961987763123 19.011823789242044 7.036696099055592 -1 1 0
156 1 0.8600032954430188 22.113128251968917 5.399609180642967 1 0 0
3291 1 2.4783555444393626 21.439025059827255 7.393212289137836 0 0 0
1939 1 4.607069091197826 19.636977301252404 6.953922062953237 1 0 1
544 1 7.829360729916214 20.212044476098242 6.591407947571917 0 0 -1
1128 1 11.15723866964999 22.008219118874262 9.046755440267717 0 0 0
1223 1 11.046508674465185 19.259731288094624 8.752107941724038 1 1 0
2428 1 14.817459070639483 22.538621601181582 6.786452174632771 0 0 1
3862 1 24.776946878170293 18.434730116386852 8.6569033499877 0 0 1
231 1 25.83489480706448 20.785784129361062 7.829936372604423 0 -1 0
2101 1 28.422150038573445 20.624652480200833 8.87946595922749 0 0 0
2214 1 32.7789257165563 21.088529386688034 9.376077627621443 0 0 0
2881 1 37.295302956858194 20.419592849677205 6.564695822960407 0 0 0
1523 1 35.434858566259706 20.791153590450843 9.330798635758121 0 0 1
754 1 44.00442502853707 22.51172716327927 7.411147669324421 -1 -1 0
3227 1 46.92174947121171 20.56502273169649 5.990049075233171 -1 1 0
4010 1 0.7507979818727492 24.54115888986969 6.739884110625566 1 0 1
3248 1 3.8209818344099986 23.93527915931895 8.184182023598254 0 0 0
3923 1 7.669689323800917 23.019746221684912 6.801799780926453 0 0 0
2056 1 11.652306308863377 23.28539797357568 6.707149061512802 -1 0 1
3002 1 33.25493859561139 24.731848501298686 11.687260205455015 0 0 0
2426 1 15.583701296241042 23.703954823697302 9.364409944173861 1 1 0
2475 1 21.50040533696539 23.86428542817729 8.484272282593965 1 0 0
2759 1 24.143765037410645 22.75987003296454 8.708500011816144 0 0 0
3186 1 30.020558478214603 16.95593494869514 0.5865551748434035 0 0 0
1887 1 29.097293727571515 22.723900623691367 6.926883726571587 0 0 1
286 1 31.554316479727227 21.380898038018785 6.649106659574318 0 0 0
3631 1 35.94523472823795 22.877156364418276 7.4711934038681695 -2 -1 1
1901 1 39.53900616158103 21.1244634820272 8.00195726944912 -1 0 0
3693 1 43.677938574918954 24.005924948168037 9.62489495055588 -1 0 0
2891 1 45.46879977312497 23.850787342163848 4.941534276974652 -1 1 1
2535 1 7.48276676846046 19.862351393931263 1.153276092500494 0 0 0
52 1 45.679478886802656 20.275687028927905 8.594030833971017 0 0 0
3504 1 39.67707622652571 1.1142363668699367 12.446918979580728 0 0 1
625 1 0.8778820493527726 2.357387022145267 14.627983416534345 1 1 0
3436 1 2.894610021669509 3.8113982817625796 15.351593221685425 1 1 0
1723 1 5.568577713491341 2.3135200918068817 11.205999395907822 0 1 1
2755 1 9.456830160906952 3.0954274114801286 12.638232402695287 0 0 0
1544 1 12.367737289834695 2.0443625531439737 11.223384593807662 1 -1 0
3139 1 17.765259738854237 2.3020785218521405 10.006342761527266 0 1 -1
3801 1 19.688167172891596 0.36294851527677485 10.219001677976088 0 1 1
2480 1 21.66060791734393 1.7404983594444963 11.958970631876992 0 1 0
285 1 24.371236014922726 1.2168133568508441 11.667456548864351 0 0 -1
766 1 28.91440287996986 1.180051214941375 12.463756435012757 0 0 1
520 1 41.40817955398671 17.588112374940987 15.509851420519514 -1 0 0
2250 1 30.842197721296234 2.7828429047891006 10.732551596909436 -1 0 0
2616 1 36.54853341386372 2.2938984602988093 11.465471040522202 0 0 0
3089 1 39.142163824447834 3.458789153053069 11.214061048562243 0 1 -1
1338 1 41.72051457321619 3.551357332024616 8.195896129321776 0 1 0
4170 1 19.37618761672349 8.877433184857221 15.957892597055341 0 0 0
2483 1 46.814856902442045 2.4748900686607573 12.662788438995129 -1 1 0
1503 1 18.199137890674287 0.80272408053527 13.87806039512312 1 0 1
3752 1 1.040302673813875 6.283578220495515 8.41906179418969 0 1 1