LAMMPS data file via write_data, version 29 Oct 2020, timestep = 800000

4175 atoms
1 atom types

-0.13372214113315906 50.13372214113057 xlo xhi
-0.13372214113315906 50.13372214113057 ylo yhi
-0.13372214113315906 50.13372214113057 zlo zhi

Masses

1 18.015

Atoms # atomic

2266 1 48.78262014775761 20.240791110633445 0.41739563754899456 0 1 1
486 1 18.76101086865679 22.049308412134078 0.9622790893570443 0 0 0
699 1 21.908003867585883 12.768770569695153 0.20335917043407437 2 -1 1
984 1 34.739344587958215 0.7338522400717623 10.483392589636349 0 0 1
2328 1 18.080454919013338 0.8192642401373745 2.6506224499558875 0 0 0
2472 1 31.450778963262895 4.970489374501619 15.950437387172418 0 0 -1
349 1 19.442697025378095 3.136139860397295 2.7532440265511116 -1 1 1
2934 1 35.32235270111785 11.14277734250968 0.46340018469004796 0 1 1
2554 1 9.197615035792698 3.5450172838436416 0.03888304591318306 1 1 1
600 1 34.688109070254654 0.6679775049553809 2.3686108584660324 0 0 0
3477 1 33.72531333506333 5.195673589601584 2.4848422519247664 0 1 0
3571 1 13.706727133368382 23.350360879341125 9.51544198901148 -1 -1 1
1053 1 28.71824603616372 2.350617868120844 1.3540397153701902 0 0 1
3023 1 41.0893684803234 2.840531321412143 2.0168591913182614 0 0 -1
3924 1 39.70908701189494 13.663746009512737 16.487116479317145 0 1 0
1864 1 15.898767752073429 1.438764327102911 -0.019962002907718268 0 1 2
3382 1 16.72634782247907 23.89344871216419 0.9125551815780846 1 0 0
2225 1 1.1199331397898356 4.303670587059332 2.4650596831453346 1 2 1
3715 1 7.942476316988602 5.5573619588775784 1.833507211157702 0 0 1
1476 1 7.7819366197903665 2.5852060972058286 3.003990671915331 0 0 1
2650 1 10.752847823734248 7.645455371837717 2.1433031765314197 0 1 0
1810 1 13.365195144387144 4.2568547234465415 0.6918454911498325 0 0 0
1268 1 15.568329292309716 4.676776563597794 4.102291978120512 1 1 1
3756 1 13.654199664720187 0.8468948460208141 6.436203866581345 -1 0 1
1444 1 27.126619050706974 7.673838767432463 0.22872911466481832 0 0 1
598 1 24.294288631861146 4.149076950676586 3.63894678671981 -1 0 0
780 1 29.851364470938396 4.214726149826829 3.2072458923342264 -1 0 0
1043 1 22.59358601551202 23.54655400993898 6.5801129968168075 0 0 1
1240 1 35.09693134190597 7.527376329825866 0.8545969112835656 1 0 1
1032 1 30.330247522390223 -0.1055217085046678 13.80690897849063 0 1 -1
1979 1 42.36971442610506 5.009835619915012 0.9607213285237712 -1 -1 1
1862 1 43.082141248498075 0.681831606772647 1.9888199246744356 0 0 1
3583 1 44.573488612522254 2.9315754377471466 2.0803643377820626 0 1 0
3936 1 27.839009929680326 0.3606316554481653 12.74609811623228 0 1 0
2844 1 48.73842866790301 6.961024296169064 2.7322210210426205 0 1 1
564 1 3.2975718435167587 5.87051866371889 2.9220574704528404 -1 0 1
4175 1 19.77544132179695 14.042401497406255 15.765250846721198 1 1 1
3389 1 12.214917229710121 5.447706642570871 2.9486515919041874 1 0 1
3109 1 15.044789986661895 10.218050339144794 5.358124612900739 1 1 1
3390 1 16.246169103765666 7.714614676118068 2.7900118448914704 1 1 0
2000 1 23.157070425722967 5.977224453034618 1.0413756751670034 0 0 1
2317 1 25.76068486086078 6.538133838081865 2.588569491107581 0 1 0
3404 1 29.93590326878551 7.386791342367652 0.37708961684323583 0 1 2
3093 1 14.595606405973792 2.205076157253127 2.159101404915945 1 1 0
1177 1 33.63480067276927 9.459518796131237 2.696538916844461 0 0 0
3047 1 4.694207688510897 3.0202863499047847 2.0950521264287407 0 -1 0
3301 1 38.90351811777521 8.31391274581492 0.5677253599484682 -1 1 0
462 1 37.49804352315711 7.385894259962675 2.6355810062790908 0 0 0
2943 1 24.096648801599446 23.557082326819415 14.100727718931987 0 1 0
1235 1 40.86457230082681 6.7363889566819966 2.163913508926448 0 0 1
2580 1 45.1646452193075 6.1584923712562825 1.4570811678533875 0 1 0
1863 1 46.06807669444484 10.83010142253507 2.86326288697158 1 1 2
2097 1 48.745473427262795 10.044851217610287 2.6414116586442247 0 1 1
99 1 46.89434526745349 4.0181808032868505 3.992328846957925 -1 0 0
2954 1 1.791987051499497 10.877112361943105 1.644967412232931 -1 1 0
30 1 4.515629374830111 13.028921509490916 2.3273354607293073 1 -1 1
2481 1 17.419121493389724 24.197011155348928 9.579486142989342 1 0 1
2828 1 7.739616304000535 9.222566414376354 0.5328176508954631 0 0 0
223 1 20.93300968456003 23.2907953550178 2.1972024258644463 -1 0 0
3464 1 12.70322219080414 9.586275637529614 1.3820940371253618 0 1 -1
3528 1 15.44485791303096 9.433800540209184 0.8169577559005703 1 0 1
1973 1 21.335016070514204 9.063863719325592 3.2313084917278045 0 0 1
264 1 19.898468527596588 11.048945109050928 0.34240216477111224 0 0 1
3029 1 25.920499976692117 10.244558203429511 1.3419093156402455 0 1 0
1184 1 25.53927168887076 9.714885466965963 4.205897082411147 0 0 1
3932 1 31.183589730100817 11.499827808039335 1.2644319852829717 1 1 0
2564 1 30.76238036981211 9.946669290027684 3.7991559403065245 -1 1 0
4144 1 34.4034120916305 13.085072722995902 3.5654454516390697 0 1 1
3090 1 43.41980461760093 13.242171324925437 1.3655681049647803 0 0 1
4087 1 46.369737767325674 13.293530609229121 1.6872123883378642 1 1 0
3886 1 6.63612176151257 24.941038970134827 1.7396048110341396 1 1 1
1294 1 47.228538320158094 14.239532452324333 4.404660593064873 0 -1 1
1836 1 1.869201311893006 13.783159805606005 1.1030876758234258 1 1 1
3242 1 7.505691531257438 12.869170118647645 1.5242673441775112 1 1 0
2857 1 32.176020467127955 0.7774160626107456 11.969163471100183 0 1 1
3534 1 13.215984215418663 14.205186293446513 0.28161061434847845 0 0 1
2497 1 15.291865854039154 12.383379504141004 1.1207978819088575 0 0 0
3 1 17.542129906411095 13.953811269166318 1.2071088734311899 0 0 0
3440 1 19.32148629471462 12.274756094511247 2.902535966884917 0 0 0
2600 1 13.77048658009968 24.428617035035582 15.170770263447043 -1 0 0
3450 1 24.539133141727167 14.780060950420483 2.259955009265735 0 0 0
3699 1 26.098380075212873 13.258095953350251 0.4917901542699916 0 1 2
2668 1 28.93533065558157 13.21389778822817 0.603413283643415 -1 0 0
2538 1 33.48357218583064 13.041899000284067 0.8906331797973053 -1 1 -1
1412 1 33.43449447163097 15.550396789002981 3.9993640579201797 0 1 0
2617 1 39.324565607532065 15.509651818733367 3.160470515301243 -1 1 1
1627 1 42.64889557113206 15.474892490299728 0.09276673763487958 1 0 0
3817 1 47.233859276547676 0.26625275963955636 14.213662466701257 0 0 0
2776 1 24.401382484323566 21.25230476533412 0.2770664421830398 0 0 0
4120 1 45.013256558698174 8.875044467684065 1.4030254782007157 0 1 1
467 1 3.966321800233284 15.778217961429302 3.3693247952392227 0 0 1
3082 1 38.70218553424067 19.137766690316653 1.8742839746611986 0 1 0
2982 1 6.983225725877906 15.812964677277918 1.2329879062753313 1 0 0
3951 1 9.70627776752939 16.7354869875291 1.5038421092027952 1 1 1
3319 1 16.923449512838957 16.188188494243466 3.067628404030835 2 0 0
3452 1 17.817881972842102 17.850140436242164 1.301445347522716 1 1 1
145 1 24.029999803805154 16.511670186923315 0.23558715622688764 -2 0 0
3959 1 28.099264246226635 18.33343973883866 1.3780505516028076 0 0 1
1830 1 28.868284749903026 15.772350537065964 2.9740531879195484 0 0 1
1039 1 32.9024399294309 16.088693907657838 1.1853731181440041 -1 0 0
3015 1 34.69985167255919 19.149726472945776 2.372953018067497 0 0 1
2184 1 27.123435320456036 0.1305885849241295 5.11638897283195 0 0 0
4090 1 9.150693473504376 23.78077397753252 2.0768510851612962 0 1 1
3150 1 36.90095503982468 20.067712124833474 4.07168181819165 -1 1 1
3481 1 43.55937544575485 17.33772972767511 2.1577418805299455 0 0 0
458 1 25.30867097353012 20.642122665222672 16.49563243526893 0 1 0
582 1 47.531792616594046 16.79503669932092 3.828237163914967 0 -1 0
2981 1 5.502962491430675 18.229709321196648 0.6816134091059474 1 0 1
1560 1 2.789577952401802 23.24557293417606 2.3805063437870753 1 1 1
1849 1 8.270869878799711 21.34649713543284 0.8938123165170102 1 0 0
1360 1 6.754212810764196 19.80006257300326 2.52600350033159 1 0 0
2843 1 15.653960657092851 0.9642243452103969 4.483387135914962 0 1 1
1081 1 11.661180003081984 20.282672569820754 1.3081518203920472 0 1 1
1829 1 12.506814315384824 17.494587876127625 1.387183484508032 1 -1 1
3210 1 20.150969860055255 17.494571632614242 -0.048064248139467525 -1 0 -1
2664 1 18.09135032036926 20.15744612145493 2.894944720800334 1 0 0
2938 1 47.74045884990012 1.9158550877572282 1.1311407878829784 0 1 0
4006 1 22.0967449656461 17.77660496330527 1.9691173556235637 -1 1 0
2432 1 23.96080166964849 19.75688202108374 2.6160575175461185 0 1 0
2216 1 29.348221216019006 15.851159806456176 0.022935309882722826 1 -1 0
1778 1 29.33118219844998 20.808329449532827 0.2611956890210531 -1 0 1
3431 1 31.926612471922713 18.990452677801127 3.2313886098827362 0 1 1
1908 1 42.53500264651548 20.43070558131297 16.021553889421472 0 -1 1
1653 1 41.77497740285054 19.434250521162845 2.493112859926455 0 -1 1
4132 1 46.28403368296571 17.945058526035925 1.4701602323467906 0 0 1
2709 1 37.56412571230196 11.846075449451455 2.0706078415556495 1 2 1
2876 1 1.595421138232055 20.697591251394087 1.740402793028619 1 0 1
2939 1 4.909179577272697 21.374442844040434 3.877677345089878 0 0 1
3219 1 11.71471844015682 24.454133410623253 2.358122134062153 0 0 0
385 1 14.87662632826709 24.023445052388812 2.833895542474079 0 0 0
3252 1 15.339256227145398 20.94817671016802 3.561319796844589 0 1 0
4049 1 20.70296650636013 22.186467383481787 10.76560029765291 1 0 1
42 1 22.46758556281311 21.470049636049787 4.015324117810419 0 0 0
1122 1 28.21235350895754 20.997929878699253 15.460468786681053 0 0 0
2833 1 28.248518193443505 22.668801496704877 2.593157994416374 -1 0 0
1579 1 30.41496277901633 23.97535092863814 3.487633138027796 0 1 1
1204 1 30.64714767877247 0.49000916079181767 0.5464431790008608 0 0 0
685 1 34.00834332714395 22.10634467184687 1.7643507205965985 0 -1 0
997 1 34.90815483143248 24.54631279432426 0.6968811940891217 0 0 1
3091 1 6.29307278997537 0.6835497481509373 0.6656127135359297 1 1 -1
678 1 41.51357746946816 22.16984906014139 1.9551698161525963 -1 0 0
2659 1 40.1559313823865 23.815017099567363 4.051558203139855 0 1 1
141 1 45.459567566690325 22.356856982547992 0.66016392934985 0 -1 0
2349 1 33.05888886439743 0.06718568151437804 8.065292282289592 -1 0 -1
552 1 46.197496015361935 20.508240385243354 2.891704640290417 0 -1 0
602 1 15.966236356015205 5.692624574235908 0.36716328734509096 0 0 0
3044 1 39.83080907197139 15.733799838252175 0.5154938595121124 0 1 0
1459 1 6.694701621266386 0.00976085584219577 3.8423425713200716 1 0 1
4100 1 4.776048930779344 24.70394932841488 7.021710046565105 0 0 0
128 1 12.428633311899082 0.41967491230431175 2.0880227252888712 0 0 1
3658 1 4.988212296119508 8.53344009811761 1.3079036404998954 1 1 0
3284 1 8.65906336742656 23.80056362038668 4.836825806217953 1 -1 0
3963 1 5.177305700981017 0.3829901922207821 8.138331285680609 0 0 1
1995 1 25.76228509968621 2.067364360082534 2.570357743474054 0 0 -1
1905 1 31.325840018312157 1.954526427414017 6.726019437318552 0 -1 1
2111 1 32.247311410021055 2.9670475461130197 3.7256830554392444 0 0 0
3133 1 34.270864508782665 2.6378657274935735 6.147054381491786 1 0 0
3590 1 46.02834614243095 22.408973022833976 15.140693129341905 -1 0 1
1543 1 2.930981997606201 23.89395489865879 5.274098166544011 1 -1 1
314 1 25.536916478435135 1.691921882765737 16.438736624974034 0 0 0
1029 1 39.44308003969297 3.6102949070618786 4.257938458052525 0 1 0
150 1 49.41420410214715 2.063429011941633 5.428857653142019 0 0 0
698 1 46.944033031628805 1.6803850721633669 6.127912518815962 0 0 0
1027 1 49.667855089349004 4.503444763162189 4.254628933001075 0 0 1
3154 1 2.22342370689182 4.066899168959195 6.982573469025708 1 1 0
493 1 4.589459997446157 3.1976785278599977 5.155474394233047 -1 1 0
337 1 11.56739387925447 4.413972500628138 5.32286902918788 1 1 0
1804 1 10.730563012924152 2.8793756299789384 2.8407130735660577 0 1 0
13 1 14.12255678066239 4.35635902836267 6.534146410586153 0 0 -1
4130 1 14.841403996366424 7.049996815354901 7.105455031718896 1 1 0
3266 1 18.225781098914673 5.299785670449041 4.541945028809757 0 1 1
2811 1 20.150068576521974 3.7623857821710347 6.02386831260452 -1 1 0
4050 1 21.99643485011835 2.6092460247278315 4.074032290117951 -1 1 1
1680 1 22.562088643478916 0.6501945776696799 5.7835855115240005 0 1 1
289 1 27.709512566202978 7.256796531024756 4.555208991935001 0 -1 -1
2820 1 32.75309356906031 6.957786373250257 4.113094043842564 0 0 0
3816 1 36.488006440449496 4.732403214405559 2.8274199817096246 1 2 0
2120 1 37.44606856207544 2.1198500148453334 2.1794849001520995 0 1 0
3619 1 41.26802258130449 5.697098271262159 4.877338025114229 0 0 1
867 1 43.669553127645116 3.7416629343793426 4.453311974973214 -1 -1 0
1652 1 0.7303401089039108 6.334311169284195 6.002373108841103 0 0 0
1366 1 0.7818701379045097 4.2457476005428685 9.274079965158702 1 -1 1
1859 1 4.686163098143107 6.090021488514962 5.353101161952492 1 0 1
3458 1 8.997085706381894 9.960267997649856 2.829617601201986 0 1 2
1340 1 9.808828990699553 12.478576608789371 3.699567196180794 1 1 0
1887 1 13.970296772888236 7.306937769586159 4.377633126133675 0 0 1
1675 1 10.71500120598025 9.09021589384882 6.679232412458515 1 0 1
1773 1 17.857808710322537 6.444950542643008 7.3034001067116945 0 0 2
2226 1 19.051671846064387 7.332514221544447 2.91097603311907 1 0 0
2277 1 23.499876850368402 7.480756688348134 4.0900694800387 0 1 1
1491 1 26.277671070165237 8.242292269144249 7.100651961082656 0 0 1
3620 1 25.71137569728953 4.371398889174368 5.979434732558752 -1 1 1
829 1 30.17894410050347 7.253337044867795 3.0211516101851505 0 1 1
790 1 31.175449374881254 6.9475332339383895 6.50072234367508 0 0 0
1682 1 34.48748869482567 6.469203603060011 7.170973802224794 -1 -1 0
1414 1 34.83501173435623 8.889649184514974 5.279151326908279 0 0 0
1438 1 37.5375070771174 9.089274372483061 4.731194454972476 0 0 1
852 1 44.324703759799746 6.441173771816268 4.308047336447418 0 0 1
417 1 46.89994061426643 8.513051283226885 4.942212088871653 0 0 0
974 1 1.7111891370770753 11.167391987501945 4.849277479267453 0 0 1
2771 1 2.0976173734806047 8.391155122769682 4.920653293983574 0 1 0
2407 1 4.949384613989091 8.856993225845057 4.233545286966015 0 0 0
779 1 7.67227063981276 9.128612651030013 5.357329414530001 1 1 0
2068 1 7.885534904720785 12.335461750241553 5.948897247485699 0 1 0
2685 1 12.066542886175778 10.106717309321832 4.481919465947966 -1 0 0
1421 1 15.960367090885512 10.096281740450488 7.901796241631237 1 0 1
1974 1 17.665033900600616 9.958624406209962 4.213834994429458 1 0 1
796 1 23.077152823248074 11.306170066116787 4.576904250192079 -1 -1 1
2357 1 28.408597622054486 10.185252810511512 5.850316841853518 -1 0 0
3675 1 31.789581331126893 11.38137903595014 6.064416841381255 -1 1 1
1662 1 34.55239026812244 11.660406362102329 6.194397482560277 -1 0 1
3967 1 40.14179316887612 10.595954113947649 1.0675212030481862 0 0 0
3937 1 41.27727542212398 13.901574784777315 4.914672473093754 0 0 0
3130 1 37.15752386533609 13.993182275732446 3.809640706924055 0 1 1
31 1 42.47113486392857 8.983801498856048 2.44595872848846 0 1 0
2191 1 45.293246852377294 11.030728181224072 5.684346244102426 -1 0 -1
877 1 49.38960757188829 12.12576577957156 4.561273998677941 0 0 1
299 1 0.1368671989678777 14.398609339475215 3.026582396278747 1 0 0
522 1 2.951710320408342 12.42298370778681 6.982813232310886 0 0 0
82 1 5.050349814799166 11.379081301770608 4.80850404896074 0 0 1
2031 1 5.682688893537679 16.3622376713312 5.436830477787007 1 0 1
3106 1 10.639681442186674 13.990305691260414 1.3989303650752527 0 1 0
4016 1 12.309509236493051 13.112876953689936 5.0145358364752575 -1 1 1
3064 1 15.037513991807813 12.477457812858875 4.063447544765861 0 0 1
1499 1 17.510591145518845 13.639317788607661 4.672817944257987 0 1 1
4085 1 22.088894161169573 13.543916790220038 2.8712990513933043 -1 0 1
3852 1 25.3809356341211 12.695624615358621 5.450848184581048 0 1 0
1160 1 30.080654520032773 13.323166087154936 3.634962910526837 0 0 0
178 1 31.646043152502678 14.316072955223708 6.230121975336559 0 1 1
229 1 35.72977999583999 16.769118470859706 4.987081775176856 0 0 0
2364 1 36.77068003325306 16.94501456545965 2.2180404988445663 -1 0 0
2649 1 42.93316016331572 11.556553453645089 3.6711559449993993 -1 0 -1
820 1 0.01989198771579087 15.812993021031383 6.875784301350643 1 -1 0
2449 1 2.9393071146295995 18.3330206537586 2.287054894640589 0 1 0
2447 1 11.477458848246552 16.48404649991842 4.510884142800388 0 1 0
2480 1 12.533665023919486 16.012314680911555 7.2071557172338 0 1 0
741 1 13.895026028105647 15.333810654478029 3.0252289944073607 0 -1 0
2774 1 18.33667320286626 16.549885395358576 5.399877702999469 0 0 0
2721 1 22.26747140707814 13.87243398124972 6.3958653465547926 -1 0 0
2215 1 22.418501066202108 16.158380408259482 4.2875164019273635 -1 1 -1
226 1 26.29661786817823 15.08885638094269 4.359490654807801 1 0 0
3354 1 25.89410402526206 17.24146603085607 5.976394319052164 0 1 1
3522 1 30.934510996158366 16.725947863409093 4.4043675868799905 0 0 1
2669 1 29.00149636356926 17.79089376267902 6.380045516902812 1 -1 1
1957 1 37.7360120917519 18.771414378189526 6.9424362998479605 0 0 2
1466 1 39.429402294083175 18.24960167340421 4.596413218543293 0 0 0
1884 1 43.2816877725996 15.964730963121415 4.837762729587577 1 0 2
3204 1 45.73260169766644 17.30697805985562 5.754464867140957 0 0 1
3323 1 -0.050980078965027154 17.11881111436009 2.687215051768826 -1 0 1
3175 1 49.50680076685349 20.286413456584455 3.4196968496384144 -2 0 0
3177 1 1.8307023046128672 19.544081278475648 5.137781147032503 0 1 0
3200 1 5.995059442214021 19.78599231825255 6.4118635390125185 0 1 0
2075 1 8.860788942572087 18.21290520870129 3.6174554264717766 0 0 1
528 1 11.056442529790068 20.213924085422423 4.282527601722743 0 0 0
670 1 13.661362421593306 18.65344076024841 4.245052150205842 1 0 0
3278 1 20.01815185126037 20.862305360960576 5.026640028816948 1 1 1
2631 1 20.857478058897847 17.96092618489445 5.8144309808761685 0 1 0
2899 1 26.14489068526971 18.559735603189228 3.616863664960584 0 0 -1
1934 1 29.371578593162422 20.423820163274495 6.811942143732239 1 0 1
2507 1 31.552102694547532 21.011554863268223 4.8857084985650765 0 0 1
3908 1 34.73744043835288 18.37056716798722 7.1629165314011285 0 1 1
2955 1 36.07100126821446 21.879901761444245 6.221420552934284 0 1 0
3448 1 40.600461062739086 21.777325523586498 6.185932300696745 1 -1 -1
336 1 41.869030938231916 19.241859564421553 5.5794047516302525 1 0 0
2860 1 44.63954248270876 19.71508512106989 5.419065814909744 -1 1 0
4077 1 42.28666524792746 22.27811765627587 8.310632590778626 0 1 1
513 1 47.646942538491714 19.92663492968349 7.338037655443246 -1 -1 0
3437 1 47.89276950762374 22.634666403131302 4.093456744253642 0 1 1
2017 1 37.39158986449257 24.141328825993536 8.269452600612494 0 0 2
915 1 11.513488719264727 22.77590353458511 4.6124937370148835 1 0 1
3896 1 15.49718601008844 21.07850646241237 6.716814686924312 1 -1 1
1193 1 19.793181694098887 23.65187447743707 6.339852839765363 1 0 1
2020 1 26.032439698352423 22.98803228742176 6.270066192566859 -1 0 1
2478 1 23.967272525824 24.182902001521107 4.282106206155139 1 1 0
2117 1 27.38859599384103 21.154730413375912 4.4747899121499035 0 -1 0
12 1 44.68531196042686 4.302931101563229 15.436477950890492 0 1 0
2420 1 33.2622183828512 23.27238947120035 4.3241854838805605 0 0 0
388 1 21.094300847100662 0.09022127140705827 8.795960280953008 1 1 0
2575 1 43.82936309139777 23.189734577261227 2.9135814756578613 -1 1 0
2707 1 45.65676354240253 23.872799775396206 5.604569287350595 0 0 1
236 1 49.22846219427282 22.148602082763063 6.565997090419779 -2 0 0
960 1 1.1415265958635032 1.272639963180777 7.244999182987743 0 0 0
2306 1 14.942784111181302 15.320331010661405 14.862970133978164 1 1 0
3957 1 3.5255315766550255 0.5431244476952857 5.717246393770833 0 0 1
408 1 10.818042055498935 1.3200826687071983 5.314090000531165 0 0 0
2023 1 14.872415736122523 0.4173093404171657 9.43015174132342 0 1 -1
1592 1 18.006962458640547 1.6913935682062664 6.037335934150634 1 0 1
661 1 36.492164836201255 0.06597318970541569 16.311779486569346 0 0 -1
1931 1 38.92711565839022 0.3249611403882905 4.098584328173864 0 0 1
720 1 38.642135586136376 21.779485103285676 1.1298950082628412 0 0 1
4081 1 22.971706102925175 10.038224479614744 0.8501456055258755 0 0 2
727 1 24.984182388361695 1.6355723351715148 6.819971002952174 0 1 0
224 1 27.345827966510473 1.2978763395207655 9.086983251271532 0 0 0
3491 1 29.03924836655217 2.9272402596390195 7.565709981669831 0 1 0
2908 1 40.140226922992255 2.0486380007548286 6.407735265073216 -1 0 1
3043 1 42.94707902181 1.5105007906499115 6.619810868059246 0 0 0
2410 1 31.88053350226002 18.811997830600923 0.10541638201967435 -1 0 0
3565 1 48.56705141449149 2.551733062738622 9.395428649725236 0 0 0
2132 1 4.4706719377497315 4.343640861398091 9.04691735401005 0 0 0
1436 1 7.446905207548557 6.500545007021339 4.752697139003706 -1 0 0
456 1 7.121179665308775 3.1413548370309012 5.768182275563259 1 0 0
2766 1 10.203493901891845 2.2926612778336004 8.15820878230536 0 2 -1
2080 1 13.042756049581664 2.738991870627831 8.619259994442585 -2 1 1
3430 1 13.449393032521776 4.5960280841586885 10.786375564342208 -1 0 1
1078 1 4.465154493022222 23.631690237113375 0.2385952805394395 0 0 0
315 1 16.166294853341622 2.415323614008754 8.011150346442655 0 -1 1
1126 1 22.041016441493902 2.9585535673823964 7.948450348024464 0 0 1
287 1 24.02465778776298 4.945024554307357 8.242121844677916 0 0 1
795 1 27.708358530024586 2.8195285426187757 4.743104755309951 0 -1 1
1328 1 32.15157427269099 5.427730222258328 8.888630994545181 0 1 0
494 1 32.67989429357675 6.82208556568773 11.248587211607004 0 1 0
2653 1 36.15487718622775 4.887359885688162 5.625753848149494 0 1 1
746 1 38.740623706521376 4.998391750394654 6.810918313747179 0 0 1
2286 1 44.87081365945963 3.563381876460687 9.657959412442715 -1 1 -1
153 1 44.90553726013751 3.449343742146248 6.833966265942431 -2 1 0
4030 1 46.45686990942312 5.8290320432211065 6.564114698888593 0 1 1
2042 1 48.846363530860074 6.267876016913572 8.523854659838792 0 0 0
1395 1 1.8653312895339418 6.955828432099009 9.096390758847493 1 0 0
1442 1 7.02297324470597 5.5428270427223625 7.803178886187399 0 0 1
3784 1 9.91215656533975 6.3502603650130265 6.523854910790906 1 1 1
853 1 9.546371213954265 5.05886815403684 9.045205531094464 1 0 0
1562 1 11.435229934079906 6.540810949664455 10.456191390505314 0 0 0
946 1 20.871850450121737 6.299974521050734 7.851200027613817 -1 0 0
3595 1 22.366871947664414 7.02349566358743 10.55939727140364 0 1 2
807 1 23.806138297718284 7.315151582514674 6.765488829009641 -1 0 0
87 1 28.616467598354287 5.568461382968799 6.705304463000089 -1 0 0
1304 1 35.701122340849906 8.911177987528418 8.496242784094608 0 1 1
2991 1 39.50842613375117 7.644358549554328 7.74989485482218 0 1 0
351 1 38.39161808224091 10.069157849001172 8.47025676777245 -1 0 0
2243 1 40.44705636613858 8.394742301494329 5.2228517820159075 -1 1 0
4048 1 41.007138798048416 6.961015952755712 10.126866917028947 -1 0 1
991 1 44.94292638493805 7.839568608830279 7.99430022758043 0 0 0
3246 1 46.649935717746345 9.292491807511178 9.28168067795045 -1 1 1
3324 1 49.97961251231227 8.839042157999659 7.733244988297014 -1 0 1
2270 1 4.177619517186569 7.808891728210021 7.55739368503508 0 0 0
2786 1 6.485373068215693 8.236975189739908 8.755691583549376 1 0 1
1623 1 8.785224070320433 10.275816164517826 8.215970329002998 0 0 1
2962 1 12.688530135662782 8.016559274984893 8.525558130934893 1 -1 1
3352 1 18.12147094561538 7.450431103365017 10.9963242646445 0 1 1
3333 1 19.708907033738473 9.465149068021782 6.096548779499384 0 0 0
95 1 18.43295954660736 9.029190702074251 8.578093128869597 0 0 0
724 1 21.900683934829505 10.96754037583381 7.381383113187759 0 -1 1
265 1 20.943362989077148 11.060245741922728 10.276408184947874 0 0 0
515 1 24.4185774930894 10.162359477690956 8.57422941756923 1 -1 0
2775 1 30.216979214653445 9.369120974929398 7.918654522457496 -1 1 -1
663 1 31.1128319566775 11.932745830498288 9.230874769202389 1 0 -1
416 1 34.32966182461246 10.728606525707615 10.15118570525052 -1 -1 0
3161 1 37.527174999284156 11.985254171333027 6.344684791404317 -1 0 0
742 1 39.649758259887975 11.356178877368842 4.01828739701731 1 0 0
3806 1 42.74264834468558 9.627403505988141 6.708980888717426 -1 0 -1
1512 1 42.45623976026175 11.373240474813578 8.913966968087916 -1 1 2
781 1 47.71856636764396 10.449914160486355 7.224557409745521 -1 0 0
1861 1 3.2031306712616727 10.221247272029949 8.945758981702733 0 0 2
2875 1 2.0610644303281034 14.653713709566144 4.823950987766895 0 1 0
2663 1 5.650488340620127 13.943766165398058 6.850540960602459 1 1 0
3857 1 6.3884248853208945 14.505935393718053 9.842334049638888 1 1 0
933 1 10.334975749444949 12.334817170103424 9.1417619585712 0 1 1
1095 1 14.280583733839594 13.962379213162846 7.297085792945262 0 0 1
979 1 16.844131565854692 13.072289034255117 7.198307378916119 1 0 1
3254 1 23.887303565368192 14.444003743599973 8.62311491486432 0 0 1
2082 1 25.846420596578316 12.552157199003297 8.223828428262708 0 -1 1
3322 1 28.258058865315057 12.812364948877864 6.1423302091520044 0 0 1
3349 1 32.84017835603137 14.401133452718355 8.691905589926895 0 1 0
768 1 35.37429825029952 13.19816080014215 8.940176277942172 -1 -1 0
1187 1 39.71038078988046 14.11806303144312 7.4410939343464895 -1 0 0
2740 1 44.74574887220302 13.871570747649228 6.27469164672038 -1 1 0
6 1 42.75344968928286 14.44265632415397 8.422224031032835 0 0 0
518 1 47.37661967883051 15.132298380145691 7.675253720917509 0 0 -1
3508 1 49.198182713821865 13.033973242680874 7.668390438094473 0 0 0
2501 1 0.909717118370686 17.76546957267967 8.880588899410832 -1 0 0
1720 1 3.7229163968772956 17.95662683921432 6.838053198297458 0 0 0
994 1 3.007420959070246 15.348594973171554 8.809407745140662 0 1 1
4011 1 8.205007534496168 17.537276998864506 6.380244497655009 0 2 1
4046 1 10.147392862380306 14.135576270132898 7.1996235176749845 0 1 0
3111 1 11.407328676520969 16.59677565383972 9.913480066930822 0 0 0
530 1 16.33768880758331 16.406541423524427 7.319833151510128 0 -1 0
2670 1 16.069504951955704 16.603838317013796 10.275244451664285 -1 0 1
1646 1 19.61809291271279 14.89219369962319 7.441054066464454 1 0 1
2363 1 18.168884374283493 14.849222569971484 9.717398298802879 0 0 0
1741 1 24.983772879738773 16.937921985212153 8.528210988933806 1 0 1
533 1 29.560158789827238 16.663860821365592 8.87336685225882 -1 -1 0
3462 1 31.827385513798855 17.06937571635873 10.671111461642452 0 0 0
2746 1 34.20821615894252 17.174041711023413 9.418637974057582 0 0 0
1713 1 37.01623434953562 15.068856502497825 7.106080975625998 -1 1 2
1433 1 39.35882149054031 16.98431327518571 8.22815322029777 0 0 1
2812 1 42.03433983295213 17.13638327503737 7.495358615257094 -1 0 0
839 1 46.73358763000357 15.504547372461793 10.498972088764862 0 0 0
2614 1 49.4267453075266 18.332346833102523 5.816475645767785 0 1 -1
3080 1 3.1270498745271245 19.12610254431031 9.73131968681609 1 1 1
3972 1 8.570754009910786 16.10190670729845 8.893154632897431 0 0 0
916 1 10.176376081116643 19.876247928803483 7.150967809751995 0 -1 0
1010 1 12.29551889342242 18.900608194605482 8.994355863173578 1 -1 2
83 1 14.459404290219087 18.310471188663833 6.8854709512013565 1 1 0
559 1 14.506611190318406 20.69584783232383 9.218057217578464 1 0 0
4005 1 20.465402869009818 17.79542712245231 8.5123359553977 0 0 1
60 1 18.08551942048064 21.81368069128631 7.661558305657399 1 0 0
4010 1 23.54647032393734 18.957386430081325 5.847120846744146 -1 0 0
2495 1 31.079321933724646 21.55056460182932 8.988135831273109 0 1 0
3303 1 33.406796094970275 21.25809498250386 7.123072362535343 0 -1 -1
1041 1 38.46938195245589 21.235793862383474 7.762833658429574 0 -1 0
2038 1 40.74458262030099 22.41639083442228 10.70638683967187 -1 0 0
3580 1 43.489190804899806 19.522874421512295 8.613295151229165 -1 0 1
3512 1 46.64284043700991 23.45609829147509 9.463472540725173 0 0 1
2282 1 49.103041994064284 19.371136898212146 9.73544921425829 -1 0 0
3016 1 45.85269308624386 18.10950317684232 8.58938275430425 -1 0 0
2436 1 1.6310674579190252 21.919578136941897 6.550360574802414 1 0 0
1958 1 2.927185355789732 21.714872961079628 8.923272855485823 1 0 1
3793 1 5.932007713221909 20.924309903774493 9.41308986760175 0 0 1
1067 1 6.868780422328156 22.69210262669181 7.1047364646040725 0 0 0
884 1 9.287118704316795 22.160290631454387 8.374035542488915 1 0 1
3597 1 23.890818903278003 21.196193213515635 7.678377971228176 0 1 1
517 1 26.82049355305464 20.973366313192006 8.268014982852836 -1 -1 1
3131 1 32.440234139215576 24.188343522157744 8.746270139862228 0 0 0
2414 1 6.00174817229035 23.875076498252007 4.143509435152152 0 1 0
1016 1 35.285026542825705 22.631840988785275 9.248078570339212 0 0 1
3240 1 34.60873690841774 16.313618801283628 15.330897153445898 -1 0 0
2518 1 17.07942205747887 10.332978307332324 16.350934694030506 1 0 0
1345 1 49.66426783175608 10.674920351098399 -0.10129507205072266 0 1 0
3838 1 45.107205714605726 21.993130882592787 7.47923717305517 -1 0 1
1121 1 49.28261415059579 23.911089012254003 11.126826965132176 1 0 2
2809 1 35.622625344274624 15.733969988952525 0.08706916166243428 0 1 1
4110 1 0.7241412553746369 0.9834474631681227 10.773300064121454 1 1 0
1244 1 7.483852607983858 1.5554413793553206 9.503687082265177 0 0 0
451 1 3.8818934660651374 1.8139390964830917 12.617704531397917 1 -1 -1
3902 1 39.66943436935024 17.23503808269362 15.572071161939027 -1 1 1
1880 1 41.743186994357714 24.897002612469045 7.827368252305145 1 0 1
651 1 10.94427281120059 1.6109806548509225 14.304443233923283 0 0 0
218 1 15.207249183545045 0.9343304835729247 12.270486161474768 0 0 0
961 1 1.718770967217474 1.5907134136152181 1.6592531446980847 0 0 0
2886 1 18.211676606574464 0.9688626600200749 15.623607018444316 0 1 0
1984 1 37.50420237301327 24.69692520919962 5.452334981721779 -1 0 1
4149 1 28.923001049232358 2.7603296216092508 11.571303058059165 -1 0 0
1910 1 31.449977330972878 3.309725871117899 13.13597321084759 0 1 0
2406 1 1.1567017928627108 7.655273355462322 2.280882798132542 1 1 1