
# Create simulation box of size 50 x 50 x 50 Angstrom
#
lattice	            sc 1
Lattice spacing in x,y,z = 1.0000000 1.0000000 1.0000000
region 	            all block 0 50 0 50 0 50 units box
create_box          1 all
Created orthogonal box = (0.0000000 0.0000000 0.0000000) to (50.000000 50.000000 50.000000)
  1 by 2 by 3 MPI processor grid

# fill box with 4175 randomly distributed atoms
#
create_atoms        1 random 4175 63782 all
Created 4175 atoms
  create_atoms CPU = 0.001 seconds
mass                1 18.015

# Define potential
#
pair_style          sw
pair_coeff          * * ML_mW.sw mW
Reading sw potential file ML_mW.sw with DATE: 2019-02-27

# Run minimization
#
minimize            1.0e-8 1.0e-8 10000 1000
WARNING: Using 'neigh_modify every 1 delay 0 check yes' setting during minimization (../min.cpp:187)
Neighbor list info ...
  update every 1 steps, delay 0 steps, check yes
  max neighbors/atom: 2000, page size: 100000
  master list distance cutoff = 6.0032907
  ghost atom cutoff = 6.0032907
  binsize = 3.0016454, bins = 17 17 17
  1 neighbor lists, perpetual/occasional/extra = 1 0 0
  (1) pair sw, perpetual
      attributes: full, newton on
      pair build: full/bin/atomonly
      stencil: full/bin/3d
      bin: standard
Per MPI rank memory allocation (min/avg/max) = 4.255 | 4.258 | 4.261 Mbytes
Step Temp E_pair E_mol TotEng Press 
       0            0    7792709.3            0    7792709.3    5898794.3 
     630            0   -45180.336            0   -45180.336   -154.07449 
Loop time of 1.12836 on 6 procs for 630 steps with 4175 atoms

98.9% CPU use with 6 MPI tasks x no OpenMP threads

Minimization stats:
  Stopping criterion = max force evaluations
  Energy initial, next-to-last, final = 
      7792709.32924461  -45180.0188663597   -45180.336116598
  Force two-norm initial, final = 2.0191930e+08 4.9721331
  Force max component initial, final = 1.0948746e+08 0.73126211
  Final line search alpha, max atom move = 0.053306038 0.038980685
  Iterations, force evaluations = 630 1000

MPI task timing breakdown:
Section |  min time  |  avg time  |  max time  |%varavg| %total
---------------------------------------------------------------
Pair    | 0.88474    | 0.976      | 1.0495     |   5.4 | 86.50
Neigh   | 0.023808   | 0.02434    | 0.024682   |   0.2 |  2.16
Comm    | 0.034725   | 0.10823    | 0.20037    |  16.2 |  9.59
Output  | 0          | 0          | 0          |   0.0 |  0.00
Modify  | 0          | 0          | 0          |   0.0 |  0.00
Other   |            | 0.01978    |            |       |  1.75

Nlocal:        695.833 ave         704 max         685 min
Histogram: 1 1 0 0 1 0 0 1 0 2
Nghost:        1494.17 ave        1515 max        1468 min
Histogram: 1 1 0 0 0 0 1 1 1 1
Neighs:        0.00000 ave           0 max           0 min
Histogram: 6 0 0 0 0 0 0 0 0 0
FullNghs:      19997.0 ave       20462 max       19320 min
Histogram: 1 1 0 0 0 0 0 2 0 2

Total # of neighbors = 119982
Ave neighs/atom = 28.738204
Neighbor list builds = 26
Dangerous builds = 0

# Add velocity/set timestep
#
velocity            all create ${TEMP} 120598 rot yes dist gaussian
velocity            all create 215 120598 rot yes dist gaussian
timestep            5.0

# Define output
#
compute	            1 all msd
thermo	            100
thermo_style        custom step temp press vol etotal ke pe c_1[4] density

# Neighbor lists
#
neigh_modify        delay 0 every 1 check yes

# Set fixes
#
fix                 1 all momentum 10 linear 1 1 1 rescale
fix                 2 all nve
fix                 3 all temp/csvr ${TEMP} ${TEMP} 500.0 928347
fix                 3 all temp/csvr 215 ${TEMP} 500.0 928347
fix                 3 all temp/csvr 215 215 500.0 928347
fix                 4 all press/berendsen iso ${PRES} ${PRES} 1000.0 modulus 20000
fix                 4 all press/berendsen iso 100 ${PRES} 1000.0 modulus 20000
fix                 4 all press/berendsen iso 100 100 1000.0 modulus 20000

# Run 0.5 ns equilibration
#
dump                1 all custom 1000 eq.${NAME}.dump id type x y z vx vy vz
dump                1 all custom 1000 eq.liquid_density_MLmW.dump id type x y z vx vy vz
run                 100000
Per MPI rank memory allocation (min/avg/max) = 3.506 | 3.508 | 3.511 Mbytes
Step Temp Press Volume TotEng KinEng PotEng c_1[4] Density 
     630          215    824.17143       125000   -42505.327    2675.0087   -45180.336 2.7295415e-33   0.99914793 
     700    137.23011    53.967049    125381.68   -41684.458    1707.4034   -43391.861   0.25051474   0.99610636 
     800    170.21567   -54.958319    125397.09   -40941.392    2117.8065   -43059.199   0.58527158     0.995984 
     900     186.6307    102.17557       125187   -40524.119    2322.0407    -42846.16   0.99723084   0.99765541 
    1000    202.32806    192.01408    125175.22   -40266.401    2517.3458   -42783.747    1.3765251   0.99774929 
    1100    208.06015   -26.352827    125330.85   -40097.618    2588.6638   -42686.281    1.7957237   0.99651039 
    1200    207.87117   -128.13681     125302.9    -40142.33    2586.3126   -42728.642     2.154202   0.99673266 
    1300    209.30108    238.18207    125178.86   -40115.684    2604.1033   -42719.788    2.5532655   0.99772033 
    1400    207.98977    130.50215    125170.07   -40133.107    2587.7881   -42720.895    2.8326434   0.99779037 
    1500    208.38879    3.6185887    125123.06   -40090.133    2592.7528   -42682.886    3.2093777   0.99816523 
    1600     215.9317    351.16841    125277.76   -40004.799    2686.6009     -42691.4    3.5596459   0.99693266 
    1700    215.08637   -25.621207    125462.31   -40025.609    2676.0833   -42701.692    3.9288653   0.99546623 
    1800    210.85009    126.61384    125370.49   -40119.568     2623.376   -42742.944    4.3275281    0.9961953 
    1900    217.17673    181.28175    125279.77   -40132.082    2702.0914   -42834.174    4.6354988    0.9969167 
    2000    218.46593     18.69614    125258.26   -40106.833    2718.1315   -42824.964    4.8878724   0.99708787 
    2100    218.13501    267.06501    125348.19   -40063.379    2714.0143   -42777.394     5.242738   0.99637249 
    2200    213.52452   -135.55765    125288.38   -40114.234     2656.651   -42770.885    5.6112724   0.99684815 
    2300    216.10412    123.93392    125568.55   -40096.626    2688.7461   -42785.372    5.8255064   0.99462401 
    2400    214.45535    105.46279    125564.71   -40110.615    2668.2323   -42778.847    6.0032575   0.99465438 
    2500    218.99106    180.47232    125766.77   -40081.596    2724.6651   -42806.261    6.3742917   0.99305635 
    2600    224.44204   -151.24521    126054.53    -40043.15    2792.4857   -42835.635    6.7080843   0.99078943 
    2700    219.52865     130.5561    126022.71   -40084.579    2731.3537   -42815.932     6.985969   0.99103954 
    2800    218.91952    188.38082    126251.05   -40076.576    2723.7751   -42800.351    7.4198424   0.98924713 
    2900    217.64165    195.45393    126204.82     -40151.5    2707.8759   -42859.376    7.5456095   0.98960951 
    3000    213.58025    130.38185    126246.15   -40192.533    2657.3444   -42849.878    7.9131498   0.98928558 
    3100    218.39023    242.41812    126425.12    -40179.04    2717.1896   -42896.229    8.2242132   0.98788506 
    3200    213.17317   -2.9173603     126539.7   -40233.877    2652.2795   -42886.156    8.4646197   0.98699059 
    3300    217.24384    215.03734    126439.98   -40244.731    2702.9264   -42947.658    8.8160496   0.98776896 
    3400    213.38053    151.02508     126547.5   -40286.759    2654.8595   -42941.618    9.1301646   0.98692974 
    3500    214.94944     47.16206    126721.26   -40300.424    2674.3797   -42974.804    9.3927963   0.98557646 
    3600    212.15727   -91.171814    126582.88    -40346.85    2639.6397   -42986.489    9.5997414   0.98665392 
    3700    209.22848   -62.594682    126597.26   -40398.221       2603.2   -43001.421    9.7487897   0.98654186 
    3800     210.1403    47.369244    126615.01   -40332.058    2614.5448   -42946.602    9.9082944   0.98640349 
    3900    215.84134    78.886275    126655.98   -40361.471    2685.4766   -43046.948    10.223609   0.98608448 
    4000    216.79221   -92.243431     126511.2   -40363.482    2697.3072    -43060.79    10.355642   0.98721289 
    4100    211.36213    143.57569    126443.05   -40356.366    2629.7467   -42986.112    10.531663     0.987745 
    4200    215.44951    112.79453    126485.42     -40366.2    2680.6015   -43046.802    10.786857   0.98741417 
    4300    214.00572    51.375976    126556.23   -40362.352     2662.638    -43024.99    11.172304   0.98686164 
    4400    218.30758    78.246035    126671.93   -40359.548    2716.1613   -43075.709    11.363859   0.98596028 
    4500    216.63507    8.4529977    126495.97   -40382.264    2695.3521   -43077.616    11.371169   0.98733176 
    4600    212.19686    368.30505    126725.27    -40435.83    2640.1324   -43075.962    11.560546   0.98554529 
    4700    218.82868     95.40492    126985.25   -40360.532    2722.6448   -43083.177     11.73462   0.98352757 
    4800    210.08548    241.69345    127093.98   -40426.804    2613.8628   -43040.666    11.992489    0.9826861 
    4900    216.27923    161.27452    127019.95   -40296.735    2690.9248    -42987.66    12.046865   0.98325884 
    5000    219.70352    144.66681    127067.52   -40261.461    2733.5295    -42994.99    12.395187   0.98289079 
    5100    217.48763   -9.3178527     127130.7   -40332.309    2705.9596   -43038.269    12.525379   0.98240226 
    5200    215.44818    6.1174471     127163.1   -40388.585    2680.5849    -43069.17    12.691911   0.98215198 
    5300     217.5944   -132.63815    126923.88   -40371.206     2707.288   -43078.494    12.998855   0.98400311 
    5400    214.21261    105.15111    127121.28   -40409.603    2665.2121   -43074.815     13.22766   0.98247513 
    5500    214.57938    117.99701    127511.63   -40418.732    2669.7755   -43088.508     13.48572   0.97946741 
    5600    213.31533    173.74196    127736.62   -40420.114    2654.0483   -43074.162    13.577224   0.97774229 
    5700    214.87492    300.05355    127693.81   -40409.401    2673.4526   -43082.854    13.689502   0.97807005 
    5800    212.42277     247.0041    127750.28   -40433.293    2642.9431   -43076.237     14.04451   0.97763771 
    5900    210.92707     147.4766    127701.11   -40478.469    2624.3337   -43102.802    14.202265   0.97801417 
    6000    211.97776    47.232666    127682.27   -40482.655    2637.4063   -43120.061    14.543422   0.97815848 
    6100    215.44744    97.781905    127592.79   -40428.401    2680.5757   -43108.977     14.76442    0.9788444 
    6200    212.01633    88.679913    127617.94   -40503.822    2637.8862   -43141.709    15.044751   0.97865149 
    6300    214.13275    11.455676    127640.29    -40473.26    2664.2185   -43137.479    15.240918   0.97848017 
    6400    213.62225    78.447226    127692.16   -40451.121    2657.8669   -43108.988    15.432104    0.9780827 
    6500    213.32125     32.89962    127558.75   -40394.472     2654.122   -43048.594    15.599088   0.97910566 
    6600    214.53123    95.438971    127669.19    -40475.14    2669.1763   -43144.316    15.693749   0.97825863 
    6700    214.50333    52.358897    127697.47   -40545.857    2668.8292   -43214.686    15.768341   0.97804201 
    6800    216.98154    113.63422    127738.58   -40488.329    2699.6629   -43187.992    16.121751   0.97772722 
    6900    219.31444    126.83148    127768.67    -40452.23    2728.6886   -43180.919    16.235383   0.97749696 
    7000    218.44639    84.481168    127713.32   -40461.849    2717.8884   -43179.737    16.301202   0.97792066 
    7100    217.60496   -24.649855     127867.8    -40491.15    2707.4194    -43198.57    16.405951   0.97673922 
    7200    212.37458    101.43672    127745.05   -40543.033    2642.3436   -43185.376    16.646828   0.97767775 
    7300    214.52996    154.91815    127798.25   -40594.682    2669.1606   -43263.843    16.810018   0.97727077 
    7400    207.98397    198.58643    127801.55   -40626.083     2587.716   -43213.799    16.959735   0.97724551 
    7500    213.86085    71.938214    127748.57   -40607.841    2660.8356   -43268.676    17.263689   0.97765076 
    7600    208.72039     87.15425    127757.51   -40687.683    2596.8784   -43284.561    17.222731   0.97758235 
    7700     215.3817    41.826263    127957.05   -40593.089    2679.7578   -43272.847    17.344342   0.97605792 
    7800    217.99572    383.40873     128180.3   -40581.288    2712.2812   -43293.569    17.587278   0.97435796 
    7900     214.6499    274.04955    128286.75   -40653.678    2670.6529   -43324.331    17.716208   0.97354942 
    8000    219.89338    154.94212    128288.09    -40644.45    2735.8917   -43380.342    17.842649   0.97353926 
    8100     211.8392    154.32964    128450.99   -40711.824    2635.6823   -43347.506    18.000466    0.9723046 
    8200    208.14101    226.51551     128238.6   -40727.102    2589.6699   -43316.772    18.189392   0.97391495 
    8300    212.74453   -32.202126    128289.84   -40718.383    2646.9464    -43365.33    18.400547   0.97352598 
    8400    213.55685    153.02396    128346.99    -40687.98    2657.0532   -43345.033    18.489881    0.9730925 
    8500    212.29016    96.293353    128298.97   -40623.025    2641.2932   -43264.318    18.438778   0.97345672 
    8600    217.14095    287.66375    128534.24   -40640.505    2701.6462   -43342.151    18.603474   0.97167487 
    8700    215.52806    154.33805    128671.25   -40612.719    2681.5788   -43294.298    18.648976   0.97064026 
    8800    213.33768    130.60366    128629.84   -40650.065    2654.3263   -43304.392    18.850482   0.97095273 
    8900    209.79982    165.47254    128415.45   -40721.338    2610.3087   -43331.647    19.080459    0.9725737 
    9000     210.6423     192.3848    128383.37   -40662.432    2620.7907   -43283.223    19.360115   0.97281674 
    9100    211.19644    122.53443    128393.24    -40726.52    2627.6853   -43354.205    19.454152   0.97274197 
    9200    218.85321   -73.336247    128382.55   -40638.734    2722.9501   -43361.684    19.542676   0.97282296 
    9300    214.17154    10.445018    128173.39   -40692.916    2664.7011   -43357.617    19.682772   0.97441047 
    9400    213.05513    330.34179    128295.85   -40656.329    2650.8109    -43307.14    19.719298   0.97348037 
    9500    213.60054   -31.565644    128512.07   -40650.987    2657.5968   -43308.584    19.973586   0.97184249 
    9600     215.3495    183.44729    128707.18   -40615.865    2679.3572   -43295.222    20.265913   0.97036928 
    9700    218.16048    127.19484    128828.53   -40561.459    2714.3311    -43275.79    20.515543   0.96945521 
    9800    210.40446    128.48331    128840.25   -40632.663    2617.8315   -43250.495    20.706221   0.96936704 
    9900    212.12507    30.449021    128916.74   -40695.867    2639.2392   -43335.106    20.859398    0.9687919 
   10000     209.2399    172.12251    129059.55   -40702.126    2603.3421   -43305.468    20.979413   0.96771984 
   10100    211.48025    18.167897    128814.41   -40675.436    2631.2163   -43306.652    21.165879    0.9695615 
   10200    214.26701    61.839035       128986   -40725.352    2665.8889   -43391.241    21.105167   0.96827165 
   10300    210.54703    281.16118    128876.73   -40719.416    2619.6054   -43339.021    21.195437   0.96909268 
   10400    218.13792    339.29444    129004.41    -40655.59    2714.0505   -43369.641    21.259851    0.9681335 
   10500    215.60316    159.34176    129040.63   -40645.302    2682.5133   -43327.815    21.258983   0.96786173 
   10600    217.91592    226.28508    129077.19   -40585.487    2711.2883   -43296.776    21.455258   0.96758762 
   10700    216.07072    121.05107    129039.15    -40578.66    2688.3305    -43266.99    21.576685   0.96787283 
   10800    221.42855    66.889171    129113.04   -40577.358    2754.9922    -43332.35    21.885701   0.96731895 
   10900    213.04243    89.633875    128996.79   -40613.467    2650.6529   -43264.119    21.920873   0.96819068 
   11000    216.07542    280.49816    129231.89   -40612.878     2688.389   -43301.267    22.188838   0.96642931 
   11100    216.27061    71.260354     129242.5   -40680.205    2690.8175   -43371.022    22.346267   0.96634997 
   11200    220.14826    385.77723    129419.47   -40678.408    2739.0629   -43417.471    22.373836   0.96502863 
   11300    212.41118   -17.635107    129624.55   -40696.403    2642.7989   -43339.202    22.487769   0.96350184 
   11400    210.37443    183.51239    129657.44    -40704.81    2617.4579   -43322.268     22.44672   0.96325743 
   11500     217.4414    303.89198    129584.95   -40747.034    2705.3843   -43452.418    22.579824   0.96379624 
   11600    213.29399    156.12147    129628.69   -40753.371    2653.7828   -43407.154    22.780927   0.96347107 
   11700    219.03593    171.81161    129793.64   -40654.616    2725.2234    -43379.84    23.047591   0.96224665 
   11800    216.62509    38.997405    129795.67   -40737.442    2695.2279    -43432.67    23.314934    0.9622316 
   11900    215.54648    170.81317    129662.87   -40760.663     2681.808   -43442.471    23.166624   0.96321709 
   12000    217.23301   -2.7929294    129748.91    -40770.58    2702.7916   -43473.371     23.24623   0.96257836 
   12100    215.41249     176.3226    129409.09   -40713.185    2680.1409   -43393.326    23.270985   0.96510599 
   12200    216.57727    79.013403    129444.02   -40706.212     2694.633   -43400.845    23.442597   0.96484556 
   12300    215.88632    63.794562    129270.67   -40736.061    2686.0363   -43422.097    23.636284   0.96613941 
   12400    215.03316   0.36765146     129200.1    -40721.68    2675.4213   -43397.101    23.731123   0.96666712 
   12500    211.00301    73.773801    129244.36   -40805.472    2625.2786   -43430.751    23.830507   0.96633612 
   12600    213.76745    56.631812    129203.53   -40719.436    2659.6735   -43379.109    23.813642    0.9666415 
   12700    216.67332    160.63739    129280.43   -40680.461     2695.828   -43376.289    24.159058   0.96606649 
   12800     221.5926     32.69551    129286.31   -40656.334    2757.0332   -43413.367    24.208796   0.96602256 
   12900    214.54435    161.52289    129211.02   -40693.736    2669.3396   -43363.076    24.375314   0.96658546 
   13000    218.07361    95.738055    129298.74   -40630.283    2713.2503   -43343.533    24.507881   0.96592966 
   13100    215.88338    86.372017    129192.12   -40638.059    2685.9996   -43324.059    24.608765   0.96672684 
   13200    219.33724    216.14493     129069.5   -40568.302    2728.9723   -43297.274    24.869204   0.96764529 
   13300    222.47852    158.87345    129156.13   -40619.423    2768.0557   -43387.479    25.069751   0.96699621 
   13400    218.84743    148.08878     129204.4   -40719.436    2722.8781   -43442.314    25.044065   0.96663498 
   13500    215.77954   -30.949839    129099.68    -40761.61    2684.7077   -43446.318    25.137549   0.96741904 
   13600    213.75784    51.093785     129058.9   -40801.621    2659.5539   -43461.175     25.26016   0.96772478 
   13700    212.42098     79.47832    128935.37   -40805.082    2642.9209   -43448.003    25.304204   0.96865189 
   13800    215.74155    223.87657    128842.08   -40705.464    2684.2351   -43389.699    25.213502   0.96935324 
   13900    215.08758     127.9198    128838.23   -40747.827    2676.0985   -43423.926    25.322826   0.96938221 
   14000    215.57405    82.276012    129078.92   -40732.329     2682.151    -43414.48    25.555704   0.96757468 
   14100    213.85645    66.553741    129066.58   -40737.495    2660.7808   -43398.276    25.782391   0.96766713 
   14200    212.11681    131.66594    129112.88   -40769.569    2639.1364   -43408.706    26.041133   0.96732013 
   14300    210.19697    78.824373    128994.13   -40810.621    2615.2499   -43425.871    26.214846   0.96821064 
   14400    212.17057    110.27953    128989.82   -40769.711    2639.8053   -43409.516    26.348961   0.96824298 
   14500    217.88966    149.97291    129146.05   -40721.876    2710.9617   -43432.838    26.373063   0.96707173 
   14600     216.3151    191.54464       129197   -40737.663     2691.371   -43429.034    26.525275   0.96669034 
   14700    209.20612   -39.704704    129313.18   -40791.062    2602.9219   -43393.984    26.675188   0.96582179 
   14800    212.67871   -6.4752673     129383.3   -40845.419    2646.1274   -43491.547    26.833708   0.96529835 
   14900     207.9539    142.09209    129365.66    -40931.54    2587.3418   -43518.882    26.993717   0.96542999 
   15000    210.94612    123.72359    129335.27   -40949.084    2624.5708   -43573.655    26.908783   0.96565685 
   15100     211.1631    140.84076     129317.3    -40981.51    2627.2704   -43608.781    27.068769   0.96579102 
   15200    215.08507    112.98851    129219.86   -40919.195    2676.0671   -43595.262    27.163931    0.9665193 
   15300    214.22281      127.074    129329.43   -40927.443     2665.339   -43592.782    27.371053   0.96570047 
   15400    212.97202    189.10862    129201.35   -40908.566    2649.7769   -43558.343    27.500335   0.96665782 
   15500    213.93978    10.579532    129166.58    -40898.64    2661.8175   -43560.457     27.45814   0.96691797 
   15600    211.72109    108.20025    129142.21    -40829.87    2634.2129   -43464.083    27.482999    0.9671005 
   15700    212.70533    71.593378    129232.99    -40925.69    2646.4587   -43572.149    27.502796   0.96642113 
   15800    214.28604   -13.449623    129278.08   -40915.975    2666.1257   -43582.101    27.613697   0.96608403 
   15900    215.77214    189.34744    129279.25   -40955.876    2684.6157   -43640.492    27.748633   0.96607529 
   16000     214.6002     26.18078    129271.54   -40901.955    2670.0345   -43571.989    27.930874    0.9661329 
   16100    216.68846    261.27552    129297.62   -40845.208    2696.0164   -43541.225    27.755573   0.96593805 
   16200    214.26403    132.41824    129493.75   -40897.239    2665.8519   -43563.091     27.90136   0.96447505 
   16300    212.75313    66.576415    129469.55   -40918.347    2647.0534     -43565.4    27.879155    0.9646553 
   16400    217.29145   -66.621602    129348.18   -40833.953    2703.5187   -43537.472    28.100275   0.96556051 
   16500     217.0423    85.617218    129463.17     -40825.7    2700.4188   -43526.119    28.371767   0.96470289 
   16600    216.33768     87.24427    129499.24   -40815.984     2691.652   -43507.636     28.46862   0.96443415 
   16700    217.94403    157.86811     129471.3   -40835.608    2711.6381   -43547.246    28.640129   0.96464228 
   16800    214.61118    41.147128    129392.89   -40824.048     2670.171   -43494.219    28.621068   0.96522686 
   16900    216.90205    106.54964    129365.76   -40792.125    2698.6738   -43490.799    28.658799   0.96542924 
   17000    217.52643   -92.284633    129380.65   -40809.316    2706.4424   -43515.759    28.838661   0.96531818 
   17100    220.36351    152.41359     129390.7   -40741.769     2741.741    -43483.51    28.943164   0.96524317 
   17200    216.56465    12.325115    129338.96   -40767.761    2694.4759   -43462.236    28.905961   0.96562933 
   17300     215.2648   -38.043706    129313.95   -40835.178    2678.3034   -43513.481    29.091296   0.96581609 
   17400    208.94327    71.323001    129195.12   -40862.207    2599.6515   -43461.858    29.167502    0.9667044 
   17500    216.75309    166.92419    129324.17    -40844.95    2696.8205   -43541.771    29.256295   0.96573973 
   17600    220.87042    112.31212    129562.69   -40825.371     2748.048   -43573.419    29.484933   0.96396182 
   17700    214.22816    97.456063    129687.68   -40843.168    2665.4056   -43508.574    29.424019   0.96303279 
   17800    214.50416    40.879661    129949.89   -40857.872    2668.8395   -43526.711    29.593903   0.96108959 
   17900    215.01955    149.40785    129916.68   -40827.391     2675.252   -43502.643    29.722693   0.96133533 
   18000    219.19149    160.96273    130030.56   -40770.901    2727.1589    -43498.06    29.895905    0.9604934 
   18100    213.38913    104.78412    130128.41   -40859.528    2654.9665   -43514.494    29.842847   0.95977115 
   18200    215.79975    265.76786    130100.96   -40856.919    2684.9592   -43541.879    29.974063   0.95997361 
   18300    221.73661    53.088139    130215.13   -40783.064     2758.825   -43541.889    30.227855   0.95913198 
   18400     214.1302   -70.873629    130278.93   -40866.005    2664.1868   -43530.192    30.196966   0.95866224 
   18500    214.55042    224.78251    130168.24   -40818.086    2669.4152   -43487.501    30.340399   0.95947747 
   18600    212.84222    129.29707    130138.52   -40878.808    2648.1619    -43526.97    30.346613   0.95969654 
   18700    216.82344    132.68429    130131.42   -40852.998    2697.6958   -43550.694    30.465589   0.95974895 
   18800    217.45519    240.60452    130292.61   -40828.117     2705.556   -43533.673    30.523246   0.95856157 
   18900    212.13217    55.519554    130367.65   -40859.413    2639.3275   -43498.741    30.642622   0.95800982 
   19000    219.03639    151.00453    130397.53   -40843.144    2725.2291   -43568.373    30.773336    0.9577903 
   19100    213.33366   -18.474231    130317.66   -40899.658    2654.2764   -43553.935    30.812814   0.95837736 
   19200    213.35962   -79.289894     130337.4   -40875.052    2654.5993   -43529.651    30.903693   0.95823217 
   19300     220.5944    24.604926       130221    -40824.46    2744.6137   -43569.073    31.004787   0.95908873 
   19400    217.29403    114.49759     130239.5   -40838.907    2703.5508   -43542.458    31.147227   0.95895247 
   19500    214.42154    206.05774    130043.45   -40825.013    2667.8117   -43492.825    31.225335   0.96039813 
   19600    214.29141    74.809607    130037.53   -40858.355    2666.1926   -43524.548    31.327251   0.96044189 
   19700    216.23767    199.97404    130148.02   -40827.468    2690.4078   -43517.876     31.65673   0.95962654 
   19800    216.20368    35.764101    130150.29   -40876.462    2689.9849   -43566.447    31.614018   0.95960978 
   19900    215.65715   -21.408427    130064.61   -40893.483    2683.1849   -43576.668    31.782162   0.96024194 
   20000    211.81622    240.87376    130014.32   -40936.739    2635.3965   -43572.136    31.874393   0.96061336 
   20100    215.90277    43.617979    130078.82   -40920.236     2686.241   -43606.477      32.0619     0.960137 
   20200    213.33581    138.20038    129954.17   -40972.085     2654.303   -43626.388    32.047579   0.96105799 
   20300    215.21852    169.42094    129933.94   -41004.955    2677.7275   -43682.682    31.978941   0.96120762 
   20400    212.45808    159.14529    129877.08   -41011.672    2643.3824   -43655.054    31.976319   0.96162844 
   20500    210.89198    28.684626    129925.69   -40972.963    2623.8971    -43596.86    32.201317   0.96126863 
   20600    214.40354    139.85064    129985.34   -41000.168    2667.5877   -43667.756     32.28316    0.9608275 
   20700    215.31157     300.7896    129998.61    -40928.34    2678.8852   -43607.225     32.40091   0.96072947 
   20800    212.51723    67.813185    130070.74   -40936.247    2644.1184   -43580.365    32.539444   0.96019667 
   20900    210.83403   -13.305308    129956.78   -40966.055    2623.1762   -43589.231    32.559687   0.96103867 
   21000    210.90442    188.72021    129890.31   -41049.489    2624.0519   -43673.541    32.498763   0.96153045 
   21100    210.86564    146.05083    129964.44   -41062.958    2623.5694   -43686.527    32.588789   0.96098199 
   21200     210.9975    113.28717    129956.26   -41028.518      2625.21   -43653.728    32.695299   0.96104254 
   21300    215.63841    9.9826165     130006.9   -41035.502    2682.9518   -43718.454    32.845011   0.96066815 
   21400    217.20331    21.927026    129999.31    -41012.81    2702.4222   -43715.233    32.758923   0.96072427 
   21500    213.70579    19.289815    130091.26   -41013.154    2658.9063    -43672.06    32.861391   0.96004518 
   21600    213.74556    170.87157    130019.56   -40975.573    2659.4011   -43634.974    32.965138   0.96057463 
   21700    214.79417     180.6298    129919.56   -40947.961    2672.4479   -43620.409    32.892184   0.96131398 
   21800    218.15739    90.403732    129857.16   -40921.046    2714.2927   -43635.338    32.998592   0.96177595 
   21900    218.19991    221.12169    129990.01   -40945.732    2714.8217   -43660.553    33.332621   0.96079303 
   22000    214.49292    135.11625    129844.69   -40983.812    2668.6997   -43652.512    33.573271   0.96186832 
   22100    216.10215    75.058898    129794.42   -40928.661    2688.7215   -43617.382    33.494682   0.96224085 
   22200    213.22563    43.664886    129849.38   -40955.533    2652.9322   -43608.465    33.457333   0.96183356 
   22300    214.76364    106.02419    129964.61   -40925.249     2672.068   -43597.317    33.666052    0.9609808 
   22400    219.69798    252.49455    130076.77   -40890.828    2733.4605   -43624.289    33.833544   0.96015218 
   22500    216.16328    17.900309    130268.39   -40891.841    2689.4822   -43581.323    33.939319   0.95873984 
   22600    217.39602    80.411513    130059.47   -40851.689    2704.8198   -43556.509    33.876456   0.96027988 
   22700    216.22162    142.24819    130132.05   -40846.085     2690.208   -43536.292    34.112747   0.95974431 
   22800    222.22917      281.548    130162.63   -40822.711    2764.9534   -43587.665    34.275789   0.95951878 
   22900    212.98608    239.40379    130224.71   -40865.336    2649.9518   -43515.288     34.41396   0.95906142 
   23000    217.28192     8.662917    130159.52   -40844.675    2703.4002   -43548.075    34.561973    0.9595417 
   23100    213.51796    70.896984     130142.4   -40942.521    2656.5694   -43599.091    34.609779   0.95966797 
   23200    212.67026   -56.263103    130192.98   -40895.352    2646.0224   -43541.375    34.527983   0.95929515 
   23300    212.99705    36.200366     130036.6   -40932.694    2650.0883   -43582.783    34.851953   0.96044875 
   23400    219.28292    118.87199     130089.7   -40836.068    2728.2965   -43564.364     34.95723   0.96005669 
   23500    211.30171    189.86261    129951.85   -40882.174     2628.995   -43511.169    35.135179   0.96107515 
   23600    217.26457    83.837913    130084.45   -40870.837    2703.1843   -43574.021    35.216706   0.96009544 
   23700    212.70145    159.70582    130045.57     -40905.8    2646.4104    -43552.21    35.433334   0.96038252 
   23800    210.58947    111.34977    129851.15   -40971.804    2620.1333   -43591.937    35.543141   0.96182045 
   23900    211.57588    48.206852    129838.66    -40994.16    2632.4062   -43626.567    35.643976   0.96191296 
   24000    214.46227   -30.996042    129794.89   -40913.509    2668.3183   -43581.827    35.780238   0.96223733 
   24100    218.56394    143.56285    129877.67   -40918.721    2719.3509   -43638.072    35.773347   0.96162405 
   24200    215.47204    205.30516       130037   -40979.233    2680.8818   -43660.115    35.723135   0.96044579 
   24300    213.72959    90.207071    130010.34   -40962.278    2659.2024    -43621.48    35.862107   0.96064275 
   24400    210.76263    12.430809    129993.46   -40999.346    2622.2879   -43621.634    35.881891   0.96076749 
   24500    218.52847    40.537335    129850.02   -40970.594    2718.9096   -43689.503      36.0468   0.96182884 
   24600    216.41536   -17.086084    129886.84   -40960.762    2692.6185    -43653.38    36.158628   0.96155613 
   24700    209.86596    136.43729     129921.9   -40977.436    2611.1315   -43588.568    36.251489   0.96129668 
   24800    214.45172    179.17018    130069.71   -40958.481    2668.1871   -43626.668    36.339617   0.96020424 
   24900    218.19324    148.84673    130020.53   -40922.933    2714.7387   -43637.672    36.465681    0.9605675 
   25000    219.35891    306.86866    129959.01   -40908.207    2729.2419   -43637.449    36.359447   0.96102216 
   25100    219.25282     77.47857    130106.89   -40905.806    2727.9219   -43633.728    36.422363   0.95992987 
   25200     215.5271    20.745609    130021.59   -40934.521    2681.5669   -43616.087    36.470562   0.96055967 
   25300    214.23409    151.21086    130058.27   -40937.976    2665.4794   -43603.456    36.614969   0.96028871 
   25400    213.94003    247.91292    130035.95   -40923.283    2661.8207   -43585.104    36.835199   0.96045356 
   25500    217.24046    273.92609    130253.93   -40886.378    2702.8843   -43589.263     37.06901   0.95884623 
   25600    213.83977    60.448056    130257.26   -40964.664    2660.5732   -43625.237     37.26613    0.9588217 
   25700    211.53353    14.363981    130294.48   -40982.834    2631.8793   -43614.713    37.517035    0.9585478 
   25800    214.24255    188.16991    130333.45   -40969.354    2665.5846   -43634.938    37.510936   0.95826121 
   25900    214.93036    96.459574    130274.62   -40919.492    2674.1423   -43593.634    37.645314   0.95869393 
   26000    220.44855    91.460833    130064.51   -40855.387     2742.799   -43598.186    37.728902   0.96024267 
   26100    214.08637   -81.542391    129854.46   -40917.105    2663.6414   -43580.746    37.646643   0.96179595 
   26200    213.53864   -66.233954    129855.06   -40898.132    2656.8266   -43554.959    37.755365    0.9617915 
   26300     214.9325    266.80587    129853.31   -40861.732    2674.1689   -43535.901    37.755892   0.96180448 
   26400     214.7606    19.997691    130113.25   -40842.242    2672.0301   -43514.272    37.960062   0.95988299 
   26500    218.25665    186.48741     130163.4   -40906.574    2715.5277   -43622.101     38.01406   0.95951313 
   26600    212.54849    111.15358    130011.66    -40955.14    2644.5072   -43599.648    38.176611     0.960633 
   26700    211.71646   -108.88728    129952.03   -40971.057    2634.1553   -43605.213    38.296614   0.96107382 
   26800    213.02543    141.12947    129812.55   -40904.494    2650.4414   -43554.935     38.32513   0.96210646 
   26900    214.61918    159.48757    130089.92    -40902.86    2670.2706   -43573.131    38.524807    0.9600551 
   27000    213.81054    274.46447    130175.59    -40930.24    2660.2096    -43590.45    38.476408    0.9594233 
   27100    216.10901    141.28133    130106.85   -40934.915    2688.8069   -43623.722     38.54314   0.95993019 
   27200    213.68855    41.903325    129973.65   -40953.431    2658.6918   -43612.123    38.748071   0.96091396 
   27300    211.69354    4.1316429    130071.45   -40975.426    2633.8702   -43609.297    39.031349   0.96019144 
   27400    215.24242    166.74196    130078.83   -40912.054    2678.0249   -43590.078    39.016654   0.96013694 
   27500    217.50778    166.85883    129968.48   -40848.111    2706.2103   -43554.321    39.108094   0.96095212 
   27600    214.34167    147.65068    129819.96   -40874.232    2666.8178    -43541.05    39.052761   0.96205156 
   27700    213.59302    139.63156    129824.14   -40864.408    2657.5032   -43521.911     39.22432   0.96202054 
   27800    215.16496     134.9665    129818.84   -40802.858    2677.0612   -43479.919    39.265907   0.96205986 
   27900    219.60935     104.0243    129842.51   -40821.784    2732.3578   -43554.141    39.441375   0.96188446 
   28000    215.38651   -73.582819    129685.02   -40842.725    2679.8177   -43522.543    39.576783   0.96305256 
   28100    216.20211     99.83029    129609.88   -40816.075    2689.9653   -43506.041     39.72059    0.9636109 
   28200    213.18586     129.7391       129632   -40853.507    2652.4374   -43505.944    39.695326   0.96344645 
   28300    213.86325    233.09019     129656.7   -40832.778    2660.8655   -43493.644    39.814897   0.96326288 
   28400    213.52886    55.124737    129783.98   -40872.274    2656.7049   -43528.979    39.907737   0.96231823 
   28500    216.77673    74.516834    129761.89   -40901.694    2697.1147   -43598.809     39.70381   0.96248207 
   28600    215.74496    50.732274    129654.96   -40850.593    2684.2774   -43534.871    39.945933   0.96327587 
   28700    213.80226     187.0876    129618.04   -40850.488    2660.1066   -43510.594    40.074032   0.96355021 
   28800    216.44335   -2.8879825    129657.68   -40820.665    2692.9667   -43513.632    40.149028   0.96325561 
   28900    213.93413    73.310598    129442.65   -40776.655    2661.7473   -43438.403    40.275739    0.9648558 
   29000    215.72163   -1.5509968    129313.82   -40846.083    2683.9872    -43530.07    40.137003   0.96581707 
   29100    217.19405    113.12003    129575.05   -40780.524    2702.3069   -43482.831     40.48575    0.9638699 
   29200    219.70991    225.49496    129660.98   -40757.273     2733.609   -43490.882    40.671313   0.96323112 
   29300    214.35093    191.96124    129794.43   -40815.018    2666.9331   -43481.951    40.954676   0.96224074 
   29400    212.69679    4.6542262    129752.37   -40876.892    2646.3525   -43523.244     40.88171   0.96255268 
   29500    207.02689    69.861563    129662.08    -40912.11    2575.8081   -43487.918    41.077772   0.96322294 
   29600    214.12658   -15.273886    129809.24   -40835.908    2664.1417    -43500.05    41.272828   0.96213095 
   29700    210.04717     112.8738    129729.01   -40875.602    2613.3861   -43488.988     41.39212   0.96272602 
   29800     215.2877     51.64778    129806.86    -40845.96    2678.5882   -43524.549    41.553267   0.96214862 
   29900    215.02697     2.029872    129746.96   -40881.399    2675.3443   -43556.744    41.500145   0.96259281 
   30000    213.82838    170.62604    129659.01   -40859.605    2660.4316   -43520.036    41.483974   0.96324579 
   30100    217.10583     364.1105    129865.73   -40854.634    2701.2093   -43555.843    42.032502   0.96171243 
   30200      212.533    111.66654    129885.91   -40855.415    2644.3146    -43499.73    42.238131   0.96156304 
   30300    213.41089    242.39458    129949.07   -40816.882    2655.2372   -43472.119    42.258194   0.96109571 
   30400    211.36476    117.14345    129914.62   -40800.473    2629.7795   -43430.253    42.255441   0.96135053 
   30500    216.70084    127.17197       129773    -40806.37    2696.1704   -43502.541     42.34466    0.9623997 
   30600    216.44969    101.22015    129936.66   -40795.971    2693.0457   -43489.017    42.528254   0.96118746 
   30700    216.64738     143.1276    129948.97   -40806.078    2695.5053   -43501.584    42.718392   0.96109645 
   30800    216.81087    175.98294    130018.07   -40757.355    2697.5394   -43454.895    42.775677   0.96058565 
   30900    211.63008    185.95255    130055.71   -40876.783    2633.0805   -43509.863    42.628785   0.96030761 
   31000    210.44995    190.75291    130091.19   -40907.139    2618.3975   -43525.537    42.740158   0.96004576 
   31100    213.93587    165.25092    130184.32   -40904.085     2661.769   -43565.854    42.985881   0.95935895 
   31200    216.35983    32.446825    130139.24   -40917.427    2691.9276   -43609.355    43.026207   0.95969129 
   31300     217.1575    133.50794    130364.81    -40877.59    2701.8521   -43579.443    43.312703   0.95803074 
   31400    214.62369    33.506679    130217.45   -40848.774    2670.3267     -43519.1    43.468854   0.95911485 
   31500    213.63288    98.467468    130150.55   -40887.928    2657.9992   -43545.928    43.629663   0.95960783 
   31600     213.9483   -24.531771    130236.27   -40823.179    2661.9236   -43485.103    43.960913   0.95897627 
   31700    216.33872    127.42899    130309.79   -40860.332    2691.6649   -43551.997     44.19907   0.95843519 
   31800    216.75273     127.0722    130302.38   -40816.153     2696.816   -43512.969    44.265501   0.95848969 
   31900    215.15671    130.45271    130250.61   -40809.441    2676.9585   -43486.399    44.275947   0.95887066 
   32000    217.90874    98.108731    130230.84   -40815.849     2711.199   -43527.048    44.304299   0.95901628 
   32100    217.05082   -138.94396    130143.98   -40834.752    2700.5249   -43535.276    44.471273   0.95965633 
   32200    218.25639    12.114565    129978.89   -40844.055    2715.5244    -43559.58    44.521202    0.9608752 
   32300     218.1148    146.72185     129886.5   -40830.574    2713.7628   -43544.337     44.41229   0.96155869 
   32400    214.06297    198.47415    130021.29   -40883.485    2663.3503   -43546.835      44.7131   0.96056187 
   32500     214.9874    79.514366    130131.33   -40901.391     2674.852   -43576.243    44.822315    0.9597496 
   32600    216.58362    188.67204    130104.99   -40854.231    2694.7119   -43548.942    44.978585   0.95994389 
   32700    217.05304    181.47254    130244.23    -40921.47    2700.5525   -43622.023    45.125704   0.95891766 
   32800    214.10377   -24.041595    130139.39   -40955.494    2663.8579   -43619.352    45.096136   0.95969015 
   32900    211.57388   -46.724247    130033.91    -40956.03    2632.3813   -43588.411    45.201543   0.96046861 
   33000    213.98614    10.369075    130139.21   -41014.213    2662.3944   -43676.607    45.350537   0.95969148 
   33100    212.02479    92.604935    130188.44   -40942.949    2637.9914   -43580.941     45.47703   0.95932858 
   33200    217.36841   -1.6105891    130066.13   -40974.421    2704.4763   -43678.897    45.370841   0.96023068 
   33300     213.2669    103.63908    129965.02   -40908.821    2653.4456   -43562.267    45.564836   0.96097775 
   33400    213.23778     130.2776    130106.83   -40993.041    2653.0833   -43646.124    45.609476   0.95993034 
   33500    213.13064    199.27719    130148.89   -40977.933    2651.7503   -43629.683    45.750945   0.95962011 
   33600    216.66933     180.8283    130111.86   -40953.972    2695.7784   -43649.751    45.600629    0.9598932 
   33700    216.47963    46.055897     130333.1   -40955.912    2693.4182    -43649.33    45.888469    0.9582638 
   33800    218.80126    202.13715    130538.67   -40960.307    2722.3036   -43682.611    45.897005   0.95675471 
   33900    215.90795    72.736708    130592.79    -40990.31    2686.3053   -43676.615    46.086206   0.95635827 
   34000    215.04364    84.899223    130399.95   -40954.121    2675.5517   -43629.673    46.364148   0.95777252 
   34100    217.31834   -48.946545    130251.51   -40995.682    2703.8533   -43699.535    46.319764   0.95886402 
   34200     217.4982    137.59712     130336.6    -41013.45    2706.0911   -43719.541    46.561033   0.95823804 
   34300    213.71532   -14.311843    130253.49   -41066.598    2659.0249   -43725.623    46.784852   0.95884946 
   34400    213.73348    236.32809    130332.38   -40995.504    2659.2509   -43654.755    46.672052   0.95826906 
   34500    217.39152    53.310094    130362.37   -41028.531    2704.7639   -43733.295    46.722788   0.95804867 
   34600     216.7245    149.75089    130533.56   -41021.735    2696.4648     -43718.2    46.826203   0.95679223 
   34700    212.53562     57.71501    130685.23   -41101.224    2644.3472   -43745.571    46.857226   0.95568175 
   34800     214.7518    148.88444     130601.9    -41086.43    2671.9206   -43758.351    46.923249   0.95629153 
   34900    212.74676    127.06456    130554.42    -41103.73    2646.9742   -43750.704     46.80783   0.95663935 
   35000    210.54047    121.27198    130668.96   -41176.881    2619.5237   -43796.405    46.903205   0.95580073 
   35100    211.91692    197.51024    130583.77   -41104.474    2636.6494   -43741.124    46.964145   0.95642434 
   35200    211.50095    251.39219    130763.25   -41113.004     2631.474   -43744.478    47.071836   0.95511158 
   35300    217.10353    28.675777    130688.04   -41098.743    2701.1806   -43799.924    46.972033   0.95566124 
   35400    210.48951    95.115123    130763.04   -41105.156    2618.8897   -43724.046    47.211596    0.9551131 
   35500    215.42565    54.472045    130713.96   -41006.035    2680.3047    -43686.34    47.125116   0.95547173 
   35600    217.06703   -26.164974    130545.23   -41052.646    2700.7265   -43753.372    47.200037   0.95670663 
   35700    216.56758    53.700531    130380.16   -41019.178    2694.5124    -43713.69    47.300614    0.9579179 
   35800    213.50297    40.685351    130257.49   -41049.865    2656.3828   -43706.248    47.305305   0.95882002 
   35900    215.28244    74.239803    130177.41   -41002.133    2678.5228   -43680.656    47.350959   0.95940986 
   36000    218.51882    98.607162    130481.88   -40974.997    2718.7896   -43693.787    47.367231   0.95717116 
   36100    217.51323    91.273907     130513.5   -40994.938    2706.2781   -43701.216    47.483396   0.95693924 
   36200    214.19806    132.11426    130454.11   -41024.402    2665.0311   -43689.433    47.641492   0.95737489 
   36300    215.93801    3.9473008    130415.58   -41079.596    2686.6794   -43766.276    47.768538   0.95765777 
   36400    213.82788    368.19843    130426.96   -41011.804    2660.4254    -43672.23    47.916843   0.95757422 
   36500    216.70626    152.29874    130415.88    -41000.99    2696.2379   -43697.228    47.797584   0.95765554 
   36600    212.17293    81.771623    130281.51   -41119.511    2639.8346   -43759.345    47.746577   0.95864324 
   36700    210.76693   -12.302093    130264.51    -41052.95    2622.3412   -43675.291    47.818616   0.95876837 
   36800    214.73695    5.1480506    130340.66   -41042.422    2671.7359   -43714.158    48.085534   0.95820825 
   36900    213.66861   -6.6686346    130218.09   -41073.665    2658.4437   -43732.109    48.035599   0.95911012 
   37000    215.61762   -105.31372     130169.7    -41033.91    2682.6931   -43716.603    48.142273   0.95946672 
   37100    219.69632    69.961745    130269.24   -41014.982    2733.4399   -43748.422    48.370216   0.95873358 
   37200    214.22312    102.18242    130257.46   -41076.941    2665.3429   -43742.284    48.346755   0.95882024 
   37300    213.34901    79.903743    130288.17   -41102.013    2654.4673    -43756.48    48.477226   0.95859429 
   37400    212.14803    81.935869    130360.74    -41136.11    2639.5248   -43775.635    48.590467   0.95806061 
   37500    214.21131    254.09848    130386.25   -41159.523     2665.196   -43824.719    48.735287    0.9578732 
   37600    215.23071    140.66055    130491.43   -41104.238    2677.8792   -43782.117    48.624099   0.95710112 
   37700    215.28803    53.590872    130565.45   -41110.467    2678.5923   -43789.059    48.787925   0.95655852 
   37800    209.90063     178.9029    130593.22   -41200.519    2611.5629   -43812.082    48.915961    0.9563551 
   37900    210.42321    98.422175    130574.41    -41151.69    2618.0648   -43769.755    49.241927   0.95649289 
   38000    214.38786    62.682054    130511.34   -41112.977    2667.3926    -43780.37    49.225654   0.95695512 
   38100    214.60157    35.033654    130509.99   -41063.152    2670.0515   -43733.203    49.468518     0.956965 
   38200    214.71348   -78.409953    130501.76   -41069.294    2671.4439   -43740.738    49.372889   0.95702531 
   38300    218.10373    207.27121    130349.65   -41008.056    2713.6251   -43721.681    49.414722   0.95814212 
   38400    215.86496    84.229859    130402.33   -41072.737    2685.7705   -43758.508    49.512968   0.95775505 
   38500    218.33957    106.73981    130634.27   -41086.772    2716.5593   -43803.332    49.674293    0.9560546 
   38600    213.72244    68.710808     130742.4   -41044.124    2659.1135   -43703.237    49.773096   0.95526388 
   38700    213.42171    143.46548    130673.21   -41042.691    2655.3719   -43698.063    49.724909   0.95576965 
   38800     214.9764    304.19499    130621.97   -41059.064    2674.7151   -43733.779    49.778551   0.95614456 
   38900    217.52278    140.94332    130550.36   -41018.894     2706.397   -43725.291    49.698821    0.9566691 
   39000    214.66838    78.462743    130347.23   -41060.581    2670.8828   -43731.464    49.739989   0.95815988 
   39100    213.16033   -38.301428    130390.91   -41025.635    2652.1198   -43677.755    49.923104   0.95783895 
   39200    216.13445    94.254336    130361.19   -41047.172    2689.1235   -43736.295    50.112049   0.95805728 
   39300    213.73244    96.556695    130565.83   -41035.598    2659.2378   -43694.835    50.392775   0.95655574 
   39400    218.35916   -25.721444    130395.15   -40994.426     2716.803    -43711.23    50.539646   0.95780781 
   39500    216.52074   -3.0485073    130466.96   -40969.332    2693.9296   -43663.262    50.610052   0.95728058 
   39600    215.35738    48.973256    130460.12   -41005.549    2679.4552   -43685.004    50.535043   0.95733078 
   39700    218.73608    196.21926    130412.15   -40945.288    2721.4927    -43666.78    50.563736   0.95768291 
   39800    216.15834      111.742    130612.46   -41003.872    2689.4207   -43693.293    50.497181    0.9562142 
   39900    212.60844   -10.457068    130418.38   -41044.125    2645.2532   -43689.378    50.624398   0.95763723 
   40000    212.95082    6.7768914    130298.12   -41059.691    2649.5131   -43709.204    50.616101   0.95852103 
   40100    214.22529    189.14481    130234.99   -40949.065    2665.3698   -43614.435     50.65924    0.9589857 
   40200     215.3156   -3.7623408    130394.09   -40951.131    2678.9354   -43630.067    50.924595   0.95781561 
   40300    216.62248    252.55725    130355.58   -40909.868    2695.1955   -43605.064    51.094724   0.95809851 
   40400    222.51383     81.54486    130361.69    -40821.18    2768.4951   -43589.675    51.321721   0.95805362 
   40500    217.04025     174.1088    130035.62   -40835.966    2700.3934    -43536.36    51.405642   0.96045598 
   40600    216.24166   -124.08738    129784.87   -40885.964    2690.4574   -43576.422    51.195286   0.96231167 
   40700    212.30926    278.88363    129865.43   -40926.173    2641.5308   -43567.704    51.229872   0.96171469 
   40800    209.38746    116.96481    130049.77   -40950.264    2605.1781   -43555.442    51.466093    0.9603515 
   40900    215.81969     132.7735    129900.77   -40984.061    2685.2072   -43669.268    51.325968   0.96145306 
   41000    215.26912   -27.903539     130049.1   -40907.728    2678.3571   -43586.085    51.661128   0.96035644 
   41100    218.50594    36.860461    130174.28   -40899.653    2718.6293   -43618.282    51.867514   0.95943297 
   41200    216.66792    5.0031618    130294.73   -40923.436    2695.7608   -43619.197    52.132585   0.95854601 
   41300    214.12865     241.5452    130149.44   -41080.226    2664.1675   -43744.394    52.092784   0.95961604 
   41400    208.57827    128.44672    130494.49    -41035.57    2595.1102    -43630.68    52.249285   0.95707863 
   41500    211.80239    218.83504    130564.73   -41040.272    2635.2243   -43675.496    52.265617    0.9565638 
   41600    211.95242    77.465765     130553.7   -41004.247    2637.0911   -43641.338    52.060732   0.95664463 
   41700    216.68081    35.150084    130534.27    -40985.76    2695.9212   -43681.681    51.997729   0.95678699 
   41800    214.81533    166.91512       130569   -40998.575    2672.7111   -43671.286    52.305812   0.95653251 
   41900    214.81479    162.81259    130651.02   -40958.367    2672.7044   -43631.072    52.607517   0.95593198 
   42000    210.44816     102.7025    130661.95   -40948.109    2618.3752   -43566.484    52.660983   0.95585202 
   42100    214.36507   -45.161713    130554.35   -40940.246     2667.109   -43607.355    52.680387   0.95663984 
   42200    216.26966    51.226676    130505.05   -40890.849    2690.8057   -43581.654    52.764589   0.95700119 
   42300    217.58849    153.58922    130376.21   -40875.981    2707.2145   -43583.195    52.848018   0.95794694 
   42400    215.55478   -49.369122    130326.64   -40904.427    2681.9112   -43586.338    52.659715   0.95831128 
   42500    213.69564    62.793439    130300.61   -40901.912      2658.78   -43560.692    52.744427   0.95850275 
   42600    217.46724    28.414296    130291.18   -40913.792    2705.7059   -43619.498    52.651056   0.95857211 
   42700    212.92955    198.51548    130326.94   -40925.652    2649.2484   -43574.901    52.832494   0.95830912 
   42800    214.42444    176.12794    130187.69   -40868.211    2667.8476   -43536.059    52.922485   0.95933411 
   42900    215.73619    43.457041    130377.53   -40937.735    2684.1684   -43621.904    52.995599   0.95793726 
   43000    213.06583    94.134772    130346.91   -40951.601     2650.944   -43602.545    53.304678    0.9581623 
   43100    216.95367     36.82966    130272.74   -40930.115    2699.3162   -43629.431    53.208195   0.95870778 
   43200    213.48043    56.181988    130203.48   -40907.506    2656.1024   -43563.608    53.471915   0.95921776 
   43300    215.00884    129.26762    130021.03   -40918.018    2675.1187   -43593.137    53.496629   0.96056375 
   43400    215.25023    156.96552    130155.57    -40879.47    2678.1221   -43557.592    53.642795   0.95957083 
   43500    215.14323    157.14304    130370.02   -40882.936    2676.7908   -43559.727    53.683836    0.9579924 
   43600    222.74804    301.35189    130479.91   -40798.609     2771.409   -43570.018    53.825631   0.95718557 
   43700    220.71116    130.24394    130548.71   -40847.651    2746.0664   -43593.718     53.83151   0.95668114 
   43800    217.25722    56.691232    130450.28   -40864.045    2703.0929   -43567.138    53.897478   0.95740302 
   43900    219.12185    55.891087    130378.52   -40918.436    2726.2924   -43644.728    54.096336   0.95792997 
   44000    213.65982    43.943831    130313.34   -40952.395    2658.3343    -43610.73    54.259196   0.95840911 
   44100    214.74772    52.178924    130448.71   -40983.295    2671.8699   -43655.165    54.360699   0.95741454 
   44200    212.84074    84.843698    130265.12   -41019.627    2648.1434    -43667.77     54.35683   0.95876391 
   44300    217.34992    214.67325    130169.15   -41024.276    2704.2462   -43728.522    54.437135   0.95947074 
   44400    213.21882    97.359544    130210.81   -40990.653    2652.8474     -43643.5    54.465073   0.95916376 
   44500    216.75577    212.10217    130295.12   -41034.643    2696.8539   -43731.497    54.556248   0.95854312 
   44600    211.64205    240.10855    130332.08   -41097.145    2633.2295   -43730.374    54.780715   0.95827133 
   44700    213.00644    227.11236    130477.37   -41061.881    2650.2051   -43712.086    54.746249   0.95720426 
   44800    215.28953     150.6938    130306.41   -41028.212     2678.611   -43706.823    54.872597   0.95846004 
   44900    213.64062    113.55449    130306.67   -40974.773    2658.0954   -43632.869    55.072173   0.95845819 
   45000    214.23443    155.63739    130256.62   -40980.055    2665.4836   -43645.539     55.08893   0.95882643 
   45100     217.3801    120.16459    130303.58   -40930.561    2704.6217   -43635.183    55.095706   0.95848087 
   45200    215.01588    27.736033    130277.86    -40998.14    2675.2063   -43673.347    55.180336   0.95867015 
   45300    213.85663   -34.106811    130328.96   -41017.549     2660.783   -43678.332    55.354017   0.95829423 
   45400    212.52389     115.2046    130265.25   -41004.604    2644.2012   -43648.805    55.431953   0.95876289 
   45500    214.80948    183.26072    130277.66   -41016.837    2672.6383   -43689.475    55.562367   0.95867158 
   45600    218.37468     20.32163    130288.23   -41009.985    2716.9961   -43726.982    55.488332   0.95859382 
   45700    215.40466     139.7356    130246.23   -41016.518    2680.0435   -43696.561    55.456544   0.95890296 
   45800    216.01587    44.003751    130265.63   -40958.816    2687.6481   -43646.464    55.375456   0.95876013 
   45900    219.57664    142.85926    130414.18   -40899.625    2731.9508   -43631.576    55.435052     0.957668 
   46000     219.0292    96.801143    130453.57   -40886.519    2725.1396   -43611.658    55.831719   0.95737887 
   46100     221.1698    246.24663    130306.74   -40838.426    2751.7728   -43590.199    55.889347   0.95845766 
   46200    224.83134    87.769749    130270.88   -40830.762    2797.3293   -43628.091    55.799082   0.95872147 
   46300    222.32943    230.28408    130361.93   -40853.845    2766.2007   -43620.046    56.113175   0.95805188 
   46400    219.33659   -14.993853    130473.08   -40888.517    2728.9642   -43617.481    56.281748   0.95723571 
   46500    214.97448   -163.04316    130525.99   -40898.031    2674.6912   -43572.722    56.346579   0.95684765 
   46600     213.0154     88.75744    130288.28   -40892.656    2650.3165   -43542.972    56.465368   0.95859346 
   46700    215.10266    191.14547    130297.82   -40966.584     2676.286    -43642.87    56.695113   0.95852328 
   46800    209.85526    77.420225    130290.38   -41013.198    2610.9984   -43624.196    56.502199   0.95857801 
   46900    219.00289    161.34526    130634.92   -40950.309    2724.8123   -43675.122    56.685499    0.9560498 
   47000    219.45359    105.51715       130480   -40945.697    2730.4198   -43676.117    56.857425   0.95718496 
   47100    217.06182    289.73262    130501.79   -40929.248    2700.6618   -43629.909    56.932324   0.95702509 
   47200    218.60821    82.472267     130605.9   -40991.708    2719.9018    -43711.61    57.026255   0.95626228 
   47300    212.20203    216.82168    130447.31   -41017.969    2640.1966   -43658.166    57.170594   0.95742478 
   47400    214.11011    41.238028    130544.76   -40974.633    2663.9368    -43638.57    57.582316    0.9567101 
   47500    216.58601    61.672273    130523.33   -40906.641    2694.7417   -43601.382    57.844677   0.95686721 
   47600     216.8807    43.049159    130520.92   -40880.416    2698.4083   -43578.824    57.632694   0.95688488 
   47700    217.84945    209.30069    130602.52   -40927.244    2710.4614   -43637.706    57.856888   0.95628701 
   47800    217.62036    123.22421    130506.77   -40942.244     2707.611   -43649.855    57.793573    0.9569886 
   47900    217.06202   -3.1187018    130513.61   -41020.061    2700.6642   -43720.725    57.496739   0.95693843 
   48000    212.92762    144.49335    130471.45   -41025.297    2649.2244   -43674.521    57.670619   0.95724768 
   48100    215.00424    130.52642     130430.2   -40977.926    2675.0616   -43652.987    57.600809   0.95755041 
   48200    214.21518    191.42481    130484.21   -41025.535    2665.2441    -43690.78     57.72871   0.95715408 
   48300    215.63318    234.69732    130487.46   -41016.966    2682.8867   -43699.852    58.057326   0.95713023 
   48400    221.37333     111.5806    130650.11   -40940.868    2754.3051   -43695.173    58.137851   0.95593868 
   48500    219.44134   -114.70701    130474.92   -41014.042    2730.2674   -43744.309    57.929574   0.95722217 
   48600    217.47678    44.901782    130188.54   -41012.144    2705.8246   -43717.968    57.881021   0.95932784 
   48700    214.59774     58.03297    130230.36   -40972.023    2670.0039   -43642.027    58.129281   0.95901981 
   48800    214.60986    61.105681    130168.91   -41004.798    2670.1547   -43674.953    58.239896   0.95947252 
   48900    216.05752    186.58487    130182.39   -40992.677    2688.1663   -43680.844    58.253616   0.95937314 
   49000    210.80628     124.6114    130358.33   -41012.398    2622.8309   -43635.229    58.295077   0.95807836 
   49100    217.53242    30.986681    130308.61   -40992.668    2706.5169   -43699.185    58.231512   0.95844388 
   49200    213.92895    97.200009    130341.98   -41009.778    2661.6828   -43671.461    58.373271    0.9581985 
   49300    213.62169    124.15248    130363.85   -40953.459    2657.8599   -43611.319    58.515175   0.95803774 
   49400    218.27857    88.429003    130476.68    -40910.41    2715.8003    -43626.21    58.640999   0.95720927 
   49500    217.39875    176.62187    130142.56   -40927.759    2704.8538   -43632.613    58.614784   0.95966674 
   49600    212.91887    99.428275    130127.17   -40926.317    2649.1156   -43575.433    58.944019   0.95978028 
   49700    215.85437   -36.124572    130259.88   -40946.917    2685.6387   -43632.556    59.051401   0.95880242 
   49800    212.84401    142.41212    130267.46   -40991.782    2648.1841   -43639.966    59.136366   0.95874668 
   49900    219.01174   -12.412744    130397.62   -40878.742    2724.9225   -43603.664    59.378041   0.95778969 
   50000     218.3694    276.22851    130457.04   -40923.833    2716.9305   -43640.764    59.476299   0.95735338 
   50100    217.33132    205.16031    130455.61   -40946.451    2704.0148   -43650.466    59.833957   0.95736393 
   50200    215.98127    100.56017    130457.31   -40999.717    2687.2176   -43686.935    59.818299   0.95735143 
   50300    212.36312    175.37082    130391.76   -40975.237    2642.2009   -43617.437     59.96734   0.95783267 
   50400    215.89447    83.539411    130465.77   -41016.997    2686.1376   -43703.135    59.623245   0.95728937 
   50500    213.97229    73.673741    130289.66   -41068.366    2662.2221   -43730.588    59.618943   0.95858331 
   50600    212.95346    56.091757    130292.07   -41091.671    2649.5459   -43741.217    59.471127   0.95856558 
   50700    207.82583   -1.4494825     130291.9   -41096.415    2585.7484   -43682.163    59.729773    0.9585668 
   50800    214.34501    118.23883    130362.45   -41084.086    2666.8594   -43750.946     59.71399   0.95804805 
   50900    215.83694     -32.3585    130438.69     -41000.3    2685.4219   -43685.722    60.230831   0.95748809 
   51000    213.35124    60.818245    130251.17   -41024.609     2654.495   -43679.104     60.23302   0.95886659 
   51100     215.5682    82.456816    130214.72    -41047.81    2682.0783   -43729.888    60.251751     0.959135 
   51200    214.46525   -40.227338    130252.54   -41021.584    2668.3554   -43689.939    60.342216   0.95885648 
   51300    212.35786    100.24995    130003.53   -41073.902    2642.1355   -43716.038    60.066127   0.96069304 
   51400    212.06826    131.37126    130187.53    -41062.45    2638.5323   -43700.983    60.045643   0.95933527 
   51500    214.90286     80.27953    129989.56   -41068.951    2673.8001   -43742.751    60.187957   0.96079632 
   51600    213.48801    171.76333    130184.39   -41016.814    2656.1967    -43673.01    60.472583   0.95935843 
   51700    215.11779    129.72274    130151.82   -41014.159    2676.4743   -43690.633    60.483166    0.9595985 
   51800    213.19499    192.80956    130001.25   -41063.714     2652.551   -43716.265    60.501332   0.96070989 
   51900    212.12144    114.25579    130256.48   -41097.062    2639.1939   -43736.256    60.572339   0.95882744 
   52000    211.33887    171.44554    130389.96   -41116.228    2629.4573   -43745.686    60.610921   0.95784589 
   52100    213.56827    153.40951    130507.59   -41075.113    2657.1952   -43732.309    60.758553   0.95698261 
   52200    211.53941    29.699058    130381.16   -41102.473    2631.9524   -43734.426    60.748545   0.95791057 
   52300    214.86786    6.0241646    130414.67   -41087.026    2673.3647   -43760.391      61.0667   0.95766444 
   52400    212.63998    146.80783    130366.96   -41035.782    2645.6456   -43681.428    61.021868   0.95801487 
   52500     219.4616    50.492029    130475.86   -41044.203    2730.5195   -43774.723    61.366251   0.95721528 
   52600    217.22796    160.27481     130268.3    -41075.55    2702.7289   -43778.279    61.370783   0.95874048 
   52700    211.19379    238.15623    130323.62   -41092.312    2627.6523   -43719.965      61.6179   0.95833352 
   52800    215.90357    77.662426    130355.56   -41047.449    2686.2508   -43733.699    61.545151   0.95809871 
   52900    213.73727    176.45602    130284.85   -41051.527     2659.298   -43710.825    61.457584   0.95861866 
   53000    215.28614       221.16    130326.26   -41029.837    2678.5688   -43708.406    61.616152   0.95831408 
   53100    218.83754    222.65066    130450.52    -41072.56     2722.755   -43795.315    61.726673   0.95740127 
   53200    213.42068    211.21677    130478.28   -41057.548     2655.359   -43712.907    61.952087   0.95719757 
   53300    215.82005    41.767145    130423.79   -41045.088    2685.2117     -43730.3    61.829353   0.95759744 
   53400    209.82859   -68.017416    130356.33   -41101.915    2610.6666   -43712.582     62.04441   0.95809305 
   53500    212.58827    69.947922    130532.95   -41098.839    2645.0022   -43743.841    62.080513   0.95679665 
   53600    215.68449     37.10999    130479.02   -41109.904    2683.5251    -43793.43    62.073305   0.95719213 
   53700    214.08863    297.80132    130443.84   -41137.577    2663.6696   -43801.246    62.239272   0.95745025 
   53800    212.27211    53.530777    130562.26   -41016.058    2641.0686   -43657.127    62.481469    0.9565819 
   53900    215.04141    124.94195    130723.22   -41069.255     2675.524   -43744.779    62.603615   0.95540404 
   54000    212.43654    197.47617    130713.12   -41039.934    2643.1144   -43683.049    62.500213   0.95547786 
   54100    213.70888    202.32633    130643.08   -41063.022    2658.9448   -43721.967    62.620481   0.95599009 
   54200    211.92421    77.504454    130867.08   -41030.919    2636.7401   -43667.659    62.951035   0.95435374 
   54300    214.81253    87.046136    130892.42   -41011.724    2672.6763     -43684.4    62.882532   0.95416901 
   54400    214.28524   -133.79595     130612.6   -41037.528    2666.1157   -43703.644     62.90352    0.9562132 
   54500    215.24697   -91.615084    130429.47   -41008.001    2678.0816   -43686.082     62.99508   0.95755578 
   54600    215.35434    136.82903     130269.5   -40914.514    2679.4174   -43593.932    63.042422   0.95873163 
   54700    216.48969     101.0992    130210.87   -40922.787    2693.5434   -43616.331    62.996235   0.95916333 
   54800    212.46589    72.856293    130378.93   -40991.925    2643.4796   -43635.405     63.20649   0.95792696 
   54900    216.36892    183.62678    130286.55   -41033.334    2692.0407   -43725.375     63.25032   0.95860621 
   55000    211.49486   -15.616857    130313.64   -41097.444    2631.3981   -43728.842    63.483187   0.95840691 
   55100    214.34822    254.27853    130342.74   -41053.421    2666.8994    -43720.32    63.543144   0.95819289 
   55200    210.75884   -115.49995     130095.5   -41066.487    2622.2407   -43688.728    63.439828   0.96001395 
   55300    214.15127    157.82721    130133.08   -41029.268    2664.4489   -43693.717    63.872574   0.95973668 
   55400    216.60063    172.02677    130303.48   -41008.757    2694.9236    -43703.68    64.189684   0.95848166 
   55500    215.73624    121.70755    130336.72   -40953.309     2684.169   -43637.478    64.325603   0.95823717 
   55600    214.07676   -62.620706    130312.97   -40985.955    2663.5219   -43649.477    64.427685   0.95841184 
   55700     212.6144    242.21677    130225.64   -40982.402    2645.3273   -43627.729    64.426408   0.95905454 
   55800    213.71187    59.758689    130021.04   -40975.837    2658.9819   -43634.819    64.295682   0.96056373 
   55900    216.43594    184.00022       130221    -40950.27    2692.8746   -43643.145    64.211416   0.95908869 
   56000    215.38047    40.920982    130309.04    -40941.84    2679.7425   -43621.582    64.338321   0.95844076 
   56100    220.47112    129.18485    130068.18   -40928.277    2743.0798   -43671.357    64.476836   0.96021556 
   56200    220.99352    98.871811     130149.8   -40933.616    2749.5795   -43683.196    64.682182   0.95961341 
   56300    215.00871    97.398322    130197.12   -40966.747    2675.1172   -43641.864    64.971207   0.95926464 
   56400    217.24085   -58.562072    130245.21   -40934.711    2702.8892     -43637.6    65.021296   0.95891043 
   56500    211.31305   -41.210921    130011.74   -41018.753     2629.136   -43647.889    64.783323    0.9606324 
   56600    217.14186   -8.9343074     130079.1   -41036.536    2701.6576   -43738.193    65.036586   0.96013498 
   56700    214.03253   -30.847215    130106.11   -41076.905    2662.9716   -43739.877      65.1925   0.95993566 
   56800    213.24369    107.69695    130149.27   -40999.046    2653.1569   -43652.203     65.25957   0.95961732 
   56900    216.34227    143.92454    130087.91   -40982.431    2691.7091    -43674.14    65.374433   0.96006992 
   57000    216.03333    282.88259       130311   -40936.302    2687.8654   -43624.167     65.49153   0.95842629 
   57100    218.25401    159.79177    130193.62   -40999.217    2715.4949   -43714.712    65.796733   0.95929039 
   57200    220.99975   -38.565449    130199.12   -41059.221     2749.657   -43808.878    65.847442   0.95924992 
   57300    213.00994   -50.370701    130212.87   -41124.383    2650.2486   -43774.631    65.720376   0.95914859 
   57400    210.80365    199.86107    130465.15   -41147.309    2622.7982   -43770.107    65.727939   0.95729391 
   57500    209.69387    34.943762    130407.06   -41189.393    2608.9904   -43798.383    65.867043    0.9577203 
   57600    212.31189    331.21119    130629.56   -41154.287    2641.5636   -43795.851    65.910592   0.95608901 
   57700    210.83698   -78.303896    130616.04   -41213.213    2623.2128   -43836.426    65.929728   0.95618798 
   57800    211.73398   -25.590446    130494.69   -41238.812    2634.3732   -43873.185    66.219894    0.9570772 
   57900    210.85173    96.129698    130443.62   -41202.508    2623.3964   -43825.904     66.43673   0.95745188 
   58000    211.49496    -132.6575    130439.53   -41210.639    2631.3993   -43842.038    66.586985    0.9574819 
   58100    214.37498    114.44131    130462.96   -41138.812    2667.2323   -43806.045    66.655638      0.95731 
   58200    217.69793     130.1102    130463.55   -41091.041    2708.5761   -43799.617    66.502638   0.95730561 
   58300    213.29667    89.223217    130559.92   -41028.206    2653.8161   -43682.022    66.666296     0.956599 
   58400    215.63538    84.221806    130441.91   -41036.189    2682.9141   -43719.103    66.625252   0.95746447 
   58500    214.39841     -142.292    130312.52   -41041.431    2667.5239   -43708.955    66.716871   0.95841517 
   58600    216.05363    32.626311    130349.09   -41011.747     2688.118   -43699.865    67.048428   0.95814625 
   58700    215.38201    159.48885    130585.79     -41012.8    2679.7617   -43692.562    67.283268   0.95640951 
   58800    215.10403     133.1237    130690.33   -41065.199    2676.3031   -43741.502    67.063144   0.95564445 
   58900    215.88322    43.917882    130782.26   -41114.432    2685.9977    -43800.43    66.798245   0.95497273 
   59000    215.01059    149.47028    130796.78   -41110.535    2675.1404   -43785.675    66.940207    0.9548667 
   59100    215.68068    199.95918     130865.4   -41122.339    2683.4777   -43805.817    67.037944   0.95436604 
   59200    214.78636   -61.967145    130848.46   -41135.929    2672.3507    -43808.28    67.146489   0.95448956 
   59300    213.33133    -66.35017    130810.05     -41131.8    2654.2473   -43786.047    67.086246   0.95476983 
   59400    211.24351    140.37013    130686.19   -41175.793    2628.2709   -43804.064    67.009591   0.95567473 
   59500    213.04454    150.20425     130745.5    -41147.97    2650.6791    -43798.65    67.354529   0.95524121 
   59600    214.01175    49.260806    130638.52   -41126.886     2662.713   -43789.599    67.267967   0.95602345 
   59700    216.39959    126.90053    130605.57   -41148.026    2692.4224   -43840.448    67.387589    0.9562647 
   59800    212.71195     146.7692    130554.85    -41134.03    2646.5411   -43780.571    67.454855   0.95663619 
   59900    212.93365    177.86907    130570.64   -41102.988    2649.2994   -43752.288    67.718156    0.9565205 
   60000    213.17656     68.21759    130674.58   -41138.341    2652.3217   -43790.663    67.838499   0.95575965 
   60100    213.21419   -6.9183768    130703.06   -41109.248    2652.7899   -43762.038    68.086857    0.9555514 
   60200    217.37555   -12.392627    130605.54   -41100.092    2704.5651   -43804.657    68.090604   0.95626491 
   60300    215.55274     204.9289    130674.94   -41060.551    2681.8859   -43742.437    67.937085   0.95575705 
   60400    219.20253    40.619012    130873.68     -41021.6    2727.2962   -43748.896    68.228464   0.95430561 
   60500    212.63161     249.5137    130995.98   -41047.173    2645.5415   -43692.715    68.403397   0.95341472 
   60600    214.06781    74.795347    130923.38     -41092.9    2663.4106   -43756.311    68.540063   0.95394338 
   60700    209.46164    92.697315    130820.57   -41106.389    2606.1011    -43712.49    68.677611   0.95469308 
   60800    217.77596    68.994936    130743.35   -41064.113     2709.547    -43773.66     68.62304   0.95525694 
   60900    213.86257    167.44501    130872.11    -41051.26    2660.8569   -43712.117    68.630242   0.95431709 
   61000    213.43261    11.291586    130961.48   -41088.758    2655.5075   -43744.266    68.511704   0.95366583 
   61100    214.38563     97.00628    130861.78   -41115.745    2667.3648    -43783.11    68.564199   0.95439239 
   61200    213.17542    162.43267    130924.72   -41121.619    2652.3076   -43773.927    68.660488   0.95393364 
   61300    215.09285    63.333062    130709.08   -41109.083    2676.1639   -43785.247    68.766538   0.95550739 
   61400    212.94653    128.83851    130839.62   -41144.444    2649.4597   -43793.904    68.786298   0.95455403 
   61500    213.29841    91.418028    130770.77   -41127.001    2653.8378   -43780.839    68.719918   0.95505661 
   61600    208.82748    134.10547    130766.17   -41082.317    2598.2109   -43680.528    68.760288   0.95509026 
   61700    209.85122    78.243207    130913.43    -41165.36    2610.9481   -43776.308    68.831942   0.95401585 
   61800    211.21826    78.035909    130768.58   -41240.792    2627.9567   -43868.749    69.176989   0.95507263 
   61900    209.16178    -84.34674    130677.37   -41177.278    2602.3702   -43779.648    69.314097   0.95573921 
   62000    214.74581    42.848154    130750.49    -41138.46    2671.8461   -43810.306    69.316083   0.95520478 
   62100    213.77957    254.71935    130631.08   -41153.546    2659.8243   -43813.371    69.132132   0.95607788 
   62200    213.68648    223.58829    130809.58   -41102.647    2658.6661   -43761.313    69.108704   0.95477324 
   62300    216.28514    144.79555    130773.99   -41137.922    2690.9983   -43828.921    69.031088   0.95503315 
   62400    214.11627     59.84916    130874.68   -41088.079    2664.0134   -43752.092    69.138435   0.95429838 
   62500    213.44623    155.40449     130909.9    -41101.64    2655.6769   -43757.317    69.251996   0.95404159 
   62600    215.75148    121.86654     130924.5   -41107.348    2684.3586   -43791.706    69.586802   0.95393524 
   62700     212.9334    61.844062    130905.45   -41120.609    2649.2963   -43769.906     69.58522   0.95407403 
   62800    214.27903      290.748    131034.74   -41109.252    2666.0385   -43775.291    69.647623   0.95313268 
   62900    217.17888    60.154592    131168.63   -41062.356    2702.1181   -43764.474    69.908393   0.95215974 
   63000    218.44188    209.52511    131162.33   -41032.164    2717.8323   -43749.996    69.894719   0.95220548 
   63100    220.47715   -104.41521    130975.41   -41018.001    2743.1549   -43761.156    69.891363   0.95356441 
   63200    216.32573    147.97604    130786.22   -41041.308    2691.5034   -43732.812    69.526391   0.95494382 
   63300    218.96056    79.585644     130823.5    -41063.54    2724.2856   -43787.826    69.788868   0.95467167 
   63400    219.48939   -11.077648    130845.64   -40978.691    2730.8653   -43709.556    69.821812   0.95451018 
   63500    215.44303    241.05545    130883.26   -41075.747    2680.5209   -43756.268    69.912152    0.9542358 
   63600    213.31818    180.67041    131035.31    -41076.22    2654.0837   -43730.303      70.1026   0.95312851 
   63700     218.5441    105.08056    131080.58   -41087.329    2719.1041   -43806.433    70.061612   0.95279938 
   63800    214.26994     180.1231     131034.2   -41191.396    2665.9254   -43857.321    70.250202    0.9531366 
   63900    211.56811    173.22256    131071.37   -41187.711    2632.3096    -43820.02    70.400188   0.95286628 
   64000    213.10171   -27.344912    131264.24   -41179.591    2651.3904   -43830.981    70.605216   0.95146622 
   64100    220.79158    105.46371    131330.72   -41095.876     2747.067   -43842.943    70.547783    0.9509846 
   64200    214.73938    101.92736    131264.88   -41086.541    2671.7661   -43758.307    70.528601   0.95146159 
   64300    215.46179    167.68432    131036.63   -40996.019    2680.7542   -43676.773    70.547827   0.95311892 
   64400    219.91241    69.761869     131081.1   -41019.936    2736.1284   -43756.064    70.835674   0.95279559 
   64500    220.36754     113.4253    131041.18   -41011.244    2741.7912   -43753.035    70.814498   0.95308579 
   64600    212.98934    156.63828    131188.43   -41071.201    2649.9923   -43721.193     70.97335   0.95201603 
   64700    213.44675    5.8406711    130989.76   -41097.764    2655.6833   -43753.448    70.764018   0.95345998 
   64800    214.89164    50.588451    130949.53   -41138.584    2673.6606   -43812.245    70.647015   0.95375285 
   64900    211.47636    86.292143    131046.86     -41111.5     2631.168   -43742.669    70.593973    0.9530445 
   65000    214.20345   -10.280709    130918.66   -41083.584    2665.0981   -43748.682    70.920437   0.95397777 
   65100    213.76828    14.282148    130854.03   -41103.428    2659.6838   -43763.112    71.155099   0.95444897 
   65200    213.70784    56.159622    130818.72   -41081.208    2658.9319    -43740.14    71.641649    0.9547066 
   65300    216.42967    319.50155    130878.08    -41075.49    2692.7965   -43768.287    71.726088   0.95427359 
   65400    216.73522    104.28774    130868.59     -41011.8    2696.5981   -43708.398    71.636626   0.95434279 
   65500    214.57849    100.32558     130968.1   -41052.499    2669.7643   -43722.263    71.453577   0.95361764 
   65600    210.07801    123.72021    131075.05   -41088.814    2613.7699   -43702.584    71.588765   0.95283955 
   65700    215.14767    74.801882    130999.92   -41140.461    2676.8461   -43817.307    71.521727   0.95338601 
   65800     212.9986    35.528491    131091.28   -41148.997    2650.1075   -43799.105    71.834784    0.9527216 
   65900    213.09198    98.898817    131250.18   -41117.762    2651.2693   -43769.031    72.159108   0.95156813 
   66000    218.17459    91.733507    131188.42   -41033.065    2714.5067   -43747.572    72.086008   0.95201615 
   66100    219.48285    81.540977    131301.17   -40981.337    2730.7839   -43712.121    71.981343    0.9511986 
   66200    218.07093    72.548745    131300.61   -40951.668    2713.2169   -43664.885    71.895045    0.9512027 
   66300      219.633   -0.4221083    131208.25   -40987.587    2732.6521   -43720.239    71.854892   0.95187226 
   66400    217.55743    175.80425    131316.28   -41036.091    2706.8281   -43742.919    72.020579   0.95108916 
   66500    211.92289    3.1371359    131414.67   -41053.537    2636.7236   -43690.261    72.264142   0.95037707 
   66600    216.15971    244.13706    131300.83   -41079.701    2689.4377   -43769.139    72.293329    0.9512011 
   66700    210.57187   -86.115108    131317.92    -41107.12    2619.9144   -43727.034    72.167933   0.95107725 
   66800    214.87178   -12.509419    131138.11   -41046.281    2673.4135   -43719.694    72.230139   0.95238135 
[...]
   84600    215.69675    191.77572    131538.46   -41235.359    2683.6776   -43919.037    84.722525   0.94948271 
   84700    216.60994    158.90221    131724.92   -41253.479    2695.0395   -43948.518    84.700585   0.94813867 
   84800    218.73057    41.961609    131801.77    -41231.28    2721.4242   -43952.704    84.970482   0.94758587 
   84900    210.73726    103.17652    131875.07   -41218.152    2621.9721   -43840.124    84.970105   0.94705913 
   85000    214.66672     241.7201    131816.26   -41168.102    2670.8621   -43838.964    84.738568    0.9474817 
   85100    215.33117   -94.644106    131849.57   -41171.091    2679.1291    -43850.22    84.701242    0.9472423 
   85200     214.3475    142.14573    131747.25   -41184.125    2666.8904   -43851.016    84.989753   0.94797799 
   85300    211.33587    97.202483    131904.42   -41229.183      2629.42   -43858.603    84.859622   0.94684845 
   85400    214.81735    106.33704    131905.78   -41218.304    2672.7362    -43891.04    84.860427   0.94683863 
   85500    214.70997    160.46982    131856.57   -41200.884    2671.4003   -43872.284     85.18933   0.94719202 
   85600    216.58833    118.63185    131839.72   -41181.487    2694.7706   -43876.257    84.874896   0.94731309 
   85700    216.07532    154.72877    131787.17   -41224.706    2688.3878   -43913.094    85.008062   0.94769079 
   85800    213.86418    106.99328    131893.38   -41221.522     2660.877   -43882.399    85.340238   0.94692767 
   85900    213.79247    190.56023    131855.63   -41120.988    2659.9847   -43780.973    85.393956   0.94719874 
   86000    220.19377    105.07609    131861.96   -41171.187    2739.6291   -43910.816     85.36145   0.94715333 
   86100    214.35419    40.850109    131668.48   -41165.174    2666.9737   -43832.147    85.506959   0.94854506 
   86200    215.64288   -65.958891    131596.59   -41126.616    2683.0074   -43809.623    85.309111   0.94906331 
   86300    216.53822    135.78046    131675.75   -41165.027    2694.1471   -43859.174    85.253107   0.94849275 
   86400    214.72707    103.53872    131714.56   -41183.177     2671.613    -43854.79     85.35363   0.94821326 
   86500    217.38702    44.278137    131725.12   -41175.683    2704.7079   -43880.391    85.624265   0.94813726 
   86600    219.53113    66.030667    131613.67   -41123.239    2731.3846   -43854.624     85.80213   0.94894012 
   86700    216.43768    92.797915    131762.77   -41112.886    2692.8962   -43805.782    85.955186    0.9478663 
   86800    216.63072    49.540268    131502.23   -41181.677     2695.298   -43876.975    85.910648    0.9497443 
   86900    217.57061    104.85969    131272.62   -41146.669     2706.992   -43853.661    85.673842   0.95140547 
   87000    212.67686    164.85455    131366.25    -41140.76    2646.1045   -43786.864     85.64693   0.95072739 
   87100     215.5474    160.19322    131430.06   -41166.676    2681.8194   -43848.495    85.807329   0.95026582 
   87200    216.47119    96.224267    131227.81    -41148.66    2693.3132   -43841.973    85.840077   0.95173036 
   87300    213.57303    105.16258     131246.4    -41151.51    2657.2545   -43808.764    86.064972   0.95159559 
   87400     218.9112    79.364503    131384.45    -41173.65    2723.6715   -43897.322    86.289155   0.95059572 
   87500    209.19035    231.60826    131347.78   -41189.485    2602.7257   -43792.211    86.358191   0.95086108 
   87600    214.11361    177.84088    131370.39   -41182.033    2663.9804   -43846.013    86.349853   0.95069744 
   87700    215.02936     103.2941    131231.48   -41177.044     2675.374   -43852.418    86.282524   0.95170375 
   87800    215.74061    172.72041    131280.51   -41151.976    2684.2233     -43836.2    86.502265   0.95134833 
   87900    213.73221    158.03209    131376.32   -41162.228     2659.235   -43821.463    86.590942   0.95065449 
   88000    212.28708    1.1670127     131342.5   -41179.838    2641.2549   -43821.093    86.513173   0.95089931 
   88100    215.41068    11.667228    131193.03   -41112.455    2680.1183   -43792.574    86.706183   0.95198264 
   88200    217.24771    277.07688    131308.27   -41088.725    2702.9745   -43791.699    87.074505    0.9511472 
   88300    215.75058    112.85123     131450.1   -41125.163    2684.3474   -43809.511    86.918693   0.95012092 
   88400    215.60826    193.58764    131492.09   -41227.618    2682.5767   -43910.194    86.978654   0.94981754 
   88500    216.66478    110.80223    131516.59   -41142.474    2695.7218   -43838.195    86.782623   0.94964061 
   88600    217.25314    197.35542    131421.73   -41107.905     2703.042   -43810.947    87.028264   0.95032606 
   88700    215.48436    128.56256    131493.27   -41086.619    2681.0351   -43767.654    87.011179   0.94980901 
   88800    215.61211    190.10383     131426.3    -41028.18    2682.6245   -43710.805     87.04418   0.95029298 
   88900    217.01138    219.35643    131518.05     -41068.7    2700.0341   -43768.735    87.143267   0.94963002 
   89000    217.62594    146.91857    131552.98   -41066.883    2707.6805   -43774.563    87.171208    0.9493779 
   89100    216.45367    28.629778    131569.55   -41170.571    2693.0952   -43863.667    86.947556   0.94925836 
   89200    213.85788   -35.255665    131429.39   -41212.385    2660.7985   -43873.184    87.118824   0.95027064 
   89300    213.51664      71.9684    131463.19    -41221.47    2656.5529   -43878.023    87.132873   0.95002635 
   89400    213.06048    149.94123    131596.65    -41254.43    2650.8775   -43905.307    87.387232   0.94906284 
   89500    209.55477   -73.599098    131667.99   -41291.899    2607.2597   -43899.159    87.334923   0.94854863 
   89600    205.99651     87.64323    131521.27   -41329.775    2562.9882   -43892.763    87.288104   0.94960679 
   89700    207.35801    41.032655    131552.54    -41291.62    2579.9279   -43871.548     87.26969   0.94938106 
   89800    212.26722   -3.3553756    131659.21   -41247.979    2641.0077   -43888.987    87.515777   0.94861187 
   89900    212.71913    42.676973    131574.67   -41307.405    2646.6304   -43954.035    87.984046   0.94922141 
   90000    214.07531    246.18778    131445.57   -41217.862    2663.5038   -43881.366    87.869902   0.95015367 
   90100    216.27817    16.443435    131561.18   -41230.132    2690.9116   -43921.043    88.069526   0.94931871 
   90200    216.69295    286.62933    131638.93   -41270.016    2696.0722   -43966.088    88.063312   0.94875803 
   90300    213.89564    108.13865    131631.84    -41281.96    2661.2684   -43943.228    88.131982    0.9488091 
   90400    212.83651    198.52978    131551.18   -41268.072    2648.0908   -43916.163    87.942638   0.94939085 
   90500    215.24431    248.98905    131463.38   -41222.768    2678.0484   -43900.816    88.268086   0.95002498 
   90600    218.80972     160.4412    131571.23   -41131.833    2722.4089   -43854.242    88.035682    0.9492462 
   90700    216.93618    1.5670086    131636.11   -41137.137    2699.0985   -43836.235    88.245641   0.94877833 
   90800    215.87746    -21.00487    131405.62   -41176.412    2685.9261   -43862.338    88.330449   0.95044251 
   90900    216.66105    139.56478    131531.15   -41274.019    2695.6754   -43969.694    88.416334   0.94953548 
   91000     209.7752   -62.088987    131553.44   -41282.755    2610.0023   -43892.758    88.717867    0.9493746 
   91100    208.71034    70.839354    131474.55   -41278.492    2596.7534   -43875.245    88.644358   0.94994426 
   91200    212.86291    51.624502    131465.17   -41240.985    2648.4193   -43889.404     88.79597   0.95001203 
   91300    212.84903   -52.066194    131315.07   -41150.579    2648.2466   -43798.825    89.091541   0.95109792 
   91400    217.21591    61.211121     131468.3   -41133.826    2702.5789   -43836.405     89.03435    0.9499894 
   91500    214.41634   -4.0246006    131455.13   -41141.888    2667.7469   -43809.635    89.135057   0.95008456 
   91600    209.45147    124.45004    131518.88   -41176.457    2605.9745   -43782.432     89.30455   0.94962404 
   91700    212.54684   -3.1424414    131449.65   -41246.333    2644.4867    -43890.82    89.289891   0.95012417 
   91800    213.77449   -113.41037    131582.75   -41215.336    2659.7611   -43875.097    89.431747   0.94916307 
   91900    215.58345    117.31931    131551.76   -41220.782     2682.268    -43903.05    89.328309   0.94938669 
   92000    215.39959   -16.372189    131390.66   -41228.726    2679.9804   -43908.707    89.009716   0.95055077 
   92100    215.42525    239.17174    131578.49   -41279.694    2680.2997   -43959.994    89.259045   0.94919382 
   92200    218.85666    78.269884    131591.83   -41219.527     2722.993   -43942.519    89.380978   0.94909758 
   92300    219.39823    204.10564    131599.99   -41136.326    2729.7311   -43866.058    89.604737   0.94903875 
   92400    217.14867    113.35474    131612.75   -41143.087    2701.7423   -43844.829    89.484783   0.94894672 
   92500    214.22231    85.509528    131573.59    -41191.56    2665.3328   -43856.892    89.489568    0.9492292 
   92600     216.7435    236.58627    131569.46   -41164.803    2696.7012   -43861.504    89.713764   0.94925901 
   92700    217.81745   -89.928212    131513.76   -41156.277    2710.0631    -43866.34     89.60709   0.94966099 
   92800    218.26413    124.95601    131474.81   -41187.944    2715.6207   -43903.565    89.482721   0.94994235 
   92900    210.02528    193.77148    131484.72   -41138.576    2613.1138    -43751.69    89.508632   0.94987079 
   93000    213.54366    23.847721    131538.89   -41162.213    2656.8892   -43819.102    89.678547    0.9494796 
   93100    214.99786     73.91526    131557.45   -41096.444    2674.9821   -43771.426    89.826479   0.94934566 
   93200    217.21336    160.85979    131593.33     -41108.2    2702.5472   -43810.747    89.974318   0.94908678 
   93300    214.32294    143.20773    131460.64   -41134.784    2666.5848   -43801.369    89.872428   0.95004473 
   93400    218.88136    113.25232    131471.04   -41172.692    2723.3003   -43895.993    90.047299   0.94996957 
   93500    213.80429    132.74393     131511.8    -41221.42    2660.1319   -43881.551    90.010411   0.94967519 
   93600    211.59406    83.427469    131461.86   -41285.749    2632.6324   -43918.382    89.932538   0.95003593 
   93700    211.23403    87.673277    131430.51   -41253.663     2628.153   -43881.816    89.925392   0.95026257 
   93800    212.42829    176.11954    131433.69   -41230.757    2643.0118   -43873.769    89.892376   0.95023958 
   93900    214.69758     226.8558    131534.08   -41203.263    2671.2461   -43874.509    89.865076   0.94951429 
   94000    214.42358   -75.913297    131546.96   -41217.428    2667.8369   -43885.265      89.9163   0.94942133 
   94100    212.77084    131.46643    131482.54   -41225.232    2647.2737   -43872.506     90.11224   0.94988648 
   94200    209.28291    143.27374    131558.62   -41214.641    2603.8772   -43818.518    90.326287   0.94933717 
   94300    217.08974    123.21963    131808.65   -41171.511     2701.009    -43872.52    90.463558   0.94753641 
   94400    218.13032    187.92402     131763.8    -41163.75    2713.9559   -43877.706    90.427316   0.94785892 
   94500    219.41603     76.50154     131806.7   -41105.656    2729.9525   -43835.609    90.641797    0.9475504 
   94600    216.86969    28.956306    131629.49   -41144.351    2698.2712   -43842.622    90.561402   0.94882603 
   94700    217.68959    110.69092    131640.17   -41179.674    2708.4724   -43888.146    90.818531   0.94874908 
   94800    214.41411    110.95235    131778.31   -41173.972    2667.7191   -43841.691     90.68082   0.94775451 
   94900    213.54098    129.64033    131807.75   -41160.748    2656.8558   -43817.604    90.923601   0.94754284 
   95000    214.63455    169.64971       131807   -41135.573    2670.4618   -43806.034    91.116643   0.94754824 
   95100    217.67633    137.41608    131668.29   -41135.935    2708.3074   -43844.243    90.859935   0.94854646 
   95200    217.18464    55.614987    131722.89   -41154.282    2702.1898   -43856.472    91.119737   0.94815325 
   95300    218.57673    201.67848    131689.09   -41065.126    2719.5101   -43784.637    91.170018   0.94839664 
   95400    217.16744    243.66795    131685.59   -41130.284    2701.9758    -43832.26     91.34522   0.94842187 
   95500    216.89094    174.17902    131679.94   -41139.903    2698.5357   -43838.439    91.277447   0.94846254 
   95600    219.14223    128.22863    131555.66   -41126.855    2726.5459   -43853.401    91.157324   0.94935859 
   95700    214.91366    104.99747    131465.77   -41186.125    2673.9345    -43860.06    91.142547   0.95000766 
   95800    215.75947    88.908083    131592.33   -41234.228     2684.458   -43918.686    91.476598     0.949094 
   95900    214.99028    100.41918    131381.51    -41182.92    2674.8879   -43857.808    91.475517   0.95061694 
   96000    211.30333     5.181582    131254.45   -41266.084    2629.0152   -43895.099    91.507639   0.95153719 
   96100    214.10211    153.32242    131198.07   -41208.024    2663.8372   -43871.861    91.129044   0.95194613 
   96200    212.62432    110.25977    131285.23   -41246.297    2645.4508   -43891.747    91.555639   0.95131414 
   96300    214.10176    200.78924    131497.89     -41184.2    2663.8329   -43848.033     91.71005    0.9497756 
   96400    216.43161   -50.526205     131357.8    -41162.82    2692.8207   -43855.641    91.601836   0.95078856 
   96500    214.03492    137.00503    131433.71   -41216.395    2663.0014   -43879.396    91.859095   0.95023937 
   96600    216.68278    191.00853     131380.1   -41216.621    2695.9457   -43912.567    91.773951   0.95062714 
   96700    211.45432     81.70211    131422.06   -41289.081    2630.8938   -43919.975    91.880554   0.95032362 
   96800    211.77675    52.524344    131470.96   -41337.517    2634.9054   -43972.422    91.952981   0.94997017 
   96900    208.39509     79.04965    131433.29   -41286.402    2592.8312   -43879.233    92.105098   0.95024243 
   97000    213.34728    100.57325    131655.03   -41289.738    2654.4458   -43944.184    92.117318   0.94864197 
   97100    211.08504    127.75036    131575.47   -41290.509    2626.2992   -43916.809    92.077347   0.94921563 
   97200    214.70241    97.761798    131662.02   -41315.234    2671.3062    -43986.54     91.93815   0.94859162 
   97300     209.0823   -41.385929    131458.66    -41322.29    2601.3814   -43923.671    91.717354   0.95005908 
   97400     212.4086    147.31656    131521.78   -41340.668    2642.7668   -43983.434    91.999085   0.94960313 
   97500    212.85215    -64.30855    131708.56   -41253.919    2648.2854   -43902.204    92.014534   0.94825643 
   97600    215.69716    44.474151    131627.58   -41308.817    2683.6828     -43992.5    91.928555   0.94883981 
   97700    214.48421    118.69417    131430.94   -41238.472    2668.5914   -43907.064    92.025289   0.95025946 
   97800    217.09572     118.3634    131517.48   -41207.447    2701.0835    -43908.53    92.234113   0.94963412 
   97900     214.8935     90.19319    131478.63   -41171.691    2673.6837   -43845.375     92.28688   0.94991478 
   98000    216.00977    81.438053    131445.18   -41192.943    2687.5722   -43880.515    92.277958   0.95015652 
   98100    218.23193    120.44937    131365.78   -41262.637    2715.2201   -43977.857    92.192211   0.95073082 
   98200    212.75166   -59.413498    131270.82   -41235.352    2647.0351   -43882.387    92.361244   0.95141855 
   98300    217.80991    113.84836    131276.26   -41245.999    2709.9694   -43955.968    92.487145   0.95137911 
   98400    216.47908    154.94956    131364.55   -41254.158    2693.4113    -43947.57    92.838714    0.9507397 
   98500    214.06408    23.213037    131311.58   -41251.289    2663.3642   -43914.653    92.947448   0.95112319 
   98600    212.07732    63.326901    131187.68   -41267.004    2638.6451   -43905.649    92.847744   0.95202147 
   98700    209.85177    149.25698    131274.41   -41302.506     2610.955   -43913.461    92.699615    0.9513925 
   98800    211.61078    199.98879    131369.46   -41261.851    2632.8404   -43894.691    92.786558   0.95070416 
   98900    209.91376    169.15164    131373.17   -41270.619    2611.7263   -43882.346    92.776153   0.95067732 
   99000    211.28448    90.155543    131533.58   -41300.855    2628.7806   -43929.636    92.902741   0.94951791 
   99100    213.75059    15.939295    131559.02    -41222.26    2659.4637   -43881.723    93.116129   0.94933429 
   99200    212.55969    115.16131    131495.42   -41203.241    2644.6466   -43847.887    93.226158    0.9497935 
   99300    216.87901     45.06364    131523.17   -41160.704    2698.3872   -43859.091    93.194825   0.94959309 
   99400    215.14266    374.14666    131668.62   -41128.677    2676.7837   -43805.461    93.305998   0.94854407 
   99500    223.18856    180.72358    131643.07   -41026.881    2776.8899   -43803.771    93.480849   0.94872817 
   99600    220.27043    185.48962    131616.67   -41051.025    2740.5829   -43791.608    93.464707    0.9489185 
   99700    219.71272    234.11529    131560.85    -41070.61     2733.644   -43804.254    93.582076   0.94932111 
   99800    215.07799    116.15788    131466.04   -41088.064    2675.9791   -43764.044    93.712849   0.95000573 
   99900    217.54237   -88.513885    131333.21   -41140.117    2706.6406   -43846.757    93.824485   0.95096657 
  100000      213.681    118.39862    131356.69   -41153.482    2658.5979    -43812.08    93.953931   0.95079657 
  100100    219.53572   -10.355326    131379.18   -41091.825    2731.4418   -43823.267    94.168273   0.95063382 
  100200    216.80222   -66.604998    131102.39   -41100.121    2697.4318   -43797.553    93.762372   0.95264085 
  100300    217.14124    263.48759    131033.86   -41089.805    2701.6498   -43791.455    93.701207   0.95313907 
  100400    215.03882   -77.100486    131033.82   -41144.532    2675.4917   -43820.024     93.77606   0.95313935 
  100500    216.12424    104.82561    131090.31   -41070.232    2688.9964   -43759.228    93.679209   0.95272864 
  100600    215.50747    179.36036    131100.24   -41133.575    2681.3226   -43814.897    93.776214   0.95265644 
  100630    214.25858    125.44904    131134.41    -41114.71     2665.784   -43780.494    93.828323   0.95240826 
Loop time of 82.7572 on 6 procs for 100000 steps with 4175 atoms

Performance: 522.009 ns/day, 0.046 hours/ns, 1208.354 timesteps/s
98.5% CPU use with 6 MPI tasks x no OpenMP threads

MPI task timing breakdown:
Section |  min time  |  avg time  |  max time  |%varavg| %total
---------------------------------------------------------------
Pair    | 64.695     | 67.296     | 69.512     |  19.0 | 81.32
Neigh   | 4.985      | 5.024      | 5.0663     |   1.2 |  6.07
Comm    | 5.6555     | 7.8797     | 10.527     |  55.8 |  9.52
Output  | 0.16056    | 0.16138    | 0.16485    |   0.4 |  0.20
Modify  | 1.7575     | 1.7824     | 1.8106     |   1.5 |  2.15
Other   |            | 0.614      |            |       |  0.74

Nlocal:        695.833 ave         707 max         684 min
Histogram: 1 0 1 1 0 0 0 2 0 1
Nghost:        1471.83 ave        1479 max        1461 min
Histogram: 2 0 0 0 0 0 0 1 2 1
Neighs:        0.00000 ave           0 max           0 min
Histogram: 6 0 0 0 0 0 0 0 0 0
FullNghs:      19354.7 ave       19770 max       18959 min
Histogram: 1 1 1 0 0 0 1 0 1 1

Total # of neighbors = 116128
Ave neighs/atom = 27.815090
Neighbor list builds = 5385
Dangerous builds = 0

undump              1
unfix               2
unfix               3
unfix               4


################################################
#######         Run Simulation         #########
################################################

reset_timestep      0
log                 log.run_${NAME}
log                 log.run_liquid_density_MLmW
