LAMMPS data file via write_data, version 29 Oct 2020, timestep = 800000

4175 atoms
1 atom types

-0.4385487620579802 50.43854876205356 xlo xhi
-0.4385487620579802 50.43854876205356 ylo yhi
-0.4385487620579802 50.43854876205356 zlo zhi

Masses

1 18.015

Atoms # atomic

1455 1 1.7630950861829469 1.703250588650505 1.883586496362415 0 0 1
2782 1 50.39110573559388 12.663852643222743 16.07761805852693 -1 1 0
1992 1 6.605799451026028 2.328743454152805 1.0406295521390285 0 0 1
974 1 15.395657135507598 6.805524096262678 0.06900376936352615 -1 0 0
2426 1 35.533661644675036 24.121979894227927 0.6655987635095786 0 0 1
1570 1 16.700497221721808 1.134236879996705 2.864458717978675 0 -1 0
3390 1 8.192413617423442 24.92216148323595 5.739731122482084 0 0 0
4097 1 31.446075865399937 23.87460903541065 0.01023290673038768 -1 1 1
2387 1 21.39598525204385 0.9909218881235766 1.750950635575653 0 1 0
900 1 28.630428741270638 2.314867375162329 1.1580503943288754 1 0 0
1885 1 32.00276233934231 0.6104263299334862 3.2690850761202994 0 0 0
1691 1 10.835342703557208 24.506443227794318 9.541234074593913 0 0 1
3537 1 4.134956511948485 4.809734739798794 -0.31240503743183556 0 0 1
1025 1 39.63406490162029 0.7434133657728195 2.0563515788410247 0 1 0
468 1 6.823130440262417 24.789651523327457 15.925759180035094 0 -1 0
85 1 42.383885486720516 0.8361479949271107 1.4554208840070744 0 0 0
2441 1 43.717390781483246 2.4097969511590915 3.250541209986184 -1 1 -1
1194 1 47.523250244379184 1.003946898013076 0.8673549806188976 0 0 1
3383 1 -0.42756783505591045 0.9044573618993315 0.4996655919530908 0 0 0
2470 1 2.4650450683222997 4.422941370576835 2.2212578661503097 0 1 0
470 1 8.719378917675542 5.677601173242921 3.1556129725575914 1 0 0
1667 1 9.600449191301465 4.805405769508257 0.38361470749838456 1 0 1
1643 1 12.327753927065258 5.688022411796368 0.7938920082263501 1 0 0
2035 1 18.96656560854278 1.4755685469826076 0.8634810808949722 0 0 1
2929 1 23.37052948175287 2.922474518020466 1.9885646123045526 0 1 1
3599 1 27.99089683683114 0.6089464255439463 11.5077881696181 0 1 1
3590 1 25.974301245977493 6.602188844512481 2.084390453990896 0 0 1
2377 1 28.22630880566012 4.8821291125278945 2.0443306524790334 0 1 0
231 1 30.600093544949804 4.8636284549490965 3.458798650703156 -1 0 1
3510 1 33.98024624266115 3.9591905379069274 0.5804019449113222 0 1 1
2345 1 38.542826288814325 5.544432457389669 1.8503346024551743 -1 1 0
793 1 41.00145825893608 7.02386834909384 1.0652643474092716 0 0 1
2728 1 46.20223131166587 3.309696678089972 1.9038280560018919 -1 0 0
109 1 0.4192208118481814 6.4588920114898585 1.4678146063544362 0 0 0
2500 1 4.670926049391056 8.548818099035014 4.1720668342611225 0 0 0
1292 1 15.297848089976828 24.987449123968577 11.634205127683675 0 0 1
1030 1 10.08660126195817 7.949754567151782 3.5773123892637937 1 0 0
2053 1 11.452068356366777 8.369141376239192 1.2632925065487437 0 0 1
2927 1 37.849911366473876 24.665604631934052 2.3762976190531324 0 0 0
2843 1 8.21090890777138 24.481189325255244 13.388639063666641 0 0 1
1852 1 40.66034754911928 22.181234042802544 -0.19003053525775326 0 1 1
1611 1 15.715774477459878 7.947045541524863 3.3115419255979464 0 0 1
1462 1 30.189511256172448 -0.0070116488958589795 1.1702597394164396 0 0 1
1919 1 22.049822793999642 9.001408810874787 1.568110005816031 0 0 0
370 1 21.92671080138943 24.203426858315183 14.741491627732923 0 0 0
1990 1 32.71602252255137 6.099127349290613 2.1462836310934814 0 0 1
3628 1 33.46601592284986 8.721719559276913 1.436958133245555 0 1 1
430 1 36.27059640224287 9.305612658543295 1.2701042338374142 0 0 1
3130 1 37.06324009111515 7.443538479357777 3.158277930805105 -1 1 0
1472 1 42.71128322482362 7.304596446525784 3.0716193902731908 -1 0 1
2580 1 45.06772835563548 8.103320924914494 1.752222022935197 -1 1 0
408 1 4.9063184459010705 23.47829440248365 11.69210340632571 0 0 0
1948 1 7.065554053304285 10.554739152408123 1.105997354790227 1 0 0
942 1 8.563901008273469 10.183143149832365 3.274028204276753 1 0 1
689 1 12.74311274991198 11.734824926391301 3.341460085924114 0 0 0
503 1 14.34376581534958 12.625970931546043 0.9973304635111635 0 1 0
618 1 18.77829436420569 10.260177800713393 0.5958345722512348 0 0 0
664 1 20.500697401533266 12.280183442555396 1.8970397503535201 0 0 1
1196 1 27.74376012733676 9.759030452290549 -0.15091958324714888 0 0 1
22 1 14.937648027200952 23.804509865129777 7.208323788169854 0 0 0
2632 1 29.713016298050935 11.648593678097535 1.0787974666352556 0 0 0
1435 1 32.246476181689545 11.123301726927897 2.320023863774497 0 0 1
3672 1 36.76100437645104 12.014641707385621 1.9436062099866116 0 1 1
238 1 41.30813322789845 11.68136216528794 2.4513382719675745 -1 -1 0
3753 1 37.7454301787575 0.13927386380767282 0.17216810563498863 -1 1 1
2611 1 35.7427281762737 19.735181218512384 16.208749880470386 -1 1 0
2454 1 45.01731323885217 10.773260058147251 3.2634278870873956 0 0 0
560 1 49.47953128117004 10.37056534370077 0.6435883050961857 -1 0 0
1574 1 0.7785543529420893 14.274287616321937 0.48771387746427086 1 0 1
3702 1 15.336319146719525 3.9325807366829375 1.8545364314150579 0 1 1
2713 1 2.65428889512266 15.301913856057597 2.950762324360564 0 0 0
1173 1 6.8424579607106475 14.331164780887189 1.797581160207562 0 0 0
2358 1 9.300442144230596 13.381920208518517 1.2970350318128894 0 0 0
2324 1 4.874040379648425 16.641317280589192 15.676321232730949 0 1 0
804 1 1.2299885872922542 9.111078286213363 1.7264107945076375 1 0 0
2886 1 14.988705260457262 15.239288406877357 1.203296588778187 0 0 1
2583 1 24.300081867491617 5.103742276385292 0.5875245951392907 0 1 0
3833 1 17.614577841403943 15.73740388195063 1.412519261906794 1 0 1
1666 1 25.368398426565207 12.276632968889558 1.765585361076064 0 0 1
569 1 27.26354186093052 13.996143200115785 1.7629469598585321 0 0 0
1965 1 28.594802731102817 22.82383053172397 0.7788043393109452 -1 0 1
1699 1 34.31654922025679 13.09717571301146 2.7008228028631733 0 0 1
11 1 33.66605391197301 15.114722853639735 0.9919278682410064 0 0 0
2328 1 17.98197244008041 24.815256143554112 12.367110026776485 0 1 0
1246 1 43.668605916348056 13.067153156187647 2.026132212134362 -1 0 0
376 1 47.17973894089482 13.427777018674664 1.6753977898111794 -1 0 0
3554 1 4.7434408616702 12.206960429814576 1.3241212990297893 0 1 1
860 1 25.79385004445617 24.05696499000877 10.441196660024291 0 -1 0
2311 1 5.035381934620062 16.64748114963612 1.158204240118898 -1 0 -1
3820 1 7.611475607030936 17.503029317484916 0.33889325302804063 1 0 1
2685 1 11.816511221788023 18.011031118159476 0.022047244742428973 0 0 0
524 1 10.188679066425301 16.08359263861799 1.524993325557195 0 0 0
2552 1 32.88004991931646 2.739121113342719 16.304693583306875 0 1 0
3497 1 40.949480503392806 16.73900055379013 -0.42935609190855273 0 1 1
1999 1 9.955778664802759 -0.01675199984312098 4.985824787433249 1 0 1
3874 1 21.523027797585605 13.93849553245861 -0.11484043080080097 0 0 1
3191 1 26.64845809628723 16.578925690581492 0.6482715152241829 -1 0 0
3588 1 16.1802654408079 21.43722095528315 0.36004976790033205 1 0 1
3163 1 33.001217965766514 17.192909147296184 2.4251405318979833 0 0 1
2376 1 35.45839575284681 18.405423738712404 3.282784922466379 -1 0 0
3518 1 37.60501587357335 18.423220327113814 1.492193635111621 -1 1 1
1549 1 38.48435967256846 15.842834440652489 1.0316726809094598 0 0 0
2487 1 48.0213829913598 -0.0737375466130451 11.005537480151897 -1 1 0
1113 1 47.64188284233914 16.322520993522826 2.010868148211024 0 -1 1
1122 1 5.362386279723367 8.254197535675226 1.256610160235259 0 0 0
2359 1 0.543141212005331 19.91574574636984 2.1243500595348 1 1 0
2638 1 3.1482486521558526 20.629353843431325 1.7823354964281295 1 1 0
1283 1 10.047231718861216 8.185234853632348 14.132578689979278 0 0 0
1721 1 8.198256695369832 20.0095173710697 1.1949471188485377 0 0 1
1668 1 42.81028235765055 5.174776467434205 -0.24364275943895888 0 0 1
1132 1 11.641393728145108 18.886370849890483 2.846941404073295 0 -1 0
2246 1 10.474428335767676 21.485811323965077 2.11685370413117 1 0 0
2343 1 14.575616121733269 22.18199393929964 2.9234803973688726 0 0 1
495 1 18.670038480328106 20.860739489590028 1.8624819671094994 0 0 0
1295 1 13.91557388322241 -0.302997563604524 12.487085807369127 0 1 0
481 1 21.739469456490568 18.009757234755728 -0.02328987169736385 0 0 0
3127 1 24.919656558328736 20.269973515330047 0.5663806116694683 0 0 0
3440 1 27.2093910072734 18.709345897444628 2.461289139224635 0 0 1
753 1 29.462635173007072 20.083471043695653 0.9614682113751645 0 0 1
493 1 -0.37200853002790485 18.745212981938927 -0.11726312464994948 0 0 0
1227 1 39.50762902881941 20.540750095266294 1.7722431320575942 0 -1 1
3647 1 43.14924899147523 18.467601173923686 -0.006292182946400382 -1 0 1
2753 1 46.18350923260394 20.36256861776625 0.474970055872314 0 0 0
1659 1 49.7120810647598 22.065824598371446 1.4445640602787755 0 0 1
4146 1 7.9702445501184584 24.430923887915043 8.509072562732772 0 0 1
3403 1 13.012512011449441 11.559201527842767 15.459581959065162 0 1 0
788 1 4.8847473401435835 23.3343542825803 0.6685872481437152 0 0 0
1863 1 36.87172170216874 0.2639664138485336 5.569747865847113 0 0 1
1739 1 32.406301946482415 -0.06300944096138733 12.83838329844957 0 1 1
4047 1 12.660854653249421 0.4773614877017278 0.13016489812781984 0 1 1
3072 1 20.262169453206017 23.08997616638743 0.15156723523775362 0 0 0
2002 1 11.211421710891255 22.497425123623874 -0.3720036370459474 0 0 1
3611 1 26.396400196722734 21.974256252620748 2.4071889940266056 1 0 1
1131 1 32.330226269393094 24.750777253733496 4.983064758724002 0 0 0
3982 1 32.19691579505367 19.475231847620524 1.0008743423699886 -1 0 0
2471 1 33.78061589008412 21.82611738344108 0.8662836751063101 -1 0 0
465 1 36.187273212627844 24.826116546655747 10.539224159746135 0 -1 0
2460 1 11.008571060188919 24.641328777856508 12.705639085786522 0 0 0
3943 1 40.31949210128988 24.82645208333052 0.7876992527784052 0 0 1
4162 1 45.40516872848467 12.211436184358224 -0.4190559857194183 0 1 1
1150 1 44.0547422203223 23.0651400524198 1.0126060186444596 -1 0 1
751 1 46.997549697196604 22.708916487062066 2.2982968286506043 0 0 0
3605 1 3.6201734791813784 0.17604060744427608 3.652493570384771 1 1 1
2019 1 3.155203430413586 0.8976598690365758 6.088996934774786 0 0 1
3075 1 6.158032914779887 1.019831745930448 3.698644703796017 0 1 1
1849 1 39.7247391269148 -0.28431914929186125 11.28531363745482 1 0 1
1695 1 13.947788781667851 9.131590289293253 0.41528260083851953 0 0 1
2622 1 14.395659930687218 1.9195903407884183 4.104620497850157 -1 1 0
653 1 0.26355616192183895 19.11996721760914 16.332504615006705 1 0 0
2835 1 4.97333146065437 12.309041457798447 15.359996170055883 0 0 0
155 1 25.70537402487822 1.5535082928700263 2.4051630180900654 0 0 0
875 1 30.998717206555543 2.451079932614154 4.785777050055849 0 0 0
2126 1 45.24709501836678 22.66487398509205 13.402754662193582 -1 0 0
1245 1 43.49361515093841 24.824129107102777 6.02513062111381 0 0 0
2297 1 34.41432424694352 1.4982431085362542 1.9679847361518092 0 1 1
2044 1 16.357767694337767 18.879244303616044 15.193706677107382 0 0 1
4056 1 44.156880013962876 0.22326724509209228 4.746322744291203 -1 1 1
1189 1 50.14203588374589 1.6603272641378823 3.830661362201849 0 0 0
2662 1 2.07795566471934 4.971370103330302 5.524228022799905 0 0 -1
1840 1 0.7553907326123073 2.574075972756914 5.941382596292597 1 0 1
144 1 4.376670667119217 5.565488382287322 3.893130195271432 1 0 0
3750 1 5.828816603459264 3.573656005094212 5.0570547940641735 0 1 1
170 1 8.301689621334402 4.573182006612742 6.057800585496017 0 0 0
1976 1 10.913402395754083 3.7305786664579976 3.258356709072919 0 0 1
405 1 12.60228727192919 6.275964149695042 5.868051403791657 1 0 0
1512 1 13.322464758310835 5.133956799087581 3.3101240351193666 0 1 1
3128 1 18.198053207487156 4.238614587472562 2.6839839817061466 0 1 1
2548 1 20.224272949809123 3.8735851925820564 4.893325391944402 0 1 0
2050 1 22.961408264712084 3.391214465899778 4.623254513638384 0 0 1
2003 1 27.375600183683837 3.693497857243239 4.458743667839965 0 0 1
1860 1 28.48104457934791 1.605419622539186 5.979619490885058 0 0 1
4053 1 32.39683243832309 3.556625190082554 6.6816195728936325 0 1 1
857 1 35.99590615274367 2.486600925933253 3.99949760682619 0 0 0
3955 1 34.75964862999054 4.307523534241261 5.537627480923303 0 1 2
2384 1 38.92246028306188 3.3074845062769516 3.360297513017664 0 1 0
120 1 40.54498422755289 4.057214952380703 5.448265737682877 0 1 0
1811 1 42.98121002854758 4.733724461610333 4.651351645100778 0 1 1
2607 1 46.943713061066035 3.582445903919055 6.297322154647993 0 1 0
3402 1 48.00781201247369 3.7630303849861457 3.772610991297058 -1 1 1
1824 1 7.015945369676869 9.623995588083286 5.361462712861707 0 0 1
1358 1 8.043662423905813 7.163968537030618 6.8200769861328325 0 0 0
2302 1 10.610918765177958 8.191951248914497 6.430740814586071 0 0 0
2994 1 13.37414477934087 8.971226255137873 3.972144755605269 0 0 1
2135 1 17.844350882960175 6.78240349788893 1.695650589351775 -1 0 0
3742 1 19.161313424256825 5.2583824372076196 8.129420751556957 0 0 1
2829 1 24.06117885017216 8.819184582703267 3.8736101317417706 0 1 1
2724 1 26.607084879804386 9.697353597016093 2.5941576943394558 -1 1 0
1720 1 26.346726658289914 6.950238228457828 5.297650004185384 0 1 1
1749 1 29.473795986278652 6.489671107217303 5.35751169291855 0 0 0
2444 1 34.484696929156385 6.693775965985094 4.169250318735078 0 0 0
2529 1 38.70424144172783 8.46219244233849 5.098724135009863 0 1 0
2609 1 41.36444646682091 9.313391454396617 4.39003502269674 -1 0 0
899 1 45.94222450871608 7.932072991394051 6.086912963438439 -1 0 0
1881 1 47.324514717096946 8.309438294915594 3.6048073431175824 -1 0 1
609 1 0.129632391461608 6.880033056741573 5.7251570609846745 1 0 0
2220 1 49.30810804405219 6.313948979114876 3.399365166464125 0 1 0
1970 1 2.6373028680571675 10.14951569319953 3.9291303655332284 0 0 1
2159 1 0.34702383153590644 9.55782829173814 5.376123187141827 1 1 0
1971 1 3.634592853354337 12.852951718746288 3.8476262701187975 0 0 1
1853 1 10.125995463607165 12.341248033740303 3.71952376702692 0 0 1
3757 1 10.11890207853208 11.23582708097398 6.463683268177001 1 1 1
2541 1 16.13301102713093 10.651619168112841 2.106031792127241 0 0 0
3311 1 18.177284308312764 9.622193703947037 4.896245794979899 0 1 1
1423 1 20.633555479040446 10.990009556691085 5.517122877893722 0 0 1
4166 1 22.94555546127993 11.803129016485315 3.4651906004030124 0 0 0
1396 1 27.165542608338352 10.649940098575382 5.489796316514757 0 -1 1
4075 1 29.56360977316539 9.246264866891554 5.688595468486479 0 1 1
1257 1 31.883548944407597 10.613079330995054 5.109631647028475 -1 0 0
2277 1 34.13688724900058 8.950879064770382 5.705467210827673 -1 0 0
2947 1 38.16735488344122 11.300303789395779 6.014493067855132 0 0 0
2783 1 43.88356342782714 9.951706330795185 5.747963793482231 0 1 0
4043 1 40.86732210692212 11.28703767071157 6.599197834772677 0 0 1
3932 1 49.35954768000265 10.232915278626779 3.422296970181114 0 1 1
1255 1 1.9871866813710888 16.067545711304724 5.640145483569738 1 0 1
343 1 7.8451806165563625 17.273133914135297 3.4166039818918756 0 -1 0
585 1 7.381401021633684 11.699284277205644 6.8898307091943956 0 0 0
2021 1 6.586647995851976 13.212426509453485 4.388632337378665 0 0 1
2237 1 8.994621712516153 14.60362977205239 5.059008753596895 0 1 0
1597 1 14.214456703968676 13.053121383960072 5.216729420328043 0 0 1
2333 1 18.72571219539374 13.971225081834593 3.253195904550321 0 0 0
3635 1 24.276898808419546 14.023641261942654 4.480862089321077 0 1 1
2461 1 27.99398424289173 13.187365763404586 5.713745762177429 0 0 0
892 1 30.952286862957948 12.805138405526991 6.2851095518054 0 1 0
34 1 32.309182828288115 15.155801201796962 5.9895894237072405 0 0 0
3693 1 34.3830383412611 13.901892582398421 5.27971661756463 0 0 1
2435 1 37.010595568472255 15.20540305463103 5.568605496505019 0 0 1
2657 1 38.84059126152951 12.358182886148112 3.5042997628920083 -1 1 0
2718 1 38.845470649292636 15.024155590343224 3.6509088743441387 -1 1 0
1959 1 45.290649655534835 12.805920549177564 5.869213003977848 0 0 1
2417 1 49.449752592647116 14.149250072776601 5.305574320176226 0 0 0
4024 1 47.664218128189916 12.195840741036099 4.232405909562015 -1 0 0
1871 1 0.1159231865376531 18.4559495573426 4.276581243269972 0 0 1
2025 1 5.307116859717695 16.167130966981187 4.792801634023325 1 0 0
249 1 4.680252389403992 18.53276284870165 3.382275949396735 1 0 0
882 1 11.149532584671926 16.303272605796398 4.148019322867787 1 0 1
3495 1 14.074066563653615 15.480631090649986 3.8435644880584077 0 0 0
1581 1 15.430350528441005 17.823363547552322 4.094930450126383 -1 0 1
3036 1 17.497271699561548 18.337679384342273 2.259327949662011 0 0 0
4110 1 19.632024129208055 15.519704373267512 5.6046636929516565 0 1 1
403 1 19.78013711740565 18.022965363483227 3.7422553336748168 0 -1 0
2085 1 23.76213056922066 15.050291708997358 1.4622346278132867 0 0 1
3382 1 22.516632032504457 17.472251649616847 2.758655206857804 0 1 1
3544 1 26.895482318529773 14.934508137861862 4.1287586395753175 0 1 1
2202 1 28.224083437992295 17.451039469303378 4.924495956369334 0 1 0
1393 1 31.005334616617073 17.54901174445922 4.741049070624026 0 -1 1
262 1 36.23154545116587 17.78773546448891 5.816276216762163 0 0 0
1330 1 44.037136937628816 14.828474367709482 4.306777114910977 0 0 -1
2213 1 41.25361211729765 15.546609157500127 5.03277665785008 0 0 0
1467 1 40.905133752088716 18.3286082405494 5.568245792190283 0 0 1
3650 1 45.48681770443112 17.05278518744862 3.647893696567878 0 1 1
3437 1 -0.37203191959081483 15.812535392275322 3.100568015175278 1 0 1
2535 1 2.449475290585876 22.081855247795083 5.364593325634849 0 0 0
3493 1 4.652648966441309 22.73803134160277 3.6106666784093013 1 0 1
2773 1 6.62520099417167 20.44024066312466 3.80328987920016 0 1 0
2779 1 13.593106098283384 19.88676928256504 4.485775092397878 -1 0 0
543 1 17.251531715721736 22.880044403311178 3.620402470415873 0 0 0
375 1 21.004934754104717 20.66028142662203 3.7492202035218334 -1 0 0
3274 1 19.928419519039053 21.381511372692707 6.015369063519339 0 1 1
2711 1 24.079028490479136 20.02133124119194 3.4837775167508593 0 0 0
3289 1 30.06789004158078 20.39555283559114 3.7612449653507314 0 0 1
3328 1 33.82150011587585 20.976482368882284 5.6793640122636475 0 0 0
1700 1 35.1739386994722 21.23098276304528 3.189027546836576 0 0 1
1440 1 41.75022913055302 19.928158659466654 3.4100551212976282 0 0 1
3865 1 44.3589451535689 19.303009340914375 2.5299317582903345 -1 0 1
2669 1 44.424676156098954 20.8614019164258 5.0045287242295915 0 0 0
1469 1 49.156633405009146 19.426240828523486 6.11209128147432 0 0 1
3970 1 49.12782267838449 22.239898589509497 5.937392688970512 0 0 0
2410 1 0.05214571400294771 23.033509376354843 4.076497274589448 1 0 0
3990 1 13.23588165275823 2.7765401942728207 16.347721206479402 1 1 1
3310 1 23.58972725820681 1.2577568453002939 6.493785087254534 0 0 0
432 1 10.034791956258 23.559906337793617 3.891043243811718 1 -1 0
4118 1 12.813943998316999 24.38891486134446 4.559579233497608 0 0 1
2404 1 42.09189412000009 14.284105003891252 -0.21271835270133624 0 0 0
2292 1 23.254812302321515 18.172934416884758 15.715016951407428 0 0 0
1891 1 21.605591065325285 23.544945935123312 2.652270664025812 0 0 1
945 1 24.359135330233606 23.3739288468007 3.889037321700643 0 0 0
1501 1 27.826521920265126 21.474947259687646 4.980009136410594 0 0 1
1346 1 32.04816377021315 22.185690338682125 3.924232842101471 0 -1 0
1819 1 25.689769637923632 24.93898338882695 7.869122910721233 0 0 1
1530 1 38.13078888878351 21.50484784103417 6.013799703936811 0 0 1
623 1 37.79878077104962 22.27228123309447 3.29284192853244 -1 0 0
2760 1 42.50305584138722 24.795245842275506 2.823102489630062 0 1 0
203 1 41.84846470001463 22.58562893306386 4.663323546787547 0 0 0
3013 1 35.81010807996621 24.32654456798969 14.604085609411657 0 1 0
3732 1 46.51946436928664 22.745515593890268 5.014523900910405 0 0 1
626 1 -0.24881329841437788 2.2575355195968188 8.595782630801928 0 0 0
1702 1 6.397901441448522 0.5431468426673222 8.156399584116741 0 0 1
552 1 47.779845797762874 18.20964964759023 0.01126650559814929 0 0 1
452 1 14.579154973174491 2.5292180415146386 7.141041336670702 0 0 0
2705 1 17.084662566587415 1.2853023945028175 7.808604785582226 0 1 0
388 1 34.68761055984258 0.9746316088400788 16.105186524304997 0 0 0
475 1 21.68582898454891 1.3062092018616642 8.393512598494294 0 0 0
1158 1 25.869746828971746 3.810722756310085 8.83609458296575 0 0 0
3629 1 3.232634960076356 20.334167246683474 13.782972071903208 0 0 0
1944 1 33.48574863919252 23.30146154270729 16.038342640661472 0 0 1
1072 1 32.44402848911169 1.9033740147820577 8.805494272816588 0 0 0
1208 1 38.21822080247932 1.3597557309307087 7.8237389321438044 -1 0 0
1085 1 40.67534105510491 1.5608515281369266 6.798199666316635 -1 0 0
4113 1 45.92292298726346 1.1602682664400645 6.648089234386999 0 1 0
254 1 44.37401751420255 0.7479406776511441 8.885764548393901 -1 0 0
919 1 49.49530989930504 -0.3493367899428558 8.611765322313785 -1 0 0
1770 1 4.806896030008422 2.6546596078478792 7.212264321242604 0 0 1
1198 1 3.5091825062684676 5.182149879705672 7.950921006447144 0 0 0
1887 1 7.944406739929624 3.5073419726816186 8.865429014820497 1 0 1
1219 1 10.771216138878103 3.310960495704111 6.15830442324567 0 0 0
3539 1 12.49358508208017 4.702497152772229 8.196295006315635 0 1 1
1268 1 10.11765520061718 1.581445526319809 9.706794018011445 0 0 0
3533 1 15.535259391808115 5.277396920367242 7.324600422826896 0 1 1
800 1 16.76017495953105 6.508834433416498 5.3125791007956815 1 0 0
2424 1 19.594369291731404 6.553972403426166 5.54851625232888 0 1 0
1412 1 19.435113758054115 2.6393940854637714 7.430012443050948 0 1 1
1935 1 21.138857230825526 6.534726137337583 9.575867930818005 -1 1 1
159 1 25.019311654808593 4.529474461487254 6.142621737371877 0 1 0
1075 1 23.86290930815581 6.380117893814342 8.650785238728197 0 0 0
2514 1 27.681270947675294 5.658007703206635 10.009514845081187 0 1 1
936 1 30.04222676808068 5.390636245479616 8.024126363543669 0 0 0
3695 1 37.11434560198764 3.4112818937268483 9.096657840982045 0 1 1
1795 1 36.51441483281988 5.255597811124785 7.357500432360787 0 0 1
2354 1 42.374014661242086 2.5616103445535314 8.661307352495378 0 0 0
1496 1 42.97713900975445 5.0158343820221285 8.453807422696485 0 0 1
573 1 44.865099293704844 5.364203733372216 6.541536422886147 -1 0 0
3796 1 48.82490622856672 4.104535288558539 8.430847872189622 -1 1 1
171 1 5.049048519137938 7.4439642450823005 7.361016003512122 0 0 0
1276 1 8.143307790494026 6.790045731716154 9.720344102624814 0 0 1
2819 1 10.810592028393708 6.813152381007133 9.142852586530456 0 1 0
3438 1 16.40574256099753 7.014361989098492 11.19235468245281 0 1 1
597 1 19.622201593992212 8.253939810798723 3.011173889578729 0 0 0
520 1 21.12886452575811 9.263074274990664 9.494879323342468 0 1 0
874 1 23.932446000105795 8.196425892161223 6.6369211926029115 0 0 1
3740 1 26.743304583750266 9.674495164584515 9.577518653530257 0 0 1
729 1 30.793108166026396 7.357708500759342 9.473758044881727 0 0 0
2596 1 29.22676466864812 9.531755258401574 8.457364348354922 0 1 0
3492 1 33.34343197634399 8.434877619546167 8.41430014432752 0 1 0
2810 1 34.98134630328563 6.610999436750839 9.542859002954208 0 0 0
1284 1 39.133347104980956 6.154927437904709 6.542991050019013 -1 0 0
351 1 40.76546411409359 6.974612639160914 8.57927256539094 0 0 0
2707 1 47.568714232867535 8.367379654930533 8.037636404314052 0 1 0
1936 1 49.66491427400163 6.591275191876677 7.953147663857948 0 0 1
966 1 0.9111937071275231 9.691886850830839 9.201980386481384 0 0 0
2024 1 3.3629860849942643 12.304179588937352 6.6278126150071985 1 0 1
3104 1 2.8327064227021888 9.453318392606148 7.100993583470936 0 0 1
3259 1 7.413017398638049 12.270728869360411 9.780110015908974 0 0 1
1147 1 13.411926219695859 10.473536976261716 6.442124097269065 0 1 1
1392 1 14.47069148152007 8.052542430456135 7.695192163702465 0 0 0
3156 1 17.158198402153662 8.998872789975628 7.508612700522115 0 0 1
2450 1 21.175917957146634 8.636616230402543 6.755652614455335 0 1 0
3741 1 25.265796602641572 10.491254892252377 7.615973203444389 0 1 1
3992 1 30.802055870261984 11.649165771450841 8.778941988996504 0 0 1
1523 1 33.01649378073448 10.746534547084655 10.280944429286036 0 0 1
1028 1 35.1116015852468 11.550375297370259 6.717273560150428 0 0 0
2759 1 35.401299926547765 11.911861460135587 9.589547324090333 0 0 0
1313 1 41.21575892733186 9.7196101887732 8.969397653384146 0 0 0
81 1 46.52339215940772 13.698214317486194 8.188520447087392 -1 0 0
679 1 50.355007216402086 11.298882558016025 7.486234390308096 0 0 0
1899 1 47.90046708459734 11.045190857643636 7.996597720218588 0 0 0
1425 1 0.8717449906122066 13.588855450174275 7.00875735909502 1 0 1
2695 1 0.6671769370476259 14.750708742679802 9.458525103137683 1 0 0
1069 1 5.000290129693097 13.840183137047292 8.519816261885385 1 0 0
3920 1 7.662496132725016 14.751582406176738 7.590728773763978 0 1 1
1200 1 9.654459146758935 14.801636621750598 9.678672792188197 0 0 1
545 1 16.79003687755295 12.06301058540923 4.380482768347563 1 0 -1
3433 1 16.232765022100637 11.74148224260685 7.441070578787934 0 1 0
3414 1 17.868497293474377 13.345743574325258 9.195869097362744 1 0 0
1125 1 19.81205904249571 13.023298206252305 7.015780830423524 0 1 1
690 1 22.471352512749174 15.901028644163347 5.243670240475453 0 0 0
1679 1 24.36975381553911 13.290149141570467 7.232349305070801 0 0 0
4155 1 22.124456740320806 13.97641186681326 8.873555393774698 0 1 1
3113 1 26.983687518432163 14.30163136276812 8.004092489718943 0 0 1
228 1 37.36536790872678 13.691871378395602 7.588139792887654 -1 0 0
1816 1 39.85788103633742 13.827713445395627 9.06106776950157 -1 0 0
2244 1 41.77093584261375 13.751993276208799 7.223793494373877 0 1 0
2703 1 43.965895773931834 14.133224978635978 8.795836330016222 -1 1 0
3823 1 50.24136267108956 18.935495708181318 8.672867170438694 -1 1 1
1442 1 2.7421223588333183 19.29668022139257 5.460682975250085 1 0 1
3923 1 2.1423891181792305 20.24946886567974 9.35851294193824 1 0 1
669 1 11.19942926546003 17.781803532238186 6.683297915525009 0 0 0
911 1 16.055329656740803 19.27595076463278 8.288514403580578 1 0 0
2554 1 17.35278907076835 18.88437699414255 5.751278689281584 0 1 1
3048 1 16.474003707210024 16.328445003745557 8.967439262821978 0 0 0
2823 1 20.9740944614388 19.67796354749982 7.864594777250305 0 0 0
3805 1 23.34366488353904 16.57879053432836 7.820586267828238 0 0 1
3913 1 26.269452983328335 17.126054208798415 8.44432576994878 0 0 1
1783 1 27.351453189056393 18.983997800893533 7.031911222902559 0 0 1
760 1 33.392961692442256 15.926711255467943 8.777637297617664 -1 0 0
2761 1 34.52005555409973 18.164205946296633 7.748720076435715 0 0 0
2960 1 46.87612487114717 18.008851193718947 5.800023042220469 -1 0 0
2754 1 47.78656012814328 15.782394129478742 6.959334219269545 -1 0 0
3411 1 6.171631137668823 17.315082274605228 7.249937224586175 0 1 0
1776 1 8.605376685084197 18.467219258488473 7.81581576677627 1 0 0
1928 1 8.458798982461149 21.44705959511486 8.771012166652204 0 0 1
3516 1 9.393061519167176 19.33010892706448 4.468160919405388 1 0 1
828 1 9.620568815718539 21.517026315524355 6.001357631704404 0 0 0
3207 1 13.343892460793917 19.641605285732602 7.208417058072927 0 1 0
3522 1 12.186198650079502 22.288750950290964 6.385516536198052 0 1 1
521 1 11.978461038192306 18.935029615545627 10.577500460523892 0 0 0
3170 1 17.26144698913331 21.779441931485128 8.961403478865444 0 0 0
309 1 17.16597827332295 21.796236503710894 6.090935181775027 0 0 0
3481 1 18.87943275530793 17.2926250760935 7.826162531372118 1 0 0
611 1 23.512693509541158 19.548879046534736 8.165569147962625 0 0 0
1073 1 25.17897968807113 20.46209538683213 5.8748112528157845 0 0 0
3831 1 29.761949114662535 19.78128089244549 8.12754380388429 0 0 1
3557 1 31.948445367730198 19.102036460910153 6.679337433186161 0 1 0
668 1 35.71509464978136 19.9067014423827 9.466304327469802 0 1 0
4167 1 38.36718845208465 18.78461358883662 6.905020594256125 0 0 1
3485 1 38.0034850667908 18.54012525488736 9.572451695005903 0 0 1
1485 1 41.545338340293426 20.976591421924407 9.196584762892368 -1 0 1
397 1 42.66165452195034 18.937254674575197 7.80635644073215 -1 0 0
196 1 45.198711406085025 19.637277569586026 7.237291292838162 -1 0 0
1727 1 0.7716980012906962 24.28681187578085 9.469615715414214 0 0 1
3552 1 17.862470915630123 23.126752652122637 14.736015229854216 0 1 1
2883 1 2.6660240864741116 22.78814649906519 8.191799259400458 1 0 0
1175 1 16.17461994586561 0.22522530906128724 16.2516779376254 0 0 0
1951 1 25.255952040195492 0.1330112038218878 8.799713933510393 0 0 1
2890 1 12.057160216169454 21.954746601879194 9.292636476651747 0 0 0
96 1 14.792660924820975 22.823895176439787 9.897713315314759 0 -1 0
1799 1 21.39476700582594 23.223485154775727 7.656448199840073 0 0 0
368 1 23.80228522852905 23.2503644211873 6.526292893983378 0 0 0
4126 1 28.174718184843837 23.639333587403666 7.056144014583769 -1 0 1
3868 1 29.751965581203837 22.49492244177694 8.9036519171954 0 0 1
4168 1 33.48806598474033 23.43826577506966 7.57309481531961 0 1 1
2477 1 36.039419364486065 22.127890403916577 7.722197492853537 0 0 0
3564 1 40.5199351303952 22.512424958805212 6.933491031437436 -1 0 0
2959 1 46.73868313977444 24.46315027400847 9.27173750228757 0 0 0
4115 1 49.20441160956135 23.29984858692329 8.44062913563137 -1 0 1
20 1 2.8811338211084676 0.1933724501687034 12.160968568939545 1 0 0
393 1 31.372232327386186 22.04528788576119 14.607462213808786 1 0 -1
2544 1 7.8321118215928 -0.09016859951975187 10.800368451677933 1 1 0
2014 1 7.33691756115474 1.7287806855242862 12.814099480192464 0 0 0
128 1 11.683086192488839 3.5830778120269553 10.967551963961062 0 0 0
577 1 14.58178035752862 3.012652249155537 10.07836859563734 0 1 0
100 1 29.239801422489986 23.36571953180586 13.427358055563829 0 0 1
1542 1 15.407796353597528 2.1768023980094617 12.52785375004139 0 0 0
1800 1 -0.09032175390585989 14.823962904657119 14.264298463196923 0 -1 1
791 1 25.565226070519568 2.145295957403423 12.380282622953686 0 0 1
2103 1 47.141904812457426 17.252085865810525 16.2837137446229 -1 0 0