
# Create simulation box of size 50 x 50 x 50 Angstrom
#
lattice	            sc 1
Lattice spacing in x,y,z = 1.0000000 1.0000000 1.0000000
region 	            all block 0 50 0 50 0 50 units box
create_box          1 all
Created orthogonal box = (0.0000000 0.0000000 0.0000000) to (50.000000 50.000000 50.000000)
  1 by 2 by 3 MPI processor grid

# fill box with 4175 randomly distributed atoms
#
create_atoms        1 random 4175 63782 all
Created 4175 atoms
  create_atoms CPU = 0.001 seconds
mass                1 18.015

# Define potential
#
pair_style          sw
pair_coeff          * * ML_mW.sw mW
Reading sw potential file ML_mW.sw with DATE: 2019-02-27

# Run minimization
#
minimize            1.0e-8 1.0e-8 10000 1000
WARNING: Using 'neigh_modify every 1 delay 0 check yes' setting during minimization (../min.cpp:187)
Neighbor list info ...
  update every 1 steps, delay 0 steps, check yes
  max neighbors/atom: 2000, page size: 100000
  master list distance cutoff = 6.0032907
  ghost atom cutoff = 6.0032907
  binsize = 3.0016454, bins = 17 17 17
  1 neighbor lists, perpetual/occasional/extra = 1 0 0
  (1) pair sw, perpetual
      attributes: full, newton on
      pair build: full/bin/atomonly
      stencil: full/bin/3d
      bin: standard
Per MPI rank memory allocation (min/avg/max) = 4.255 | 4.258 | 4.261 Mbytes
Step Temp E_pair E_mol TotEng Press 
       0            0    7792709.3            0    7792709.3    5898794.3 
     630            0   -45180.336            0   -45180.336   -154.07449 
Loop time of 1.1579 on 6 procs for 630 steps with 4175 atoms

99.1% CPU use with 6 MPI tasks x no OpenMP threads

Minimization stats:
  Stopping criterion = max force evaluations
  Energy initial, next-to-last, final = 
      7792709.32924461  -45180.0188663597   -45180.336116598
  Force two-norm initial, final = 2.0191930e+08 4.9721331
  Force max component initial, final = 1.0948746e+08 0.73126211
  Final line search alpha, max atom move = 0.053306038 0.038980685
  Iterations, force evaluations = 630 1000

MPI task timing breakdown:
Section |  min time  |  avg time  |  max time  |%varavg| %total
---------------------------------------------------------------
Pair    | 0.87764    | 1.0002     | 1.0685     |   5.9 | 86.38
Neigh   | 0.024003   | 0.024764   | 0.025335   |   0.3 |  2.14
Comm    | 0.043955   | 0.11208    | 0.23588    |  17.9 |  9.68
Output  | 0          | 0          | 0          |   0.0 |  0.00
Modify  | 0          | 0          | 0          |   0.0 |  0.00
Other   |            | 0.02091    |            |       |  1.81

Nlocal:        695.833 ave         704 max         685 min
Histogram: 1 1 0 0 1 0 0 1 0 2
Nghost:        1494.17 ave        1515 max        1468 min
Histogram: 1 1 0 0 0 0 1 1 1 1
Neighs:        0.00000 ave           0 max           0 min
Histogram: 6 0 0 0 0 0 0 0 0 0
FullNghs:      19997.0 ave       20462 max       19320 min
Histogram: 1 1 0 0 0 0 0 2 0 2

Total # of neighbors = 119982
Ave neighs/atom = 28.738204
Neighbor list builds = 26
Dangerous builds = 0

# Add velocity/set timestep
#
velocity            all create ${TEMP} 120598 rot yes dist gaussian
velocity            all create 225 120598 rot yes dist gaussian
timestep            5.0

# Define output
#
compute	            1 all msd
thermo	            100
thermo_style        custom step temp press vol etotal ke pe c_1[4] density

# Neighbor lists
#
neigh_modify        delay 0 every 1 check yes

# Set fixes
#
fix                 1 all momentum 10 linear 1 1 1 rescale
fix                 2 all nve
fix                 3 all temp/csvr ${TEMP} ${TEMP} 500.0 928347
fix                 3 all temp/csvr 225 ${TEMP} 500.0 928347
fix                 3 all temp/csvr 225 225 500.0 928347
fix                 4 all press/berendsen iso ${PRES} ${PRES} 1000.0 modulus 20000
fix                 4 all press/berendsen iso -250 ${PRES} 1000.0 modulus 20000
fix                 4 all press/berendsen iso -250 -250 1000.0 modulus 20000

# Run 0.5 ns equilibration
#
dump                1 all custom 1000 eq.${NAME}.dump id type x y z vx vy vz
dump                1 all custom 1000 eq.liquid_density_MLmW.dump id type x y z vx vy vz
run                 100000
Per MPI rank memory allocation (min/avg/max) = 3.506 | 3.508 | 3.511 Mbytes
Step Temp Press Volume TotEng KinEng PotEng c_1[4] Density 
     630          225    869.67124       125000   -42380.908    2799.4278   -45180.336 2.7295415e-33   0.99914793 
     700    143.21943   -226.05184    125711.41   -41518.278     1781.922     -43300.2   0.26668644   0.99349366 
     800    178.41139   -444.86356    125829.96   -40731.932    2219.7768   -42951.708   0.61794175   0.99255764 
     900       194.58   -85.957327    125871.25   -40303.065    2420.9451   -42724.011    1.0838025   0.99223208 
    1000    208.10862    -57.56147    125874.72   -40014.139    2589.2669   -42603.406    1.4734717    0.9922047 
    1100    216.10602   -372.99728     125963.6   -39816.823    2688.7697   -42505.592    1.8964801   0.99150463 
    1200     214.2913   -307.02123    125807.46   -39841.738    2666.1911   -42507.929     2.306591    0.9927352 
    1300    218.86157   -328.72104    125934.74   -39808.916     2723.054    -42531.97    2.6326765   0.99173182 
    1400    220.25563   -240.85299    126344.78   -39797.922    2740.3988   -42538.321    2.9700238   0.98851325 
    1500    216.86533   -200.72555    126254.86   -39760.819    2698.2171   -42459.036    3.3061123   0.98921728 
    1600    228.98739   -241.25575    126529.75   -39665.093    2849.0384   -42514.132     3.719641   0.98706815 
    1700     222.5625   -229.17546    126644.52   -39702.957    2769.1006   -42472.058    4.1372469   0.98617365 
    1800    224.74228   -394.87153    126697.78   -39793.267    2796.2212   -42589.488    4.6056259   0.98575909 
    1900    225.09215   -320.12127    126668.26   -39791.922    2800.5743   -42592.497    4.9248957   0.98598881 
    2000    224.51888   -263.31539    126529.68   -39757.207    2793.4417   -42550.649    5.3630494   0.98706874 
    2100    230.57385   -64.795957     126740.5   -39712.734    2868.7771   -42581.511    5.7145268   0.98542688 
    2200    227.72978   -153.26291    126800.68   -39749.948    2833.3914   -42583.339    6.2067598   0.98495918 
    2300    224.48275   -151.67189     126914.2   -39735.808    2792.9922     -42528.8    6.6146271   0.98407811 
    2400    221.06893    -134.1407    127194.18    -39735.14    2750.5177   -42485.658    7.0455162   0.98191202 
    2500     227.5809   -347.75422    127141.92   -39695.383    2831.5391   -42526.922    7.3225895   0.98231562 
    2600    233.50216   -118.30555    127201.94   -39661.895    2905.2108   -42567.106    7.7006688   0.98185206 
    2700    230.82791   -384.77831    127243.67   -39716.061     2871.938   -42587.999    8.1727232   0.98153008 
    2800    230.57969   -354.18551    127037.52   -39732.007    2868.8497   -42600.857    8.4288989   0.98312283 
    2900    229.45087   -292.52933    127278.35   -39808.997     2854.805   -42663.802    8.6621324   0.98126264 
    3000    219.33356   -57.790438    127296.28   -39839.078    2728.9265   -42568.004    8.8923604   0.98112447 
    3100    229.37874   -137.25376    127208.84   -39812.123    2853.9076   -42666.031     9.231995   0.98179881 
    3200    223.47327   -190.94313    127339.02   -39864.411    2780.4324   -42644.844    9.6390366   0.98079514 
    3300    225.97132   -293.39352     127256.4   -39846.726    2811.5128   -42658.238    9.8880412   0.98143192 
    3400    228.36027   -191.54295    127337.57     -39888.7     2841.236   -42729.936    10.132333    0.9808063 
    3500    221.01918   -142.69178    127402.62   -39908.711    2749.8988   -42658.609    10.378721    0.9803055 
    3600    224.10808   -451.21107    127472.36   -39959.578    2788.3306   -42747.909    10.709569    0.9797692 
    3700    223.63877   -283.72423    127735.61   -40019.956    2782.4914   -42802.447    10.980639   0.97774998 
    3800    224.59806   -365.59832    127654.95   -39972.585    2794.4268   -42767.012    11.224381   0.97836783 
    3900    226.29272   -222.45007    127590.88   -40003.079    2815.5116   -42818.591    11.507911    0.9788591 
    4000    224.53821   -196.56408    127748.08   -39987.122    2793.6822   -42780.804    11.899823   0.97765457 
    4100    222.70123   -359.88399    127825.09   -39985.331    2770.8267   -42756.158     12.08838   0.97706553 
    4200    223.58855   -186.81177    127834.41   -40011.918    2781.8666   -42793.785     12.39093   0.97699429 
    4300    225.82517   -291.63024    127950.22   -40021.567    2809.6944   -42831.261    12.656749      0.97611 
    4400    226.07829   -229.76978    128071.31   -40025.677    2812.8438   -42838.521    12.959335   0.97518711 
    4500    224.03662   -326.21401    128235.13   -40028.959    2787.4415   -42816.401     13.27435    0.9739413 
    4600    222.16311   -260.73877    127968.98   -40085.956    2764.1314   -42850.088    13.597994    0.9759669 
    4700    224.80007   -203.60082     128000.5   -39991.852    2796.9402   -42788.793    13.834827   0.97572657 
    4800    220.65413   -267.38113    127972.05   -40035.873    2745.3568    -42781.23    13.935868   0.97594348 
    4900    226.56397   -332.30458    128066.69   -39918.736    2818.8865   -42737.623    14.087615   0.97522226 
    5000     226.4853   -228.38927    127986.75   -39879.081    2817.9077   -42696.988    14.570762   0.97583138 
    5100    224.24743   -346.46174    127932.52   -39948.474    2790.0643   -42738.538    14.927602   0.97624506 
    5200    225.23949   -165.64989    127994.25    -39994.31    2802.4075   -42796.717    15.161141   0.97577421 
    5300    225.70084   -204.62891    128199.74    -39950.82    2808.1476   -42758.967    15.406957   0.97421017 
    5400     225.6344   -257.62653    128307.97   -40011.911     2807.321   -42819.232    15.649227    0.9733884 
    5500    224.53891   -298.94258    128325.24   -40035.417     2793.691   -42829.108    15.873445   0.97325744 
    5600    227.77459   -328.33095    128191.71   -40061.818    2833.9489   -42895.767    16.307419   0.97427117 
    5700     225.6437   -402.91011    128455.91   -40063.615    2807.4366   -42871.052    16.447586   0.97226736 
    5800    226.34715   -379.04591    128396.09   -40115.063    2816.1889   -42931.252    16.766268   0.97272038 
    5900    223.64742   -220.10879    128324.02   -40153.379    2782.5991   -42935.979    17.014516   0.97326665 
    6000    224.95337   -463.18107    128130.42   -40169.598    2798.8476   -42968.446    17.159123   0.97473722 
    6100    224.56762   -303.06254    128401.68   -40100.225    2794.0482   -42894.273    17.463356   0.97267801 
    6200    222.03889   -68.894644    128376.89   -40189.209     2762.586   -42951.795    17.759933   0.97286585 
    6300    224.13649   -347.60299     128411.3    -40163.15    2788.6841   -42951.834    17.976773   0.97260516 
    6400     222.8398   -186.95481    128381.83   -40149.373    2772.5508   -42921.924    18.223601   0.97282844 
    6500    227.44117   -184.92618    128460.63   -40082.719    2829.8006    -42912.52    18.516781   0.97223165 
    6600    216.97978   -210.06908    128452.61   -40163.233     2699.641   -42862.874     18.65442   0.97229237 
    6700    223.86776   -130.47487    128492.82   -40223.916    2785.3405   -43009.257    18.851144   0.97198806 
    6800    226.63934   -254.13133    128655.41   -40148.609    2819.8243   -42968.434    19.058385   0.97075975 
    6900    225.66276    -398.5599    128604.23   -40097.249    2807.6738   -42904.923    19.055566   0.97114606 
    7000    224.56434   -191.26496    128683.67   -40099.434    2794.0073   -42893.441    19.226906   0.97054657 
    7100    230.92489    -334.7447    128850.23   -40128.211    2873.1446   -43001.356     19.37505   0.96929196 
    7200    225.31366   -381.10207    128909.13   -40189.677    2803.3303   -42993.007    19.703478    0.9688491 
    7300    221.65184   -16.337501    128965.14   -40255.032    2757.7702   -43012.803    20.069646   0.96842829 
    7400    221.38711   -303.96968    129082.68   -40276.791    2754.4765   -43031.267    20.193121   0.96754649 
    7500    223.55796   -422.73701     129068.8    -40241.17    2781.4861   -43022.656    20.482788   0.96765049 
    7600    219.33716   -304.89308     128863.7   -40324.875    2728.9712   -43053.847    20.768185   0.96919063 
    7700    223.56351   -95.128734    128987.31   -40220.319    2781.5551   -43001.874    20.806713   0.96826186 
    7800    223.84004    22.699249    129085.92   -40191.547    2784.9956   -42976.543    20.855358   0.96752221 
    7900    224.15197   -275.98545    129284.23   -40267.848    2788.8767   -43056.724    21.168629   0.96603813 
    8000    230.43587   -176.69217    129293.74   -40243.966    2867.0603   -43111.027    21.474627   0.96596701 
    8100    225.81938   -290.42555     129374.4   -40341.621    2809.6223   -43151.243    21.751719   0.96536477 
    8200     221.8962   -253.59538    129166.01   -40375.114    2760.8106   -43135.924    21.897108   0.96692224 
    8300     221.9194   -179.86678    129258.26   -40368.817    2761.0992   -43129.916    22.306094   0.96623217 
    8400    223.60155   -135.75576    129222.59   -40322.163    2782.0284   -43104.191    22.531146   0.96649888 
    8500    224.38294   -332.92428    129550.51   -40242.402    2791.7503   -43034.152    22.559902   0.96405247 
    8600    222.95704   -242.79777    129676.41   -40242.666    2774.0095   -43016.676    22.831489   0.96311653 
    8700    227.85535   -347.97937    129676.65   -40213.056    2834.9538    -43048.01    23.186664   0.96311475 
    8800    225.93935   -78.067554     129637.4   -40249.921     2811.115   -43061.036    23.290356   0.96340634 
    8900    224.24207   -256.64992    129852.95   -40345.869    2789.9976   -43135.867    23.481376   0.96180711 
    9000    224.46559   -279.01049    129721.19   -40301.006    2792.7786   -43093.784    23.459139   0.96278406 
    9100    223.07761   -376.18792    129661.56    -40370.76    2775.5096    -43146.27    23.531392   0.96322681 
    9200    227.23731   -164.75598    129646.81   -40272.918    2827.2641   -43100.182    23.492379   0.96333642 
    9300    220.81019   -338.97187    129491.47   -40305.205    2747.2986   -43052.503    23.740341   0.96449205 
    9400    223.24019   -148.32254    129158.53   -40259.403    2777.5323   -43036.935    23.911023   0.96697829 
    9500    222.03165   -216.01145    129252.48   -40278.938    2762.4958   -43041.434    24.071259   0.96627537 
    9600    221.90768   -154.09055    129467.47   -40239.817    2760.9535   -43000.771    24.217161   0.96467086 
    9700    222.55091   -454.98169    129452.61   -40169.426    2768.9565   -42938.383    24.441911   0.96478153 
    9800    223.54267   -406.20895    129015.35   -40241.362    2781.2958   -43022.658    24.499921   0.96805142 
    9900    223.10494   -148.81922    129153.83   -40318.832    2775.8496   -43094.682    24.769017   0.96701346 
   10000    224.57929   -354.13463    129085.22   -40328.143    2794.1933   -43122.336    25.029742   0.96752743 
   10100      223.214   -281.44621    128979.51   -40305.255    2777.2065   -43082.462    25.212402    0.9683204 
   10200    217.86908   -158.46079    128936.83   -40342.258    2710.7056   -43052.964    25.535264   0.96864093 
   10300    222.20879   -194.88427    129052.84   -40339.643    2764.6998   -43104.343    25.806425   0.96777018 
   10400    223.30838   -281.78501    128784.12   -40278.033    2778.3808   -43056.414    25.973986    0.9697895 
   10500    224.15305   -214.01906    128930.09    -40245.95    2788.8901    -43034.84    26.063651   0.96869156 
   10600    228.52468   -291.27392    129124.58     -40183.2    2843.2814   -43026.481    26.447564   0.96723247 
   10700    226.12235   -74.334281    129253.57   -40178.237     2813.392   -42991.629    26.611045   0.96626722 
   10800    224.85007   -230.36494    129267.35   -40160.916    2797.5623   -42958.478    26.751882   0.96616422 
   10900    224.23534   -153.10079    129475.61   -40184.668    2789.9139   -42974.582    26.954203   0.96461015 
   11000    226.59543   -171.61665     129300.7   -40175.216    2819.2779   -42994.494    27.269044   0.96591507 
   11100     225.2272   -108.51084    129441.69    -40199.49    2802.2546   -43001.745     27.68187   0.96486295 
   11200    228.61338   -211.04646    129763.01   -40198.336    2844.3851   -43042.721     27.96195   0.96247373 
   11300    223.15373   -361.51239    129824.33   -40208.678    2776.4566   -42985.135    28.181055   0.96201912 
   11400    223.98733   -270.24698    130012.39   -40219.873    2786.8283   -43006.701    28.258601   0.96062762 
   11500    225.29495   -376.66876    130069.55   -40255.535    2803.0975   -43058.632    28.647196   0.96020543 
   11600     225.9936   -372.65472    130139.31   -40274.078      2811.79   -43085.868    28.867259   0.95969073 
   11700     229.4221   -208.92892    129950.54   -40203.702    2854.4471   -43058.149    29.051232    0.9610848 
   11800     226.2125   -213.84861    130201.02   -40285.807    2814.5136   -43100.321    29.196838   0.95923591 
   11900    226.54367   -88.353816     130228.9    -40311.78     2818.634   -43130.414    29.360693   0.95903054 
   12000    227.69314   -299.03807    130304.41   -40332.959    2832.9355   -43165.895    29.233773   0.95847478 
   12100    226.53835     -320.238    130213.84    -40314.37    2818.5677   -43132.937    29.531368   0.95914148 
   12200     226.8409    -199.4322    130178.73   -40320.145    2822.3321   -43142.477    29.591636   0.95940011 
   12300    225.95375   -439.87202    130168.32   -40346.144    2811.2943   -43157.438    29.816263   0.95947686 
   12400    224.27124   -111.11915    130005.55   -40335.521    2790.3606   -43125.881    29.902689   0.96067813 
   12500    222.97142   -286.88004    129967.27   -40416.095    2774.1884   -43190.283    30.059309    0.9609611 
   12600    229.55778    -357.6759    129871.37   -40333.287    2856.1352   -43189.422    30.109096    0.9616707 
   12700    224.66848   -371.34731    129724.73   -40305.893     2795.303   -43101.196    30.201188   0.96275776 
   12800    227.41944   -364.73027    129811.71   -40266.687    2829.5302   -43096.218    30.492452   0.96211267 
   12900    220.69296   -154.79205    130090.21   -40323.626      2745.84   -43069.466    30.785884   0.96005298 
   13000    226.42913   -453.93738    130216.82   -40258.212    2817.2088   -43075.421    30.780561   0.95911948 
   13100    229.16164   -211.57744    130100.56   -40274.555    2851.2065   -43125.762    30.740533   0.95997657 
   13200    227.45381   -177.23071    130294.17    -40215.97    2829.9578   -43045.928    30.869111   0.95855014 
   13300    229.54989   -270.27617    130215.59    -40269.17     2856.037   -43125.207     31.12279   0.95912856 
   13400    222.63529   -432.97371    130312.24    -40349.94    2770.0063   -43119.947    31.191776   0.95841717 
   13500    221.14548   -166.70875    130233.92    -40367.91    2751.4702    -43119.38    31.362795   0.95899354 
   13600    223.43012   -436.78858    130318.87   -40400.592    2779.8955   -43180.487    31.854424   0.95836844 
   13700    223.79984   -223.45957    130486.04   -40398.914    2784.4955    -43183.41    32.192647   0.95714061 
   13800    225.51167   -73.096919    130340.99    -40303.74     2805.794   -43109.534    32.275635   0.95820578 
   13900    224.59683   -363.59688    130377.76   -40343.318    2794.4115   -43137.729    32.410564   0.95793552 
   14000    225.93907   -217.53817    130252.61   -40327.924    2811.1115   -43139.035     32.46152   0.95885595 
   14100    226.04484   -305.23262    130025.76   -40316.118    2812.4276   -43128.546    32.618853   0.96052882 
   14200    223.10949   -359.35715    130177.64   -40347.919    2775.9063   -43123.825    32.748918    0.9594082 
   14300    221.12358   -384.09481    129960.44   -40393.516    2751.1978   -43144.714    32.741089   0.96101164 
   14400     223.7722   -289.30656    130164.11   -40359.177    2784.1516   -43143.329    33.037629   0.95950791 
   14500    223.19558   -115.19147    130209.58   -40301.587    2776.9774   -43078.565    33.148724   0.95917284 
   14600    226.39301   -262.39714    130219.11   -40316.808    2816.7595   -43133.568    33.302568   0.95910267 
   14700    223.69426    -88.07379    130262.25   -40361.342    2783.1819   -43144.524    33.415779   0.95878503 
   14800    221.83834   -323.63889    130289.92   -40395.967    2760.0907   -43156.058    33.596542   0.95858135 
   14900    220.90486   -345.20523     130394.1   -40469.424    2748.4765   -43217.901    33.692971   0.95781552 
   15000    221.50998   -295.73717    130242.68   -40487.086    2756.0053   -43243.092    33.762606   0.95892907 
   15100    221.76562   -297.12783    130388.39   -40520.752    2759.1859   -43279.938    33.978002   0.95785742 
   15200    222.31094   -284.80247    130517.53   -40456.443    2765.9708   -43222.414    34.206914   0.95690973 
   15300    218.43492   -241.40764     130309.5   -40461.334    2717.7457    -43179.08    34.235882   0.95843737 
   15400    221.87775   -290.31815    130422.74   -40436.205    2760.5811   -43196.786    34.512253   0.95760516 
   15500    222.83232    -115.8335     130473.7   -40416.699    2772.4577   -43189.157    34.838321   0.95723113 
   15600    223.83833   -375.28486    130485.17   -40344.882    2784.9743   -43129.856     34.71009   0.95714705 
   15700    223.30322   -237.81449     130340.8    -40432.26    2778.3166   -43210.577    34.888208   0.95820721 
   15800    219.31531   -411.40316    130135.42   -40435.397    2728.6994   -43164.097    35.028666    0.9597194 
   15900    223.05185   -370.68753    130235.96   -40469.479     2775.189   -43244.668    35.100181   0.95897855 
   16000     221.4199   -319.72095    130093.89   -40389.127    2754.8845   -43144.012     35.18862   0.96002581 
   16100    226.10368   -208.63809    130185.25   -40345.437    2813.1596   -43158.597    35.430918   0.95935211 
   16200    224.93986   -227.28444    130314.96   -40406.274    2798.6795   -43204.953    35.752476   0.95839719 
   16300    224.21988   -267.06904    130254.75   -40434.385    2789.7216   -43224.107    35.897256    0.9588402 
   16400    229.41869   -389.59539    130196.52   -40336.097    2854.4046   -43190.502    36.127245   0.95926907 
   16500    226.60686   -311.56133    130175.77   -40337.708    2819.4202   -43157.128    36.370844   0.95942196 
   16600    223.93178   -294.40837    130063.46     -40331.9    2786.1371   -43118.037     36.61366    0.9602504 
   16700    221.30048   -276.71297    130078.01   -40349.057    2753.3987   -43102.456    36.647348   0.96014297 
   16800    229.17096   -356.83599    129800.44   -40328.544    2851.3224   -43179.866    36.844276   0.96219619 
   16900    226.03535   -438.47965    129742.07   -40289.717    2812.3095   -43102.027    37.056444   0.96262912 
   17000      225.034   -176.14456    129470.96    -40292.35    2799.8508   -43092.201     37.09759    0.9646448 
   17100    230.19529   -116.76194    129756.67   -40214.641    2864.0671   -43078.708    37.265463   0.96252077 
   17200    225.03198   -165.11619    129704.27   -40225.181    2799.8257   -43025.007    37.478296   0.96290963 
   17300    230.60105   -308.66902    129695.59   -40277.403    2869.1154   -43146.518    37.774349   0.96297411 
   17400    223.26921   -222.21631    129667.83   -40304.153    2777.8934   -43082.046    37.745549   0.96318021 
   17500    226.54266   -302.72337    129714.21    -40286.86    2818.6213   -43105.481    37.714574   0.96283586 
   17600     230.3924   -227.17225     129877.5   -40245.975    2866.5194   -43112.494    37.932171   0.96162535 
   17700    225.71964   -358.42568    129943.78   -40268.734    2808.3815   -43077.116    38.145794   0.96113479 
   17800    222.53591    -250.1346    129815.01   -40263.185    2768.7698   -43031.955    38.207143    0.9620882 
   17900    229.07078   -12.435995    129966.17   -40223.187     2850.076   -43073.263    38.398412   0.96096924 
   18000    229.58139   -210.24113    130144.09   -40189.846     2856.429   -43046.275    38.386289   0.95965546 
   18100    220.75143   -308.51408    130131.48   -40300.152    2746.5674   -43046.719    38.618063   0.95974847 
   18200     229.9539   -144.10002    130246.55   -40310.946    2861.0637   -43172.009    38.875891   0.95890054 
   18300    233.82571   -253.95289    130393.55   -40225.562    2909.2363   -43134.799    39.015863   0.95781951 
   18400    226.85501   -351.82164    130494.59     -40310.4    2822.5076   -43132.908    39.312034   0.95707795 
   18500    227.50628    -215.8631    130269.83   -40280.082    2830.6106   -43110.693    39.311579   0.95872918 
   18600    225.96979   -210.45388    130277.78   -40344.444    2811.4937   -43155.938    39.620353   0.95867073 
   18700    228.70221   -246.48849    130221.96   -40292.761    2845.4903   -43138.251    39.783599   0.95908167 
   18800    224.52811   -101.63191    130329.59   -40235.801    2793.5566   -43029.358    40.217664   0.95828963 
   18900    227.37379   -53.494018    130456.02   -40274.916    2828.9622   -43103.879    40.508513   0.95736089 
   19000    229.89019   -355.05848     130441.3   -40259.425     2860.271   -43119.696    40.488235   0.95746893 
   19100     226.7404    -306.7886    130479.96   -40323.494    2821.0816   -43144.575    40.757545   0.95718524 
   19200    227.94345   -79.737987    130423.28   -40303.193    2836.0499   -43139.243    40.969267   0.95760124 
   19300    230.62599   -197.03515    130474.14   -40254.965    2869.4258   -43124.391    41.134989   0.95722795 
   19400    224.71701    -239.0374    130551.21   -40274.925    2795.9069   -43070.832    41.407605   0.95666287 
   19500    225.87664    -138.9064    130737.43   -40273.864    2810.3348   -43084.199     41.51677   0.95530019 
   19600    229.46562    -285.7714     130734.9   -40307.669    2854.9885   -43162.658    42.048932   0.95531865 
   19700    231.21019   -419.48924    130441.24   -40286.959    2876.6943   -43163.653    42.352487   0.95746934 
   19800    227.83649   -322.27525    130238.41   -40317.883    2834.7191   -43152.602    42.218249   0.95896052 
   19900    229.34144   -291.72504    130286.54   -40326.784    2853.4435   -43180.228    42.328165   0.95860621 
   20000    221.43979   -192.49109    130357.65   -40374.942    2755.1319   -43130.074    42.328208   0.95808336 
   20100    222.67328   -183.59588    130427.36   -40329.522    2770.4789   -43100.001    42.478842   0.95757129 
   20200    226.04467   -211.76285    130421.14   -40384.669    2812.4255   -43197.095    42.687717    0.9576169 
   20300    227.50615    -270.2821    130287.05   -40424.775     2830.609   -43255.384    42.920096   0.95860251 
   20400    223.28579   -465.45733    130372.48   -40432.128    2778.0997   -43210.228    43.237891   0.95797433 
   20500    223.72708   -334.89858    130447.96    -40400.28    2783.5902    -43183.87       43.567   0.95742005 
   20600    222.78646   -312.01793    130551.85   -40433.332    2771.8871   -43205.219    43.532058   0.95665813 
   20700    226.94017   -386.88818    130349.22    -40374.25    2823.5671   -43197.817    43.656914   0.95814526 
   20800    225.35333   -212.00199    130473.25   -40379.536    2803.8238    -43183.36    44.036094   0.95723443 
   20900    224.20816   -315.89583    130552.43   -40423.156    2789.5757   -43212.732    44.078619   0.95665392 
   21000    220.11183   -539.58501    130556.11   -40523.356    2738.6097   -43261.966    44.012337   0.95662694 
   21100    219.30984   -124.25245    130271.14   -40542.525    2728.6313   -43271.156    43.907843   0.95871954 
   21200     219.3294    -402.4904    130243.13   -40528.914    2728.8747   -43257.788    43.852621   0.95892574 
   21300    222.41461    -398.9392     130102.6    -40533.38    2767.2605    -43300.64    44.279644   0.95996157 
   21400    218.35366   -263.19175    130173.17   -40496.847    2716.7347   -43213.582    44.609224   0.95944109 
   21500    220.36645   -63.824759    130297.61   -40471.856    2741.7776   -43213.633    44.647365   0.95852479 
   21600     224.9315   -204.73718    130534.94   -40417.699    2798.5755   -43216.274    44.995389   0.95678208 
   21700    225.52307   -345.31814       130575   -40379.739    2805.9358   -43185.675    45.231511   0.95648851 
   21800    223.36129   -291.22471    130450.37    -40379.05     2779.039   -43158.089    45.240786   0.95740232 
   21900    223.27677   -214.15799    130262.11   -40389.534    2777.9875   -43167.521    45.408345   0.95878604 
   22000    222.67049   -188.74151    130262.78   -40407.598    2770.4442   -43178.042    45.350523   0.95878108 
   22100     226.0167   -149.67176    130352.87   -40337.273    2812.0774   -43149.351    45.598217   0.95811849 
   22200    227.04001   -206.81425    130426.31   -40366.685    2824.8093   -43191.495    45.766132   0.95757897 
   22300    227.16283   -342.27329    130455.06   -40353.492    2826.3374   -43179.829     45.98963   0.95736792 
   22400    231.62331   -250.57363    130638.99   -40315.405    2881.8344   -43197.239    46.292352   0.95602005 
   22500    229.78002   -392.38913    130609.01   -40339.378    2858.9004   -43198.278    46.640813   0.95623947 
   22600    229.55996    -182.0234    130649.57   -40308.672    2856.1623   -43164.834    47.022058   0.95594259 
   22700    225.19741   -187.01597    130691.96   -40319.153     2801.884   -43121.037    47.138869   0.95563254 
   22800    230.97627   -312.77027    130680.29   -40301.421    2873.7839   -43175.205    46.961237    0.9557179 
   22900    223.26627   -148.37794    130604.72   -40354.351    2777.8568   -43132.208    47.084588   0.95627086 
   23000    223.81229   -372.05725    130647.66   -40337.033    2784.6504   -43121.684     47.03354   0.95595661 
   23100    225.13029   -129.60671    130544.78   -40461.095    2801.0488   -43262.144    47.131003   0.95670995 
   23200    226.32915   -151.70166    130581.76   -40407.197    2815.9649   -43223.162    47.391306     0.956439 
   23300    222.79826    -353.7126    130478.06   -40464.892    2772.0339   -43236.925    47.534628   0.95719914 
   23400    229.08565   -28.105547     130767.1   -40397.907     2850.261   -43248.168    47.688169   0.95508345 
   23500    226.74223   -228.51151    130809.79   -40461.371    2821.1044   -43282.475    47.915843   0.95477177 
   23600    225.56847   -325.34687    130644.45   -40445.525    2806.5007   -43252.025    47.729674   0.95598008 
   23700    222.64055     -284.329    130728.97   -40484.148    2770.0717    -43254.22    48.001346   0.95536201 
   23800    218.50838   -157.37258    130810.19   -40548.656    2718.6597   -43267.315    48.127865   0.95476881 
   23900    223.53816   -185.18931    130925.35   -40559.704    2781.2397   -43340.943    48.253613   0.95392899 
   24000      225.838   -169.77569    130931.14   -40498.817     2809.854   -43308.671    48.245209   0.95388681 
   24100    228.51604    -272.3789    130948.24   -40490.339    2843.1739   -43333.513    48.193176   0.95376226 
   24200    221.17015   -231.68841    130917.64   -40552.513    2751.7772    -43304.29    48.398883   0.95398523 
   24300    226.86675   -259.88294    130747.14   -40531.942    2822.6536   -43354.595     48.63244   0.95522923 
   24400    225.72394   -371.12556    130656.79   -40583.295     2808.435    -43391.73    48.904826   0.95588977 
   24500    226.17735   -294.72883    130358.93   -40545.301    2814.0762   -43359.378    48.952456    0.9580739 
   24600    225.20346    -169.1434    130460.25   -40524.987    2801.9592   -43326.946    49.161243   0.95732984 
   24700    226.10806   -283.54583    130545.84   -40545.851    2813.2142   -43359.066    49.258848   0.95670222 
   24800    226.24616   -286.28822    130633.18    -40544.64    2814.9324   -43359.572    49.512063   0.95606255 
   24900    224.78052    -287.5828    130515.17   -40484.443     2796.697    -43281.14    49.785492   0.95692704 
   25000    225.44784   -311.02085    130390.99   -40458.048    2804.9997   -43263.048    50.098567   0.95783838 
   25100     225.3563    -354.8172    130521.15   -40456.526    2803.8608   -43260.387    50.429242   0.95688316 
   25200    227.66541   -182.54077    130580.19   -40509.803    2832.5905   -43342.394    50.533229   0.95645054 
   25300    223.29299   -173.17843    130526.09   -40513.138    2778.1893   -43291.327    50.493894   0.95684693 
   25400    225.29205   -162.17109    130569.03   -40489.742    2803.0615   -43292.803    50.600294   0.95653226 
   25500    226.99606    -169.7987    130730.11   -40442.592    2824.2626   -43266.854    50.549049   0.95535367 
   25600    223.96898   -386.59365    130720.31   -40512.456    2786.5998   -43299.056    50.608837   0.95542533 
   25700    223.26981   -322.13011    130752.04   -40534.259    2777.9009    -43312.16    51.186587   0.95519346 
   25800    220.02812   -319.97581    130632.56   -40520.764    2737.5681   -43258.332    51.435015   0.95606711 
   25900    227.57949   -129.47833     130681.5   -40475.526    2831.5215   -43307.047    51.622674   0.95570902 
   26000    226.41372    -150.3202     130599.3   -40412.424    2817.0172   -43229.442    51.552118   0.95631057 
   26100    222.89598   -198.81919    130615.35   -40492.824    2773.2498   -43266.074    51.555364   0.95619303 
   26200    225.05109   -439.64658    130758.49   -40485.428    2800.0634   -43285.492     51.89697   0.95514636 
   26300    222.39236    -79.73428    130810.47   -40463.562    2766.9838   -43230.545    51.740324   0.95476679 
   26400    225.96653   -273.01033    130848.24    -40451.47    2811.4533   -43262.923    52.130579   0.95449118 
   26500    225.18614   -274.33755    130869.22   -40496.551    2801.7437   -43298.294    52.059725   0.95433813 
   26600     220.8215   -358.26221       130956   -40542.406    2747.4392   -43289.845    52.048808   0.95370577 
   26700    226.04394   -351.09563    130846.07   -40572.368    2812.4163   -43384.784     52.25534   0.95450701 
   26800    221.59399    -222.4164     130826.6   -40485.825    2757.0506   -43242.876    52.445858   0.95464908 
   26900    229.41477   -284.35534    130660.42   -40483.456    2854.3558   -43337.812    52.429687   0.95586321 
   27000    226.83169   -305.96829    130630.71   -40536.429    2822.2175   -43358.646    52.317341   0.95608063 
   27100    223.77467   -111.00733     130689.1   -40542.556    2784.1824   -43326.738    52.364665   0.95565345 
   27200     223.1921   -315.32948    130893.22   -40558.463    2776.9341   -43335.397    52.701181   0.95416319 
   27300    223.20166   -298.55089    130853.21   -40584.172    2777.0529   -43361.225    52.716284   0.95445491 
   27400    225.46417   -254.26355    131002.95   -40535.213    2805.2029   -43340.415    52.963379   0.95336393 
   27500    225.51959   -259.98422    131014.44   -40468.898    2805.8925    -43274.79    53.045653   0.95328036 
   27600    230.61277   -277.88127    130881.32   -40506.682    2869.2612   -43375.944    53.159847   0.95424994 
   27700    222.12471   -418.61959    130823.46   -40518.018    2763.6537   -43281.671    53.081995     0.954672 
   27800    226.43849   -324.20623    130756.84   -40462.256    2817.3253   -43279.581    53.102828    0.9551584 
   27900     226.0992   -315.73919    130748.32   -40495.027    2813.1039   -43308.131    53.170009   0.95522059 
   28000    223.48836    -218.2813    130858.76   -40525.225    2780.6201   -43305.845    53.440104   0.95441445 
   28100    226.65858   -120.49172    130774.81   -40501.954    2820.0636   -43322.017    53.479979   0.95502714 
   28200    223.67969   -168.62649    130708.22   -40547.567    2783.0006   -43330.567     53.50465   0.95551367 
   28300    226.90555   -149.28079    130938.01   -40524.999    2823.1364   -43348.136    53.701326   0.95383678 
   28400    223.13044    -369.3068    130865.19   -40581.304    2776.1669   -43357.471     53.90419   0.95436756 
   28500    223.71537   -198.12233    130743.61   -40609.467    2783.4446   -43392.911    53.974843   0.95525504 
   28600    222.62734   -167.40904    130988.97   -40551.018    2769.9074   -43320.925     54.19703    0.9534657 
   28700    224.04538   -288.68456    130904.13   -40551.951    2787.5505   -43339.501    54.238548   0.95408365 
   28800    224.81641   -364.38795    131043.57   -40507.552    2797.1436   -43304.696    54.423691   0.95306844 
   28900    227.97331   -273.22487    131099.51   -40482.043    2836.4213   -43318.465    54.606583   0.95266178 
   29000    222.87888   -149.41111    130932.13   -40556.103     2773.037    -43329.14    54.442073   0.95387963 
   29100    227.33217   -183.72425    130885.68   -40500.178    2828.4444   -43328.622    54.505217   0.95421812 
   29200     225.1969   -117.31347    130812.64   -40458.775    2801.8776   -43260.653    54.567556   0.95475096 
   29300    224.65955   -224.13168    130808.63   -40511.224    2795.1919   -43306.416     54.73308   0.95478024 
   29400    223.81392   -398.61496    131005.25   -40561.726    2784.6707   -43346.397     55.08762   0.95334721 
   29500    219.54197   -311.73193    131020.69   -40579.413    2731.5195   -43310.933    55.482368   0.95323486 
   29600    222.04192   -305.16128    130780.03   -40501.125    2762.6236   -43263.749    55.456298   0.95498904 
   29700    222.79184   -301.26158    130924.55    -40545.68    2771.9541   -43317.634    55.444733   0.95393486 
   29800    224.63769    -389.3622    131065.42   -40522.505    2794.9199   -43317.425    55.736397   0.95290958 
   29900    222.83094   -186.02941    130915.69   -40554.661    2772.4405   -43327.101    55.923771   0.95399942 
   30000    224.40852   -224.49068    130945.69   -40535.884    2792.0686   -43327.953    56.117179   0.95378085 
   30100    225.39311   -243.29451    130978.71   -40540.645    2804.3188   -43344.964    56.265043   0.95354041 
   30200    221.25916   -236.22786    130679.83   -40564.546    2752.8846    -43317.43    56.448829   0.95572126 
   30300    224.24159   -260.41558    130964.83   -40525.886    2789.9918   -43315.878     56.43175   0.95364148 
   30400    225.36192   -213.28534    131010.54   -40496.217    2803.9307   -43300.148    56.587954   0.95330872 
   30500    224.30555   -209.24926    130987.89   -40510.856    2790.7875   -43301.644     56.59885    0.9534736 
   30600    223.25277   -213.60893    130955.44   -40496.972    2777.6889   -43274.661    56.785222   0.95370982 
   30700    226.17016   -384.35305    130890.12   -40511.062    2813.9867   -43325.049    57.021073   0.95418576 
   30800    229.19245   -207.31299    130809.55   -40453.585    2851.5898   -43305.175    57.380285    0.9547735 
   30900    226.03352   -294.52441    130848.59   -40569.615    2812.2867   -43381.901     57.45116   0.95448863 
   31000    222.37078   -265.02931    131071.36   -40595.986    2766.7153   -43362.701    57.724543   0.95286638 
   31100    221.93819   -169.59548    131148.37   -40600.863     2761.333   -43362.196    57.852807   0.95230686 
   31200    223.15244   -100.55054    131036.08   -40634.373    2776.4407   -43410.813    57.932134   0.95312291 
   31300    226.92523   -245.93818    131315.56   -40584.658    2823.3812   -43408.039    58.045569   0.95109439 
   31400    226.60676    -372.7436    131131.14   -40551.957    2819.4189   -43371.375    57.998263   0.95243197 
   31500    223.68931   -262.24831    130927.88   -40603.803    2783.1203   -43386.924    58.059624   0.95391059 
   31600    222.78528   -194.98107    130848.62   -40531.223    2771.8724   -43303.096     58.27569   0.95448838 
   31700    222.80138   -269.61189    131078.59   -40552.203    2772.0727   -43324.276    58.489901   0.95281379 
   31800    226.64544   -283.56609    131160.32   -40477.206    2819.9001   -43297.107    58.576091   0.95222008 
   31900    224.22958   -404.00163    131132.91   -40468.287    2789.8423   -43258.129    58.637876   0.95241911 
   32000    229.92632   -140.70809    131067.35   -40465.095    2860.7205   -43325.816     58.70427   0.95289555 
   32100    224.51624   -156.43994    131262.07   -40473.974    2793.4089   -43267.383    58.809011   0.95148197 
   32200    226.70694   -339.10931     131120.4   -40474.624    2820.6653   -43295.289    58.977026   0.95251002 
   32300    227.04092   -189.75341    131179.51   -40457.864    2824.8207   -43282.685    59.037787   0.95208078 
   32400    227.32603   -178.16135    131123.54    -40534.89     2828.368   -43363.258    59.298219   0.95248718 
   32500    224.79213   -285.92589    131187.18   -40547.331    2796.8414   -43344.173    59.536082   0.95202511 
   32600    226.16426   -449.79873    131304.46   -40479.886    2813.9133   -43293.799    59.932587   0.95117482 
   32700    225.82413   -312.29674    131183.82   -40550.485    2809.6815   -43360.167    59.913165    0.9520495 
   32800    222.90142   -334.14053    131264.87   -40585.054    2773.3175   -43358.371    59.811916   0.95146165 
   32900    224.71087   -527.87569    131249.88   -40566.533    2795.8304   -43362.364    59.873756    0.9515703 
   33000    219.81796   -331.65413    131135.74   -40621.338    2734.9533   -43356.291    59.760541   0.95239854 
   33100    227.92028   -296.50489    130960.59   -40552.165    2835.7616   -43387.927    59.717793    0.9536723 
   33200    223.11127   -153.74936    131066.95   -40594.649    2775.9283   -43370.577    60.169222   0.95289841 
   33300    226.32493   -237.89973     131002.7   -40541.537    2815.9125   -43357.449    60.327536   0.95336578 
   33400    219.10638   -198.10774    131027.03   -40614.734    2726.0999   -43340.834    60.468118   0.95318872 
   33500    225.20667   -458.73857    130990.73   -40577.811    2801.9992    -43379.81    60.634104   0.95345291 
   33600     223.5882   -343.15935    130929.96   -40533.015    2781.8623   -43314.877    60.465261   0.95389541 
   33700     225.8788   -193.72219    130885.82   -40525.535    2810.3618   -43335.897    60.495923   0.95421715 
   33800    224.92988   -227.70036    130842.32   -40521.322    2798.5553   -43319.878    60.843289   0.95453436 
   33900    226.16077   -233.04029    130649.45   -40538.821    2813.8699   -43352.691     60.95352   0.95594349 
   34000    223.21338   -281.82175    130514.02   -40503.273    2777.1988   -43280.472    60.904141   0.95693546 
   34100    226.91644   -148.60552    130400.17   -40519.179    2823.2719   -43342.451    60.840702   0.95777095 
   34200    221.61069   -149.39021    130425.77   -40520.211    2757.2584    -43277.47    61.262003   0.95758294 
   34300    222.94739   -166.86975    130557.97   -40557.464    2773.8894   -43331.353    61.176356   0.95661329 
   34400    225.11984   -141.88585    130417.16   -40486.445    2800.9188   -43287.364     61.12622   0.95764613 
   34500    224.52529   -502.02639    130519.08   -40501.351    2793.5215   -43294.873    61.491182   0.95689837 
   34600    227.17066   -240.76206    130414.52   -40463.358    2826.4349   -43289.793    61.319161   0.95766554 
   34700    222.83233   -307.07783    130499.21   -40538.805    2772.4578   -43311.262    61.448844   0.95704403 
   34800    222.49796   -421.77165    130415.24   -40530.016    2768.2976   -43298.313    61.448924   0.95766027 
   34900     218.6824   -140.57027    130287.19   -40534.131    2720.8248   -43254.956    61.478988   0.95860145 
   35000    222.47049   -211.77899    130196.29   -40602.945    2767.9559   -43370.901    61.745883   0.95927072 
   35100    221.92037    -380.2857    130379.89   -40544.217    2761.1113   -43305.329    61.877147   0.95791987 
   35200    222.57101   -206.15474     130312.7   -40558.982    2769.2065   -43328.189    62.097868    0.9584138 
   35300    219.45371   -122.34192     130400.4   -40540.253    2730.4214   -43270.674    62.288599   0.95776926 
   35400    223.04741   -394.83387    130434.78   -40556.802    2775.1339   -43331.936    62.501436   0.95751677 
   35500    228.04641   -241.09383    130460.54   -40447.262    2837.3309   -43284.593    62.518282   0.95732768 
   35600    224.55941   -368.14803    130627.02   -40489.729    2793.9459   -43283.675    62.546197   0.95610762 
   35700    227.16815   -184.04455    130570.31   -40459.133    2826.4037   -43285.537    62.955624   0.95652292 
   35800    227.06811   -284.58014    130419.39   -40492.126     2825.159   -43317.285    62.948677   0.95762975 
   35900    227.11845   -265.51443    130474.41   -40439.528    2825.7853   -43265.313    63.005885   0.95722599 
   36000    227.78124   -179.00895    130615.16   -40411.694    2834.0317   -43245.726     63.12575   0.95619448 
   36100    225.03058   -233.34419     130611.1   -40436.474    2799.8083   -43236.283    63.304034   0.95622417 
   36200    225.50032   -139.61071    130722.56   -40474.048    2805.6527     -43279.7    63.602996   0.95540883 
   36300    222.75105   -184.94098    130307.42   -40543.024    2771.4466    -43314.47    63.785622   0.95845265 
   36400    228.48409   -166.80571    130574.92   -40477.245    2842.7765   -43320.021    63.759759   0.95648911 
   36500    229.32154   -107.17555    130490.29   -40466.201    2853.1959   -43319.397    63.811275   0.95710944 
   36600    219.12247   -378.66672    130478.58   -40596.926    2726.3001   -43323.226    63.824861   0.95719532 
   36700    224.26283   -131.25124    130409.51   -40543.926    2790.2559   -43334.182     63.75732   0.95770236 
   36800     224.0289    -51.65869    130585.72   -40537.055    2787.3454     -43324.4    63.854351   0.95641003 
   36900    226.01486   -240.94078       130673   -40561.337    2812.0546   -43373.392    64.426008   0.95577122 
   37000    228.33444   -148.82524    130560.37   -40508.843    2840.9145   -43349.758    64.593482    0.9565957 
   37100     224.6198   -192.77176    130623.87    -40482.39    2794.6973   -43277.087    64.593872   0.95613072 
   37200    222.38776   -195.53757    130537.18   -40531.698    2766.9265   -43298.625    64.582564   0.95676569 
   37300    223.19403   -205.28735    130525.36   -40537.907     2776.958   -43314.865    64.541609   0.95685227 
   37400    220.12251   -368.17864    130802.96   -40562.486    2738.7425   -43301.228    64.942131   0.95482157 
   37500    220.86685   -388.36127    130741.79   -40572.242    2748.0036   -43320.245    65.236198   0.95526831 
   37600    227.22015   -76.305483    130810.43   -40523.916    2827.0506   -43350.966    65.547348   0.95476709 
   37700    224.49555   -100.05822    130972.04   -40533.459    2793.1515    -43326.61    65.835485   0.95358892 
   37800    219.59614   -454.32147    130785.87   -40631.321    2732.1934   -43363.515    65.918513   0.95494636 
   37900    221.97264   -206.82001    130872.03    -40595.04    2761.7617   -43356.802    66.165932    0.9543177 
   38000    226.29755   -382.34175    130854.99   -40581.945    2815.5717   -43397.517    66.602308   0.95444196 
   38100    226.04767   -32.618679    131013.12   -40546.261    2812.4628   -43358.724    66.630915   0.95328997 
   38200     222.5849   -319.37925    131232.14   -40562.803    2769.3793   -43332.182    66.561521   0.95169897 
   38300    228.20577    -291.3775    131257.23   -40519.559    2839.3136   -43358.873    66.415879   0.95151701 
   38400     224.5198   -261.10631    131350.14   -40592.997    2793.4531    -43386.45    66.653148   0.95084397 
   38500    225.11496   -100.81506    131488.71     -40631.6     2800.858   -43432.458    66.776045   0.94984195 
   38600    226.23708   -145.17646    131638.28   -40588.515    2814.8194   -43403.334    67.114263    0.9487627 
   38700    224.64338   -284.76008    131635.05   -40604.767    2794.9907   -43399.758    67.150902   0.94878601 
   38800    228.44247   -210.11674    131682.09   -40636.876    2842.2587   -43479.134    67.133808   0.94844706 
   38900    224.95679   -152.05467    131775.49   -40594.472    2798.8901   -43393.362    67.273752   0.94777485 
   39000    226.63409   -134.72015    131908.84    -40650.67    2819.7589   -43470.429    67.409373   0.94681667 
   39100    221.05826   -168.81662    131960.15   -40610.142     2750.385   -43360.527    67.544349   0.94644851 
   39200    221.71308    -404.3723    131929.93   -40624.402    2758.5323   -43382.934    67.864141   0.94666537 
   39300     230.9351   -258.58263    131749.85   -40609.859    2873.2717   -43483.131    68.211672    0.9479593 
   39400    226.22222   -260.89452    131898.16   -40572.412    2814.6345   -43387.047     68.35077   0.94689336 
   39500    230.70609    -314.3932    131685.46    -40570.01    2870.4224   -43440.433    68.103514   0.94842278 
   39600     219.5422   -191.54601    131585.47   -40616.177    2731.5223   -43347.699    68.305773   0.94914346 
   39700    228.65824   -266.13968    131362.02   -40557.355    2844.9432   -43402.299    68.113924   0.95075803 
   39800    228.98369   -153.50131    131667.96   -40616.275    2848.9924   -43465.268    68.552008   0.94854887 
   39900    223.45586   -78.287109    131631.87   -40650.254    2780.2157    -43430.47    68.625888   0.94880889 
   40000    223.13371   -218.60057    131826.53   -40669.814    2776.2075   -43446.022    68.888126   0.94740785 
   40100    222.96214   -156.79704    131817.12   -40562.069    2774.0729   -43336.142    68.837505   0.94747551 
   40200    223.35367   -335.02992    131765.78   -40573.815    2778.9443    -43352.76    68.953067   0.94784469 
   40300    225.60651    38.355302    131719.21   -40543.593    2806.9739   -43350.567    69.073554   0.94817977 
   40400    229.23468   -408.99502    131648.97   -40457.904    2852.1152    -43310.02    68.807916   0.94868568 
   40500    225.68652   -197.18038    131571.38    -40474.97    2807.9694   -43282.939    69.020441   0.94924513 
   40600    227.89882   -155.95658    131527.98   -40508.665    2835.4945   -43344.159    69.568076   0.94955838 
   40700    226.09385   -300.46038    131555.81   -40561.347    2813.0374   -43374.384    69.624744   0.94935746 
   40800    221.01114   -334.22429    131663.73   -40609.318    2749.7988   -43359.117    69.622922   0.94857934 
   40900      221.539    -123.9455     131571.3   -40633.048    2756.3663   -43389.415    69.559209   0.94924572 
   41000    226.22835    -291.6313    131570.14   -40541.987    2814.7107   -43356.698    69.606989    0.9492541 
   41100    227.93323   -291.77737    131531.96   -40517.721    2835.9227   -43353.644    69.625162    0.9495296 
   41200     223.2096   -322.70914    131536.96   -40540.776    2777.1517   -43317.928    69.706309   0.94949349 
   41300    219.50306   -185.28648    131593.76   -40686.993    2731.0354   -43418.028    69.997239   0.94908372 
   41400    220.41327   -282.50098    131490.09   -40629.042    2742.3601   -43371.402    70.349496   0.94983197 
   41500    218.95677   -182.36483    131446.23   -40628.369    2724.2385   -43352.608    70.719908   0.95014888 
   41600    217.71346   -219.67823     131380.8    -40578.16    2708.7693   -43286.929     71.07061   0.95062209 
   41700    225.46753     -240.114    131253.29    -40546.36    2805.2448   -43351.605    70.912879   0.95154564 
   41800    223.94087   -345.39425    131203.34   -40550.137    2786.2501   -43336.387    70.803852   0.95190788 
   41900    225.57284   -244.78512    131215.04   -40522.329    2806.5549   -43328.884    71.056009   0.95182299 
   42000    226.57221    -333.7951    131140.03   -40506.425     2818.989   -43325.414    71.275438   0.95236741 
   42100    222.81872   -177.21693    131204.18   -40495.316    2772.2885   -43267.604    71.249296   0.95190177 
   42200     226.0519   -88.083239    131348.15   -40439.027    2812.5154   -43251.542    71.240938   0.95085842 
   42300    228.25495    -337.1121    131402.19    -40411.86    2839.9255   -43251.785    71.593257   0.95046734 
   42400    224.33782   -356.07032     131281.7   -40455.292     2791.189   -43246.481    71.685702   0.95133968 
   42500    225.85615   -151.82708    131223.72   -40457.418    2810.0799   -43267.498    71.563189   0.95176006 
   42600    222.95571   -349.35134    131179.74   -40445.972    2773.9929   -43219.965    71.498483   0.95207914 
   42700    228.22241   -310.39929    131046.69   -40453.581    2839.5207   -43293.101    71.642447   0.95304576 
   42800    227.31861   -194.67365    131047.46   -40394.825    2828.2756     -43223.1    71.620781   0.95304019 
   42900    225.94434   -230.90427    131084.47   -40473.341    2811.1771   -43284.518    71.568409   0.95277109 
   43000      226.216   -286.34061    131217.97   -40499.986    2814.5571   -43314.543    71.819134   0.95180176 
   43100    225.25947   -331.91852    131214.99   -40480.965    2802.6561   -43283.621     72.19915   0.95182334 
   43200    225.79509   -201.29762    131299.73   -40450.264    2809.3202   -43259.584    72.493453   0.95120904 
   43300    228.27751   -129.19936     131405.9   -40468.448    2840.2063   -43308.655    72.510432   0.95044052 
   43400     227.3884   -256.34866    131285.96   -40430.477     2829.144   -43259.621    72.640286   0.95130885 
   43500    228.54413   -330.31553    131401.94   -40446.864    2843.5235   -43290.388    72.611522   0.95046919 
   43600    228.52404   -128.72123    131364.72   -40351.917    2843.2735    -43195.19     72.63534   0.95073842 
   43700    232.53684   -245.13168    131366.04   -40389.576    2893.2004   -43282.777    73.061332    0.9507289 
   43800    227.24036   -444.53109    131246.88   -40409.868    2827.3021    -43237.17    73.046124   0.95159209 
   43900    228.38463   -227.28996    131480.26   -40442.826     2841.539   -43284.365    73.190725   0.94990302 
   44000     221.3685   -322.64904    131425.74   -40468.241     2754.245   -43222.486    73.294228   0.95029705 
   44100    220.31113   -218.14801    131137.77   -40478.893    2741.0892   -43219.982    73.558216   0.95238385 
   44200    224.01463   -151.81075    131097.49   -40513.296    2787.1679   -43300.464    73.752351   0.95267647 
   44300    223.85784   -202.03136    131223.97   -40518.929    2785.2171   -43304.146     73.87389    0.9517582 
   44400    224.11732   -175.75016    131157.66   -40493.185    2788.4455   -43281.631    73.652207   0.95223937 
   44500    227.74401   -330.22212    131289.66   -40526.004    2833.5684   -43359.572     74.03951   0.95128202 
   44600    221.14209   -261.43159    131473.98   -40594.373    2751.4281   -43345.801    74.144283   0.94994836 
   44700    219.33735   -251.93779    131356.41   -40567.813    2728.9736   -43296.787     74.47595   0.95079858 
   44800    222.62081    -44.94818    131382.65   -40542.293    2769.8262   -43312.119    74.544415   0.95060871 
   44900    219.97501   -227.09711    131436.35   -40484.851    2736.9073   -43221.758     74.78037   0.95022029 
   45000    227.32188    -283.5711    131277.88   -40486.667    2828.3163   -43314.984    74.941504   0.95136734 
   45100    230.44098   -256.84536    131127.79   -40423.289    2867.1238   -43290.413    74.822144   0.95245632 
   45200    227.65518   -127.86488    131095.08   -40481.867    2832.4633    -43314.33    75.115523   0.95269393 
   45300    224.37532   -219.20367    131038.06   -40497.171    2791.6556   -43288.827    75.176395    0.9531085 
   45400    229.24476   -187.72794    131065.17   -40469.366    2852.2407   -43321.606     75.57547   0.95291137 
   45500    227.10544   -260.92833    131258.82   -40485.911    2825.6234   -43311.534    75.801269   0.95150552 
   45600      224.519   -216.65834    131108.96   -40491.842    2793.4432   -43285.286    75.995644   0.95259308 
   45700    221.54616   -216.24397     131025.5   -40503.518    2756.4554   -43259.973     75.99556    0.9531999 
   45800    228.38561   -232.48935    131155.22   -40448.203    2841.5512   -43289.755    76.109903   0.95225711 
   45900    228.00334   -228.63103    131105.92   -40386.334     2836.795   -43223.129    75.922733   0.95261521 
   46000    229.03386   -176.19058    131364.41   -40372.019    2849.6167   -43221.635    76.006641   0.95074073 
   46100    231.96622   -211.84434    131164.12   -40342.971    2886.1008   -43229.072    76.097856   0.95219253 
   46200    229.37862   -424.09873    131133.69   -40350.388    2853.9061   -43204.294    76.494932   0.95241343 
   46300    227.64124   -300.67106    131142.52   -40373.672    2832.2898   -43205.962    76.269977   0.95234936 
   46400    230.44864   -236.41053    131300.25   -40418.248    2867.2192   -43285.467    76.268451   0.95120531 
   46500    231.72184   -201.41988     131089.9   -40435.596    2883.0602   -43318.656    76.174078   0.95273163 
   46600    227.44235    -289.4325    131066.65   -40412.614    2829.8153   -43242.429    76.350975   0.95290058 
   46700    224.16647   -72.560758    130879.12   -40504.046    2789.0571   -43293.103    76.685882   0.95426598 
   46800    223.74451    -253.3083    131007.69   -40564.354     2783.807   -43348.161     77.10428   0.95332946 
   46900    224.32186   -162.52196    130993.21   -40486.529    2790.9904   -43277.519    77.199124   0.95343482 
   47000    228.02922   -390.92106    131114.91   -40464.241     2837.117   -43301.358    77.363648   0.95254986 
   47100    230.68901   -414.54538    131272.91   -40450.338    2870.2099   -43320.548    77.598677   0.95140339 
   47200    224.63915    23.681862    131157.14   -40506.146    2794.9381   -43301.084    77.523134   0.95224317 
   47300    222.93437   -275.48585    131164.54   -40536.745    2773.7275   -43310.472    77.929525   0.95218944 
   47400    226.92371   -83.080851    131254.14   -40503.614    2823.3624   -43326.976     78.07128   0.95153945 
   47500    226.28258   -132.16053    131459.67   -40431.205    2815.3855   -43246.591    78.208349   0.95005173 
   47600    227.44969   -306.97613    131373.63   -40387.146    2829.9065   -43217.052    78.206523     0.950674 
   47700    227.91585   -222.43385    131354.52   -40435.931    2835.7064   -43271.638    78.144122    0.9508123 
   47800    227.49904   -236.51155    131397.22    -40437.96    2830.5206    -43268.48    78.467491   0.95050331 
   47900    223.20503    -183.1582    131334.18   -40519.264    2777.0949   -43296.359    78.532318   0.95095952 
   48000     221.6805   -281.95424    131433.45   -40521.475    2758.1269   -43279.602    78.560624   0.95024127 
   48100     222.5058   -398.65062    131406.28   -40464.116    2768.3952   -43232.511    78.540208   0.95043779 
   48200    221.50064   -171.74953     131464.5   -40503.457     2755.889   -43259.346    78.869653   0.95001685 
   48300     225.2194   -426.34727    131160.82   -40489.653    2802.1575   -43291.811    78.895452   0.95221643 
   48400    229.26752   -253.03749    131257.21   -40407.494    2852.5239   -43260.018    78.806802   0.95151717 
   48500    225.85014   -57.702335    131014.81   -40480.643    2810.0052   -43290.648    79.135922   0.95327768 
   48600    225.56858   -344.59407    130986.86   -40482.736     2806.502   -43289.238     79.64333   0.95348105 
   48700    226.49656   -64.963013    131144.44   -40435.857    2818.0478   -43253.905    79.961226   0.95233537 
   48800    223.89494    -126.9875    131225.57   -40478.123    2785.6788   -43263.802    80.016037   0.95174662 
   48900    225.15712   -294.17837    131034.56   -40467.158    2801.3826    -43268.54    79.996827     0.953134 
   49000    220.70108   -276.98213    130986.64   -40496.876     2745.941   -43242.817    80.057125   0.95348268 
   49100    222.98039   -379.32185    130928.72   -40489.128    2774.2999   -43263.428     80.05332   0.95390449 
   49200    224.31889   -116.86503    130847.43   -40500.612    2790.9535   -43291.566    80.319117   0.95449707 
   49300    223.15798      -179.21    130908.26   -40438.817    2776.5095   -43215.326    80.472766   0.95405355 
   49400    221.78674   -267.04615    130863.28   -40401.887    2759.4487   -43161.336    80.214585   0.95438147 
   49500     223.5805   -353.32907    131124.71   -40411.595    2781.7665   -43193.361    80.762952   0.95247869 
   49600    223.37411   -200.84844    130803.96    -40422.24    2779.1986   -43201.439    80.679344    0.9548143 
   49700    225.64261   -253.26343    131047.56   -40429.579     2807.423   -43237.002    80.789533   0.95303939 
   49800     225.4253   -175.37714    131051.04    -40472.37    2804.7193   -43277.089       81.311   0.95301413 
   49900    232.82625   -151.36905    131253.43   -40365.195    2896.8012   -43261.996     81.61631   0.95154457 
   50000    226.47445   -358.33198    131194.34    -40416.25    2817.7727   -43234.022    81.944119   0.95197314 
   50100    225.23543   -319.14899    130983.24   -40415.555    2802.3569   -43217.912     81.92361   0.95350738 
   50200    223.33637   -256.63701    130750.94   -40443.439     2778.729   -43222.168    81.965685   0.95520151 
   50300    227.10579   -219.86987    130982.52   -40412.862    2825.6278    -43238.49     81.60804   0.95351269 
   50400    224.73085   -285.49202    130852.62   -40453.697     2796.079   -43249.776    81.829865   0.95445921 
   50500    223.09703   -328.23045     130776.7   -40484.344    2775.7512   -43260.095    81.832301    0.9550133 
   50600    217.06469   -164.11952    130648.86   -40507.138    2700.6974   -43207.835     82.05969   0.95594779 
   50700     221.8759   -142.39433    130781.51   -40509.375     2760.558   -43269.933     82.52068   0.95497819 
   50800    223.55705   -342.93607    130486.01   -40499.095    2781.4747    -43280.57    82.313095   0.95714088 
   50900    226.07671   -211.19597    130556.41   -40400.201    2812.8241   -43213.025    82.437806   0.95662475 
   51000    222.28849   -181.92692    130530.86   -40425.642    2765.6914   -43191.333    82.536107     0.956812 
   51100    223.79997   -263.29261     130576.1   -40457.304    2784.4971   -43241.802    82.643732   0.95648045 
   51200    223.00114   -341.42365    130514.91   -40426.056    2774.5582   -43200.615    82.734607   0.95692889 
   51300    221.80047   -376.42603    130456.58   -40487.339    2759.6196   -43246.958    82.602539   0.95735681 
   51400    220.85562   -242.65257    130312.39    -40487.07    2747.8638   -43234.934    82.928872   0.95841606 
   51500    223.75524   -126.48688    130219.15   -40475.069    2783.9406    -43259.01    82.881409   0.95910234 
   51600    225.65804   -248.84807     130281.1   -40401.545     2807.615    -43209.16    83.244531   0.95864629 
   51700    224.11058   -317.24297     130348.4   -40380.546    2788.3617   -43168.908    83.379383   0.95815128 
   51800    223.90504   -114.00456     130187.5   -40413.759    2785.8044   -43199.564    83.174704   0.95933553 
   51900    225.01672   -226.29078     130181.8   -40449.149    2799.6357   -43248.785    83.476163   0.95937749 
   52000    225.88687   -180.82035     130397.1   -40483.074    2810.4622   -43293.537    83.436848   0.95779347 
   52100    224.85265   -173.96802    130341.86   -40437.549    2797.5945   -43235.144    83.755072   0.95819943 
   52200    226.28771   -383.09588    130450.86   -40468.259    2815.4493   -43283.709    83.832501   0.95739876 
   52300     219.9659   -201.87406    130218.27   -40450.552     2736.794   -43187.346    83.718909   0.95910881 
   52400    229.65398   -273.66233    130266.37   -40403.352    2857.3321   -43260.684    83.850344    0.9587547 
   52500    225.68772   -349.00806    130307.96   -40393.991    2807.9844   -43201.975     83.72458   0.95844871 
   52600    222.25617   -302.42151    130368.16   -40407.686    2765.2893   -43172.975    84.064624   0.95800608 
   52700    222.32976   -402.88917    130367.56   -40426.319    2766.2048   -43192.524    84.163613   0.95801052 
   52800    226.71015   -273.36051     130362.4   -40384.009    2820.7053   -43204.714    84.097986   0.95804843 
   52900      224.089   -420.43557    130304.55   -40392.705    2788.0932   -43180.799    84.441986   0.95847377 
   53000    226.84826   -234.42947    130174.67   -40370.673    2822.4237   -43193.097    84.569599   0.95943006 
   53100    227.92876   -179.33601    130393.39   -40424.727    2835.8671   -43260.594    85.021517   0.95782072 
   53200    221.07976   -387.85213    130393.35   -40394.809    2750.6525   -43145.461    84.967781   0.95782104 
   53300    220.68801   -341.01808    130417.61   -40394.462    2745.7783    -43140.24    85.323858   0.95764287 
   53400    224.65576   -144.56426     130225.5   -40478.037    2795.1448   -43273.181    85.141605   0.95905557 
   53500    223.49277   -290.75767     130317.8   -40482.503    2780.6749   -43263.178      85.3336   0.95837631 
   53600    227.68432   -336.41189    130299.24   -40502.011    2832.8258   -43334.836    85.431005   0.95851283 
   53700    218.61989   -300.68389    130248.32   -40539.399     2720.047   -43259.446    85.725337   0.95888754 
   53800    223.73705   -293.40015    130358.91   -40418.352    2783.7142   -43202.066    86.039463   0.95807405 
   53900    222.11192   -198.65253    130356.01   -40458.886    2763.4946    -43222.38    86.216224   0.95809539 
   54000    223.52607   -167.95262    130337.85    -40417.24    2781.0892   -43198.329    86.401825   0.95822885 
   54100    227.26215   -180.39556    130308.73   -40447.469    2827.5732   -43275.042    86.501425   0.95844304 
   54200    224.32915   -285.25163    130221.35   -40441.836    2791.0811   -43232.917    86.394905   0.95908616 
   54300    223.92673   -271.29989    130261.05   -40412.845    2786.0742    -43198.92    86.521235    0.9587938 
   54400    224.96375   -393.21453     130314.7   -40435.163    2798.9767    -43234.14    86.503299    0.9583991 
   54500    223.32625   -109.82538    130312.78   -40427.244    2778.6031   -43205.847     87.05386   0.95841325 
   54600     229.0656   -227.71106    130257.22   -40331.901    2850.0116   -43181.913    87.168131   0.95882205 
   54700    223.66395   -317.63033    130341.77   -40357.341    2782.8047   -43140.145    87.668992   0.95820009 
   54800    229.87168   -263.52834    130461.73   -40437.554    2860.0407   -43297.595    87.640747   0.95731898 
   54900    230.22493   -187.80651    130598.75   -40480.479    2864.4359   -43344.914    87.655394    0.9563146 
   55000    223.64847   -324.34377    130570.06   -40551.677    2782.6121    -43334.29    87.763005   0.95652476 
   55100    224.07306   -99.358042     130704.1   -40513.372    2787.8948   -43301.267    87.985481   0.95554377 
   55200    222.35514   -174.80222    130681.27   -40526.763    2766.5206   -43293.284    88.057927   0.95571074 
   55300      226.899   -145.69147    130686.18   -40482.004    2823.0549   -43305.059    88.265321   0.95567481 
   55400    229.07777   -13.655659    130830.05   -40466.391    2850.1629   -43316.554    88.569898   0.95462389 
   55500    225.24209   -326.40009    130825.67   -40411.608    2802.4399   -43214.048    89.343405   0.95465586 
   55600    224.99897   -282.53569    130832.18   -40461.771    2799.4149   -43261.186    89.579831   0.95460835 
   55700    225.23483   -187.34588    130896.14     -40473.5    2802.3495   -43275.849    89.550142    0.9541419 
   55800    228.86035   -419.96001    131043.64    -40486.54    2847.4579   -43333.998    89.515545   0.95306792 
   55900    226.09433   -375.73708    130832.11   -40458.075    2813.0434   -43271.118    89.406533   0.95460882 
   56000    227.85732   -401.37227    130791.96   -40459.573    2834.9783   -43294.551    89.613734   0.95490191 
   56100    230.02639   -84.578999    130637.35   -40419.206    2861.9657   -43281.171    89.595193   0.95603206 
   56200    226.23629    7.9900431    130604.98    -40397.81    2814.8095   -43212.619     89.59346   0.95626899 
   56300    228.78116   -192.85394    130955.48   -40434.969    2846.4726   -43281.441    89.636957   0.95370957 
   56400    228.67677   -134.21056    130980.39   -40418.052    2845.1738   -43263.226    89.845093   0.95352816 
   56500      223.303   -235.56868    131028.48   -40493.465    2778.3139   -43271.779    90.081101   0.95317818 
   56600    222.14663   -313.56375    130950.49   -40503.876    2763.9264   -43267.802    90.222962   0.95374592 
   56700    219.50754   -199.18463    130990.95     -40536.4    2731.0911   -43267.491    90.357725   0.95345129 
   56800    229.01608   -265.21813     130960.6    -40464.97    2849.3954   -43314.365    90.259635   0.95367222 
   56900    226.71103   -310.45258     130810.5   -40458.432    2820.7163   -43279.148    90.206281   0.95476657 
   57000    230.86035   -283.69341    130761.42   -40399.696    2872.3416   -43272.037    90.288066   0.95512495 
   57100    225.14102   -283.55719    130752.56   -40472.945    2801.1823   -43274.128    90.518003   0.95518961 
   57200    223.93372   -295.25931    130736.87   -40525.858    2786.1612   -43312.019    90.854566   0.95530429 
   57300    220.39593    -209.3553    130792.71   -40583.916    2742.1443   -43326.061    91.051273   0.95489646 
   57400    218.20002    -204.2218    130787.14   -40597.191     2714.823   -43312.014    90.734739   0.95493707 
   57500    221.00388   -184.03993    130715.71   -40644.641    2749.7084    -43394.35    90.865384   0.95545888 
   57600    222.40371   -418.80991    130667.99    -40607.93     2767.125   -43375.055    91.060522   0.95580784 
   57700    218.18353   -168.12414    130702.85   -40652.818    2714.6179   -43367.436    91.258135   0.95555296 
   57800    219.57758   -197.45121       130596   -40657.719    2731.9625   -43389.681    91.512085   0.95633475 
   57900    224.17722   -101.29931    130463.39   -40608.652    2789.1908   -43397.843    91.746952   0.95730684 
   58000    217.69166   -275.46134    130646.78   -40606.335    2708.4981   -43314.833     91.87098     0.955963 
   58100    221.38669   -356.91928    130634.21   -40530.347    2754.4714   -43284.818    92.009429   0.95605499 
   58200    222.75718   -278.08841    130477.23   -40452.625    2771.5228   -43224.147    92.128431   0.95720525 
   58300    224.08971   -415.95787    130289.47   -40385.557    2788.1021   -43173.659    92.462114   0.95858469 
   58400    229.02705   -267.97119    130201.84   -40385.833     2849.532   -43235.365    92.433912   0.95922985 
   58500    229.02252   -387.43473    130405.18   -40395.113    2849.4756   -43244.589    92.843464   0.95773414 
   58600    230.34199    -83.51945    130492.42   -40366.631    2865.8923   -43232.524    93.130869   0.95709384 
   58700    229.65724   -309.77379    130577.57   -40374.863    2857.3727   -43232.236    93.536215   0.95646971 
   58800    224.37546   -397.37614     130557.8   -40416.001    2791.6573   -43207.659    93.607433   0.95661458 
   58900    221.35723   -225.13361    130625.04   -40454.181    2754.1048   -43208.285    93.573733   0.95612216 
   59000    222.79519    -113.8334    130544.71   -40430.191    2771.9957   -43202.187    93.581341    0.9567105 
   59100    222.92072   -245.29253    130495.13   -40422.216    2773.5576   -43195.774    94.036176   0.95707394 
   59200    221.51384   -310.23152    130536.76   -40443.352    2756.0534   -43199.405    94.010682   0.95676871 
   59300    223.48901    -145.2781    130395.63   -40454.249    2780.6282   -43234.877    93.940713   0.95780428 
   59400     222.5244   -301.79491    130351.33   -40507.781    2768.6266   -43276.408    94.265508   0.95812977 
   59500    220.63796   -332.98425    130364.62   -40477.043    2745.1556   -43222.199    94.533387   0.95803211 
   59600    221.25589   -395.63377    130490.39   -40454.533    2752.8439   -43207.377    94.874588   0.95710873 
   59700    219.41882   -154.72974    130595.29    -40466.71    2729.9872   -43196.697    94.927109    0.9563399 
   59800    225.77592   -336.30936    130648.26   -40476.246    2809.0817   -43285.327    94.993877   0.95595216 
   59900    220.46965   -175.78964     130602.7   -40449.523    2743.0616   -43192.585    95.246485   0.95628565 
   60000    222.71258   -215.67724    130644.43   -40479.843    2770.9679   -43250.811    95.220551   0.95598025 
   60100    226.26164   -202.95946    130684.44   -40448.954     2815.125   -43264.079     95.55547   0.95568755 
   60200    222.81087   -72.805289     130605.6   -40436.253    2772.1908   -43208.444    95.800548   0.95626443 
   60300    223.64639   -233.29818    130674.06   -40404.249    2782.5862   -43186.836    95.816542   0.95576345 
   60400    230.95475   -179.52455    130791.64   -40352.019    2873.5161   -43225.535     95.99121   0.95490427 
   60500    225.01474   -273.31041    130888.72   -40371.115    2799.6112   -43170.726    96.040184   0.95419597 
   60600    223.75953   -182.89938    130594.23   -40437.284     2783.994   -43221.278    95.947809   0.95634769 
   60700    226.98806   -207.60735    130805.12   -40470.103     2824.163   -43294.266    96.241678   0.95480583 
   60800    227.17575   -169.41029    130737.82   -40432.207    2826.4983   -43258.705    96.260941   0.95529731 
   60900    225.17833   -462.97134    130738.68   -40429.381    2801.6466   -43231.028    96.306012   0.95529105 
   61000    223.19593   -463.73448     130727.1   -40467.075    2776.9817   -43244.056    96.636732   0.95537569 
   61100    222.80184   -336.44982    130767.56   -40502.187    2772.0785   -43274.265    96.894344    0.9550801 
   61200    223.73753   -235.19089    130579.09   -40510.722    2783.7202   -43294.442    97.016633   0.95645859 
   61300    223.60642   -348.58073    130571.31   -40496.569     2782.089   -43278.658    96.927678   0.95651555 
   61400    225.02859   -229.43835    130584.09   -40537.561    2799.7835   -43337.344    97.047052   0.95642193 
   61500    224.36865   -423.74233    130400.16   -40529.762    2791.5726   -43321.335    97.251005   0.95777101 
   61600    223.95837   -257.77089    130441.78   -40470.246     2786.468   -43256.714    97.569367   0.95746539 
   61700    222.80029   -223.13183    130295.91   -40548.074    2772.0591   -43320.133    97.602827   0.95853734 
   61800    223.32363   -265.33414    130541.47   -40601.115    2778.5705   -43379.686    97.623316   0.95673422 
   61900    223.93922   -103.53576    130656.77   -40540.704    2786.2296   -43326.933    97.520077   0.95588993 
   62000    222.34635   -338.31342    130651.37   -40515.252    2766.4113   -43281.664    97.865915   0.95592946 
   62100     226.0759   -311.71063    130581.18   -40535.382    2812.8141   -43348.196    97.934716   0.95644327 
   62200    226.91296   -211.67094    130657.62   -40496.028    2823.2286   -43319.257     98.13376   0.95588373 
   62300    223.51256   -161.12694    130504.68   -40531.797    2780.9211   -43312.718    98.167722   0.95700391 
   62400    225.28737   -290.67225    130663.85   -40464.818    2803.0032   -43267.821    98.486009   0.95583814 
   62500    225.35535   -213.77891    130446.89   -40466.911     2803.849    -43270.76    98.802789   0.95742793 
   62600    224.47295   -358.09418    130626.37   -40477.748    2792.8702   -43270.618    98.841973   0.95611236 
   62700    223.07634    -280.0087     130740.5   -40513.101    2775.4938   -43288.595    98.754645   0.95527777 
   62800    226.52271   -279.09965    130600.11   -40493.393    2818.3732   -43311.766    98.934164   0.95630463 
   62900     226.3126   -167.47641    130654.09   -40436.315     2815.759   -43252.074    98.715679   0.95590955 
   63000    227.68688   -198.41452     130580.6   -40382.757    2832.8576   -43215.614    98.956443   0.95644755 
   63100    227.61588   -267.96865    130579.08   -40361.029    2831.9743   -43193.003    99.307519   0.95645867 
   63200    223.06457   -356.54131    130532.67   -40394.592    2775.3473   -43169.939    99.550946   0.95679872 
   63300    221.80183   -302.69331    130463.41   -40426.147    2759.6365   -43185.783    99.757533   0.95730666 
   63400    224.38894   -258.99599    130565.64   -40337.186     2791.825   -43129.011    99.720242   0.95655713 
   63500     223.7898   -339.55987    130413.48   -40423.719    2784.3706    -43208.09    99.640712   0.95767317 
   63600    229.19578   -212.21632    130252.27   -40412.429    2851.6313    -43264.06    99.520643   0.95885843 
   63700    225.11306   -220.47948    130195.45   -40413.134    2800.8345   -43213.968    99.873314   0.95927696 
   63800    219.83834   -313.76543    130129.91   -40518.988    2735.2069   -43254.195    100.20875   0.95976006 
   63900    222.03347   -114.79817    129985.44   -40506.888    2762.5184   -43269.406    100.56565   0.96082677 
   64000    220.14235   -243.70347    129954.97   -40474.675    2738.9893   -43213.664    100.59807   0.96105205 
   64100    225.52324   -218.60643    130014.75   -40382.543    2805.9379   -43188.481    100.80141   0.96061014 
   64200    228.82874   -117.42815    130051.87   -40398.868    2847.0646   -43245.933     100.6982   0.96033597 
   64300    229.79473    -229.0973    130219.84   -40322.528    2859.0834   -43181.612    100.89151   0.95909724 
   64400    228.91688   -321.99614    130251.03    -40361.33    2848.1612   -43209.491    101.30632   0.95886758 
   64500    227.85002   -271.28332    130336.15   -40356.205    2834.8874   -43191.093    101.55436   0.95824137 
   64600    225.81341   -354.42528    130395.76   -40404.486    2809.5481   -43214.034    102.25961   0.95780333 
   64700    218.03785   -228.61209    130280.63   -40403.886    2712.8054   -43116.691    102.41942   0.95864977 
   64800    224.40483   -302.64434    130378.11    -40409.48    2792.0227   -43201.502     102.1681   0.95793295 
   64900    225.90107   -208.54826    130174.18    -40391.84    2810.6388   -43202.479    102.32848   0.95943366 
   65000    229.60869   -230.79152    130128.32   -40365.624    2856.7687   -43222.393    102.48271    0.9597718 
   65100    225.08679   -192.86683    130425.39   -40394.167    2800.5075   -43194.674     102.9768    0.9575857 
   65200    220.00798   -84.988465    130438.13    -40378.31    2737.3175   -43115.628    103.08884   0.95749217 
   65300    223.26472    -201.9883    130386.86   -40358.245    2777.8375   -43136.083    103.16832   0.95786873 
   65400    228.84305   -311.12882    130399.44   -40288.961    2847.2426   -43136.204      103.344    0.9577763 
   65500    224.90206   -224.01081    130296.12   -40366.937    2798.2092   -43165.146     103.3545   0.95853579 
   65600    226.01139    -258.0091    130373.88   -40401.407    2812.0113   -43213.418     103.4163   0.95796405 
   65700    222.83349    -185.4649    130510.17   -40447.894    2772.4722   -43220.367    103.53555   0.95696369 
   65800     224.5613   -306.03876    130684.91   -40464.434    2793.9696   -43258.404    103.83413   0.95568414 
   65900    224.86316   -238.59795    130606.28   -40438.201    2797.7253   -43235.926     104.2674   0.95625945 
   66000    228.19858   -530.06115    130656.09   -40335.239    2839.2242   -43174.463    104.18237   0.95589492 
   66100    227.30775   -414.06768    130691.46   -40279.632    2828.1405   -43107.772    104.27398   0.95563621 
   66200    230.33271   -218.36544    130869.74   -40239.205    2865.7768   -43104.982    104.47926   0.95433436 
   66300    228.25744   -376.51467       130662    -40281.21    2839.9565   -43121.167    104.70456   0.95585169 
   66400    223.83762   -238.03805    130383.29   -40323.743    2784.9655   -43108.708    104.86763   0.95789492 
   66500    226.90169   -278.20206    130493.76   -40330.905    2823.0884   -43153.993    105.10662     0.957084 
   66600    225.74744   -234.70518     130377.1    -40351.32    2808.7273   -43160.047    105.40552   0.95794041 
   66700    224.68317   -162.61552    130423.18   -40388.839    2795.4858   -43184.324    105.80121   0.95760194 
   66800    226.22139   -314.51881    130333.91   -40337.868    2814.6241   -43152.492    105.71424   0.95825785 
[...]
   84600    222.79473      84.8269    130392.75   -40495.716      2771.99   -43267.706    129.38115   0.95782543 
   84700    222.07706    -280.9679    130415.63   -40509.733    2763.0608   -43272.794     129.2333    0.9576574 
   84800    224.51931   -170.57884    130269.17   -40481.779     2793.447   -43275.226    129.34954   0.95873406 
   84900    221.89751   -201.91544    130391.89   -40454.047    2760.8268   -43214.874    129.67984   0.95783177 
   85000    226.02534   -323.23434    130472.54   -40413.687    2812.1849   -43225.872    129.95898    0.9572397 
   85100    222.62726   -309.76056    130755.34   -40423.315    2769.9064   -43193.221    129.94403   0.95516931 
   85200    224.48638   -118.71741    130871.21   -40434.228    2793.0373   -43227.266    130.53799   0.95432368 
   85300    221.85597    -234.8461    131020.13   -40478.154      2760.31   -43238.464    130.36557   0.95323895 
   85400    224.02919   -423.17437    130863.88   -40463.788     2787.349   -43251.137    130.61343    0.9543771 
   85500    228.40553   -144.90503    130944.44   -40439.036     2841.799   -43280.835    130.54858   0.95378993 
   85600    229.69491   -239.48235    130796.12   -40424.219    2857.8414    -43282.06    130.77231   0.95487152 
   85700    226.65004   -236.48948    130862.81   -40469.923    2819.9574   -43289.881    130.50985   0.95438494 
   85800    220.64404   -327.09055     130746.5   -40480.225    2745.2314   -43225.457    130.87206   0.95523395 
   85900    223.81071   -402.44681    130741.54   -40375.174    2784.6308   -43159.804    131.04173   0.95527016 
   86000    226.84073   -243.33282    130722.07   -40436.172    2822.3299   -43258.502    131.22738   0.95541244 
   86100    227.96623   -363.02776    130761.23   -40432.341    2836.3333   -43268.675    131.87014   0.95512631 
   86200    225.52921   -293.65269    130743.08   -40416.201    2806.0121   -43222.213    132.15033   0.95525889 
   86300    224.86363   -327.99123    130724.49   -40445.984    2797.7311   -43243.715     132.5025   0.95539473 
   86400    222.30487   -263.02565    130482.62   -40472.507    2765.8952   -43238.402    132.41035   0.95716569 
   86500     223.9327   -304.83089    130545.79   -40471.689    2786.1485   -43257.837    132.45615   0.95670256 
   86600    231.78098   -321.00037    130618.96   -40423.378     2883.796   -43307.174    132.58691   0.95616661 
   86700    226.57102   -206.07535    130617.31   -40411.297    2818.9742   -43230.271    132.80392   0.95617871 
   86800    223.94394   -341.98015    130631.21   -40501.301    2786.2884   -43287.589    132.51881   0.95607695 
   86900    230.02818   -428.14663    130622.15   -40480.889    2861.9878   -43342.877    132.70948   0.95614326 
   87000    224.89929   -172.24682    130491.65   -40489.285    2798.1748    -43287.46    132.92617   0.95709945 
   87100    225.89111   -248.95721    130527.97   -40525.883    2810.5149   -43336.398    133.00178   0.95683315 
   87200    224.76579   -106.50786    130405.22   -40520.898    2796.5138   -43317.412    133.09625    0.9577338 
   87300    221.38085   -163.67783    130396.45   -40514.291    2754.3987   -43268.689    133.24062   0.95779825 
   87400    224.02089   -285.03012    130502.82   -40505.585    2787.2457   -43292.831    133.33208   0.95701759 
   87500    221.74512    -224.6108    130871.63   -40501.009    2758.9309    -43259.94    134.03125   0.95432061 
   87600    224.64377   -298.60722    130591.88   -40497.966    2794.9956   -43292.962    133.87701   0.95636489 
   87700    225.38243   -323.08433    130440.33   -40509.503     2804.186   -43313.689    133.66359   0.95747601 
   87800     225.8531   -401.07814    130549.25   -40488.719     2810.042   -43298.761     133.9574   0.95667718 
   87900    226.67143   -146.55829    130412.06   -40512.514    2820.2235   -43332.737    133.59702   0.95768362 
   88000    224.83954   -334.50811    130482.79   -40544.922    2797.4313   -43342.354    133.77251   0.95716451 
   88100    228.36313   -108.45635    130653.95   -40469.582    2841.2715   -43310.854    133.58882   0.95591055 
   88200    224.57651   -164.12718    130645.65   -40453.831    2794.1587    -43247.99    133.64222   0.95597128 
   88300    224.30302    -264.2643    130751.08   -40492.506     2790.756   -43283.262    133.56285   0.95520042 
   88400    219.86157   -215.06646    130795.82   -40607.685     2735.496   -43343.181    133.96898    0.9548737 
   88500    229.32854   -355.76363    130896.58   -40503.713    2853.2831   -43356.996    134.35314   0.95413866 
   88600    225.19813   -295.36075    130778.58   -40471.184    2801.8929   -43273.077    134.52843   0.95499957 
   88700    223.88072   -160.53507    130693.71    -40442.72    2785.5018   -43228.222    134.55741   0.95561973 
   88800     229.5708   -361.11805    130500.75   -40370.804    2856.2971   -43227.102    134.40758   0.95703273 
   88900    228.13734    -406.6229    130580.33   -40415.064    2838.4622   -43253.526    134.64608   0.95644953 
   89000    226.00162   -399.16615    130393.77   -40391.777    2811.8899   -43203.667    134.59894   0.95781796 
   89100    221.67352   -278.51012    130350.84   -40485.619    2758.0401   -43243.659    134.40004    0.9581334 
   89200    224.34949   -286.79549    130347.73   -40522.151    2791.3341   -43313.486    134.66311   0.95815625 
   89300    226.27556   -231.84189    130300.46   -40530.009    2815.2982   -43345.308    134.86664   0.95850386 
   89400    223.72684   -336.34117    130253.34   -40560.415    2783.5872   -43344.003    135.17785   0.95885057 
   89500    223.46275   -54.198946    130333.55   -40587.688    2780.3014    -43367.99    135.51507   0.95826049 
   89600    219.83065   -71.349419    130376.69   -40638.146    2735.1113   -43373.257    135.58129   0.95794344 
   89700    221.70194   -294.96234    130362.68   -40603.865    2758.3936   -43362.258    135.62134   0.95804633 
   89800    220.44527   -311.50399     130425.2   -40557.665    2742.7582   -43300.423    135.82457   0.95758708 
   89900    220.70312   -232.95603    130392.62   -40619.263    2745.9664    -43365.23     135.8477   0.95782642 
   90000    222.22951   -176.92578    130507.53   -40536.951    2764.9576   -43301.908      135.893   0.95698301 
   90100    223.17748   -212.51086    130523.08   -40552.554    2776.7521   -43329.307    136.19511     0.956869 
   90200    222.68732   -281.69622    130640.48   -40596.054    2770.6536   -43366.707    136.51467   0.95600911 
   90300    220.40384   -320.92469    130595.34   -40611.207    2742.2428    -43353.45    136.18668   0.95633954 
   90400    224.77187   -127.43993    130619.07   -40598.167    2796.5894   -43394.757    135.98659   0.95616583 
   90500    226.16273   -92.476105       130655   -40565.457    2813.8943   -43379.352    136.29223   0.95590285 
   90600    226.74079   -335.78774     130813.1   -40470.483    2821.0865   -43291.569    136.82395   0.95474759 
   90700    226.89751   -267.75573    130809.58   -40480.295    2823.0364   -43303.332    136.98503   0.95477328 
   90800    222.84283   -154.88183    130879.83   -40516.043    2772.5884   -43288.632    137.18166   0.95426077 
   90900    218.40202   -363.38302    130787.78   -40613.998    2717.3363   -43331.335    137.11481   0.95493244 
   91000    223.62495   -183.51477    130850.63   -40624.892    2782.3196   -43407.212    137.00019   0.95447376 
   91100    222.93391   -99.886811    130841.73   -40606.785    2773.7217   -43380.507    137.04735   0.95453868 
   91200    219.11221   -345.47657    130809.29   -40549.887    2726.1725   -43276.059    136.55651   0.95477538 
   91300    225.61816   -146.26691    130659.66   -40453.258    2807.1188   -43260.377     137.0112   0.95586879 
   91400    229.05365   -195.61735    130676.65    -40440.35    2849.8628   -43290.213    137.22503   0.95574454 
   91500     228.7763   -28.722766    130812.85   -40442.575    2846.4121   -43288.987    137.76185   0.95474938 
   91600    223.94063   -237.23011    130909.37   -40496.363    2786.2472   -43282.611    137.75932   0.95404549 
   91700     223.6008   -268.22394     131082.7   -40577.679    2782.0191   -43359.699     137.8085   0.95278397 
   91800    228.02713    -136.0906    131134.87   -40554.885     2837.091   -43391.976    138.00108   0.95240488 
   91900    225.72279   -281.88442    131303.68   -40562.616    2808.4206   -43371.037    138.23385    0.9511804 
   92000    222.79553   -351.02962    131192.86   -40580.135         2772   -43352.135    138.53277   0.95198391 
   92100    222.67361   -312.57959     130954.7   -40622.985    2770.4831   -43393.469    138.34803   0.95371519 
   92200     222.7086   -360.93774    130945.63   -40550.274    2770.9184   -43321.193    138.14812    0.9537813 
   92300    227.44311    -35.90444    131020.45   -40452.908    2829.8247   -43282.733    138.26293   0.95323663 
   92400     227.6078   -235.20884    130899.71   -40454.833    2831.8738   -43286.707    138.83108   0.95411585 
   92500    223.56767    -265.4753    131045.57   -40510.819    2781.6068   -43292.426     138.8323   0.95305389 
   92600    228.90725   -267.92741    131046.43   -40487.872    2848.0414   -43335.914    139.18515   0.95304766 
   92700    225.05891   -74.187258       131120   -40489.959    2800.1607    -43290.12    139.42862   0.95251292 
   92800    224.73923   -86.219363    131248.27   -40530.794    2796.1833   -43326.978    139.54688     0.951582 
   92900    228.84707   -218.89202    131161.71    -40508.58    2847.2927   -43355.872     139.4792   0.95221001 
   93000    225.97571   -221.52057    131083.83   -40546.641    2811.5674   -43358.209    139.27862   0.95277569 
   93100    225.59609   -472.86668     131004.8   -40506.782    2806.8443   -43313.626    139.15703   0.95335051 
   93200    225.43369   -343.56813    131003.92   -40518.603    2804.8237   -43323.427    139.23911   0.95335691 
   93300    229.01425    -361.0158    130845.55   -40535.241    2849.3727   -43384.614    139.39243    0.9545108 
   93400    220.85268    -153.8072    130994.47   -40567.033    2747.8272    -43314.86    139.73278   0.95342564 
   93500    221.41677   -101.21981    131007.37   -40602.581    2754.8456   -43357.426     139.5786   0.95333179 
   93600    221.66166   -243.66177    130999.62   -40672.944    2757.8925   -43430.836    139.92934   0.95338817 
   93700    224.87999   -191.69259    130877.06   -40645.585    2797.9346    -43443.52    140.01042   0.95428096 
   93800    219.95935   -354.85305    130911.92   -40613.329    2736.7125   -43350.041    139.98619   0.95402689 
   93900    226.63308   -229.34852    130870.58   -40599.128    2819.7464   -43418.874    140.09658   0.95432828 
   94000    224.90628   -154.42347    131032.47   -40593.961    2798.2617   -43392.223    140.23696   0.95314915 
   94100    224.00757   -247.07823    131116.49    -40594.78    2787.0801    -43381.86    140.36653   0.95253841 
   94200    219.25952   -298.85809    131265.84   -40584.188    2728.0053   -43312.193    140.81802   0.95145466 
   94300    226.69485   -490.93147    131274.86   -40531.675    2820.5149    -43352.19     141.1528   0.95138926 
   94400    229.17663   -83.580423    131161.67    -40519.74     2851.393   -43371.133    140.82589   0.95221026 
   94500    225.75349    -285.4184    131130.28   -40457.703    2808.8026   -43266.506    141.08827   0.95243821 
   94600     227.8064   -326.44235    130863.33   -40500.694    2834.3447   -43335.039    140.99134   0.95438115 
   94700    225.70482   -381.11854    130661.36   -40541.997    2808.1971   -43350.195    140.99995   0.95585635 
   94800    223.24045   -232.26587     130629.8   -40525.177    2777.5356   -43302.713    141.10237   0.95608727 
   94900    224.06658   -330.85701    130764.37   -40484.948    2787.8142   -43272.762    140.94912   0.95510338 
   95000    222.81654   -177.74075     130678.1   -40453.767    2772.2614   -43226.028      140.771   0.95573389 
   95100    232.24135   -396.37635    130970.86   -40446.037    2889.5239   -43335.561    141.17161   0.95359752 
   95200    227.69659   -132.35335    130946.43   -40462.065    2832.9784   -43295.043    141.44826   0.95377547 
   95300    226.07417   -191.49215    131115.39    -40356.99    2812.7925   -43169.782    141.65247   0.95254638 
   95400    223.95165   -382.29267    131121.17   -40411.733    2786.3843   -43198.118    141.89343    0.9525044 
   95500    225.41105   -280.23656    131179.14   -40410.952     2804.542   -43215.494    142.07571    0.9520835 
   95600    226.75567   -359.47868    131009.34   -40398.374    2821.2716   -43219.646    141.86789   0.95331747 
   95700    226.25703   -42.190068    130996.23   -40459.118    2815.0677   -43274.186    142.06286   0.95341283 
   95800    224.03493   -258.78811    130997.83    -40504.49    2787.4205   -43291.911    142.23093   0.95340124 
   95900    226.04924   -236.09488    130818.93   -40456.426    2812.4823   -43268.908    142.05307   0.95470501 
   96000    221.39684   -302.97876    130728.35    -40545.11    2754.5976   -43299.707    142.03639   0.95536655 
   96100    224.43143    -311.1659     130639.2    -40486.54    2792.3537   -43278.894    142.39268   0.95601846 
   96200    218.50803   -307.65128    130686.88   -40532.525    2718.6552    -43251.18    142.66127    0.9556697 
   96300    224.87536   -216.12798    130644.43   -40480.372     2797.877   -43278.249    142.68207   0.95598021 
   96400    225.47997   -277.01326    130636.29   -40453.833    2805.3995   -43259.233      142.665   0.95603975 
   96500    226.91684   -224.00093    130626.99   -40496.735    2823.2769   -43320.012    142.54163   0.95610783 
   96600    224.28682   -213.16517    130554.53   -40483.845    2790.5544   -43274.399    142.60693   0.95663852 
   96700    221.68402   -286.16442    130315.22   -40563.777    2758.1706   -43321.947    142.63355   0.95839526 
   96800    223.43045   -282.70647    130523.31    -40618.93    2779.8996    -43398.83    142.90217   0.95686732 
   96900    222.70275   -364.42633    130515.18   -40557.877    2770.8457   -43328.723    143.28944   0.95692696 
   97000    224.28674   -160.40812    130202.31   -40568.059    2790.5534   -43358.613    142.99662   0.95922642 
   97100    219.26276   -350.09993    130191.86   -40545.766    2728.0455   -43273.812    143.51119   0.95930335 
   97200    218.60485   -222.26228     130202.5   -40531.196    2719.8599   -43251.056    143.58423   0.95922498 
   97300    221.47283   -136.53324    130289.29   -40520.728     2755.543   -43276.271     143.5482   0.95858599 
   97400    222.57029    -333.9585    130456.93   -40518.386    2769.1976   -43287.584     143.9575   0.95735419 
   97500    222.28389   -101.40623     130420.4   -40420.513    2765.6342   -43186.147    143.86164   0.95762234 
   97600     222.1921    -307.7003    130418.36   -40473.991    2764.4921   -43238.483    143.72678   0.95763736 
   97700    226.44452   -194.20756    130589.35   -40399.989    2817.4004   -43217.389    144.03066   0.95638344 
   97800    226.24184   -101.73663    130618.85   -40370.437    2814.8786   -43185.316    144.20565   0.95616744 
   97900    227.83073   -303.57155    130630.49   -40336.163    2834.6474    -43170.81     144.3235   0.95608222 
   98000    229.83618   -203.95958    130470.72   -40351.499    2859.5991   -43211.098    144.20165   0.95725303 
   98100    226.43011   -192.04533    130583.57   -40434.058    2817.2211   -43251.279    144.67387   0.95642577 
   98200    226.04186   -183.03664    130634.12   -40416.058    2812.3905   -43228.449    144.80113   0.95605564 
   98300    225.93648   -370.18529    130589.43    -40428.88    2811.0793   -43239.959    145.04292   0.95638284 
   98400    226.92732   -72.420548    130741.11    -40449.99    2823.4073   -43273.398    145.49695   0.95527327 
   98500    221.54096   -229.74084     130757.1   -40455.662    2756.3908   -43212.053    145.76162   0.95515646 
   98600    221.13141   -343.89387     130713.1   -40482.435    2751.2952   -43233.731    146.06303   0.95547801 
   98700    222.21617   -179.26468    130689.13    -40538.98    2764.7916   -43303.772    145.79933   0.95565325 
   98800    219.95384   -162.04379    130794.38   -40535.379     2736.644   -43272.023    146.20003   0.95488424 
   98900    220.13736   -247.19097    130847.39   -40551.175    2738.9273   -43290.103    146.33554   0.95449741 
   99000    223.96444   -222.16244    130895.82   -40600.481    2786.5434   -43387.024    146.67665   0.95414425 
   99100    222.19512   -324.83429    130871.75   -40542.546    2764.5297   -43307.075    146.62065   0.95431972 
   99200    226.20158   -302.15659    130824.24   -40532.173    2814.3777   -43346.551    146.68889    0.9546663 
   99300    227.64773   -391.97804    130757.99   -40480.642    2832.3706   -43313.012    146.47973   0.95514994 
   99400    228.33326   -303.35648    130659.34   -40451.583    2840.8999   -43292.483    146.61144   0.95587114 
   99500    227.43592   -303.54757    130589.87   -40326.453    2829.7352   -43156.188    146.79203   0.95637965 
   99600    227.42268   -169.76232    130473.67   -40354.888    2829.5705   -43184.458    146.56014   0.95723138 
   99700    223.72722   -392.41978    130313.65   -40354.132    2783.5919   -43137.724    146.70367   0.95840685 
   99800    231.69788   -107.70301    130335.34   -40358.593    2882.7621   -43241.356    146.72284   0.95824735 
   99900    229.85903   -361.76225    130298.86   -40421.847    2859.8833    -43281.73    147.35835    0.9585156 
  100000     225.9073   -213.89613    130423.25   -40437.153    2810.7162   -43247.869    148.08055   0.95760146 
  100100    229.96422    -275.1879     130483.5   -40368.958    2861.1921    -43230.15    148.15238    0.9571593 
  100200     230.7408   -302.80984    130551.76    -40371.11    2870.8542   -43241.964    148.47032   0.95665879 
  100300    226.81739   -96.724265    130527.24   -40362.218    2822.0395   -43184.258    148.33915   0.95683849 
  100400    227.09819   -200.45519    130423.82   -40390.502    2825.5332   -43216.035    148.47716   0.95759723 
  100500    229.02636   -474.63224    130418.35   -40299.953    2849.5234   -43149.476    148.65613   0.95763743 
  100600    225.37692   -148.65304    130232.45   -40378.748    2804.1173   -43182.866    148.54167    0.9590044 
  100630    226.79156   -15.983783    130283.65   -40364.362    2821.7182    -43186.08    148.61969   0.95862754 
Loop time of 85.0258 on 6 procs for 100000 steps with 4175 atoms

Performance: 508.081 ns/day, 0.047 hours/ns, 1176.113 timesteps/s
98.6% CPU use with 6 MPI tasks x no OpenMP threads

MPI task timing breakdown:
Section |  min time  |  avg time  |  max time  |%varavg| %total
---------------------------------------------------------------
Pair    | 68.099     | 69.605     | 71.106     |  10.7 | 81.86
Neigh   | 5.2309     | 5.2518     | 5.2855     |   0.9 |  6.18
Comm    | 6.0786     | 7.6109     | 9.0993     |  32.3 |  8.95
Output  | 0.15995    | 0.16066    | 0.164      |   0.4 |  0.19
Modify  | 1.7579     | 1.783      | 1.8117     |   1.5 |  2.10
Other   |            | 0.6144     |            |       |  0.72

Nlocal:        695.833 ave         706 max         688 min
Histogram: 1 0 2 1 0 0 0 1 0 1
Nghost:        1471.67 ave        1483 max        1464 min
Histogram: 2 0 1 0 1 0 0 1 0 1
Neighs:        0.00000 ave           0 max           0 min
Histogram: 6 0 0 0 0 0 0 0 0 0
FullNghs:      19449.3 ave       19863 max       19238 min
Histogram: 1 2 1 0 1 0 0 0 0 1

Total # of neighbors = 116696
Ave neighs/atom = 27.951138
Neighbor list builds = 5633
Dangerous builds = 0

undump              1
unfix               2
unfix               3
unfix               4


################################################
#######         Run Simulation         #########
################################################

reset_timestep      0
log                 log.run_${NAME}
log                 log.run_liquid_density_MLmW
