LAMMPS data file via write_data, version 29 Oct 2020, timestep = 800000

4175 atoms
1 atom types

-0.5676475525516942 50.567647552548834 xlo xhi
-0.5676475525516942 50.567647552548834 ylo yhi
-0.5676475525516942 50.567647552548834 zlo zhi

Masses

1 18.015

Atoms # atomic

2129 1 1.0659612700606877 3.614289362319391 0.6925518030309001 1 1 0
1276 1 13.463056420143724 16.87158634437426 -0.29594946950423345 0 0 1
1289 1 11.61209302914032 0.9025873160903419 1.9685003224908018 0 0 1
128 1 16.017104356616027 1.50480248292773 0.3709399991293617 0 0 0
355 1 21.140812308335985 2.0607520245558475 2.0200207897671514 0 0 0
2971 1 19.23722395417118 1.2531779214308565 0.35292079222495765 0 1 0
712 1 23.437699537766342 0.7076545532942748 0.866780863066944 0 0 0
3314 1 26.70791261889404 -0.16632533380385284 0.21057113577896036 0 1 0
343 1 29.293567219152372 0.171600128964691 1.0905035975815514 0 0 0
3816 1 31.124726641387543 24.30994160126981 7.01271878140167 0 0 1
821 1 8.753017902977655 24.871882948582925 15.660111612704231 0 0 0
1938 1 38.120452052106245 0.04986066304954584 16.358475265776185 0 1 0
2652 1 35.88169062408052 -0.09650206742428596 3.253680079430642 0 1 0
1260 1 39.79384089582008 2.0599978774244145 2.0665446831924656 -1 0 0
1933 1 43.946684419466706 1.6499213488649525 0.3780207465070462 -1 1 1
1450 1 50.46487860588459 0.3627216504521593 0.6896406407159561 0 0 1
1641 1 16.848725052093805 21.80806788753835 0.01873556287274747 0 0 1
1312 1 37.0953725847351 4.535580300332358 -0.031191612050059825 -1 0 0
2561 1 5.484405336895401 3.21951201554741 1.0560423472005114 1 1 0
3436 1 8.06225040734769 3.8201240246137758 1.0899125300853547 1 0 0
1219 1 13.285656053734423 2.6496910951558217 0.7334980143686223 0 0 0
494 1 14.557208806023159 4.890754493106092 1.8387665841592469 -1 0 0
2675 1 17.531861912405017 3.5928992960597874 1.648896106787852 0 1 0
1756 1 20.270263981101145 5.0469917652725576 1.369017386332851 0 0 1
3958 1 37.02934757790999 24.629399567297146 9.894237478486401 0 0 1
2435 1 27.011313243620627 3.0555246987335893 0.3911024048639805 0 1 0
924 1 5.198619616638095 9.235124786889482 -0.18373010568947978 1 0 1
650 1 33.038454845976275 2.587202442493133 1.3032524034429176 0 0 0
3960 1 24.828584071458756 3.1460634231555273 16.265218375002718 0 1 1
61 1 38.66403635685104 4.2919655083499695 2.0230160873766603 0 0 0
347 1 42.47488148522804 2.461338777403296 2.678602808465748 0 0 0
655 1 42.23440629806187 5.471027680462007 2.8627638510710645 0 0 0
1902 1 46.440636790093166 2.507638654994611 1.0478647362746054 -1 0 1
441 1 45.82458410322414 5.152993657084755 0.4530532285743847 0 0 0
447 1 2.0767300977443885 7.374035643138847 2.0707526156471845 0 0 0
1335 1 4.642425412103792 8.629878652374499 2.484185895254179 1 0 1
463 1 49.87778423849066 24.689650424916 7.908253878087958 0 0 0
1168 1 8.070120885749333 6.823397446269167 1.8857455122991307 1 0 0
1456 1 13.303501771221713 7.223419548542776 0.7892412205347938 0 0 1
2427 1 15.150184769168456 9.264219470081231 0.8304595737550904 0 0 1
1254 1 16.61915364043283 24.43745885149935 1.7257375616125041 0 0 1
323 1 23.464020844926136 24.728356989387976 3.3293110428385364 0 0 0
999 1 30.38822003180226 8.193004009829865 0.269993317650154 0 0 0
966 1 32.81130743183964 7.751550418624742 1.4196667264654912 0 0 1
1872 1 35.46792386205901 8.220122566369167 0.4419868959536122 0 0 1
3870 1 40.29392628880515 6.397225267179915 1.0588282289377489 0 1 1
2261 1 39.58578040767624 9.228488103649827 1.1802028321412221 0 0 0
237 1 44.80457187331777 6.6750643104386045 2.614824994215415 0 0 0
848 1 48.51995955778361 6.405995110018883 0.18841985246253368 0 0 1
827 1 48.6833788391789 7.945143289020811 2.253741368590449 -1 0 0
2500 1 0.6935302586457035 12.027137777618547 0.45220736813259643 0 0 0
317 1 27.970727737364122 24.667993731066 12.112452627189901 0 0 0
1273 1 40.39594170804884 16.84111005797001 -0.16116115692351635 0 0 1
1827 1 9.656183108901306 10.15269462679652 0.7876177544695471 0 0 1
642 1 11.65934067367596 8.607889692694162 2.320969275016372 0 0 0
876 1 39.788113614045514 0.45968368937353676 10.977730591224764 0 0 0
1599 1 20.428547927493792 11.26619874343463 2.7454271100282135 0 0 0
3799 1 31.185228673592256 1.5406102944720588 -0.2728260271616226 0 1 1
689 1 18.01468641510911 9.713396095464256 -0.4120818154676707 0 0 0
1791 1 26.307695565508325 11.76600596712818 4.829452989033642 0 0 1
2677 1 26.09252044628595 6.000975841800829 0.4505328542206246 0 1 0
302 1 37.09166709541098 9.184922449558583 2.1928357492346975 0 0 1
292 1 36.34678995124597 12.029619437232663 2.8553132215898165 0 0 0
138 1 41.676670711269125 9.912908710972713 2.7121752549448925 0 0 0
525 1 43.99431921921712 9.149223398315607 1.5144491646132572 0 0 0
3511 1 48.27252701928073 10.660923422194202 1.915807414541399 0 0 0
2494 1 0.13321379127962152 9.588424837191596 1.7081324134517066 1 1 0
927 1 2.5765065709753974 14.109546074443092 1.8801369913388983 0 0 0
841 1 5.75109564296621 15.558795451232271 2.065191062645061 1 0 1
3751 1 6.821495416731302 14.070779491678636 -0.011641812394991735 1 1 1
1678 1 8.734985651376522 12.614392618471378 1.635471879965885 0 0 1
3097 1 10.968228922816145 14.105310996503633 1.580674444732229 0 1 0
779 1 13.572308049747157 13.841928230983184 2.5745701847381723 0 0 1
2407 1 15.07512584489137 14.73817247545087 0.44881375905770393 0 0 0
759 1 17.380883704263255 15.122224472873388 1.9784607956613196 0 0 0
2036 1 18.16090477547791 12.959604986740857 3.665400836658491 0 0 0
4112 1 29.402133816940374 13.282122360239924 1.7937230530767354 0 1 1
2974 1 33.24530694462534 13.741799586743365 1.4755655483252261 0 0 0
646 1 35.36099862219544 12.32226002729195 0.3159136599216259 0 0 0
691 1 38.35724360274955 13.986891147089924 2.7033716675041 0 0 0
3597 1 39.25440547328134 14.319908335701074 0.09790485674311455 0 1 1
2421 1 41.07600006750289 12.782750120329569 2.9379671316407583 0 1 0
3674 1 25.67779602722094 24.10243108412659 13.720758615222682 0 0 1
912 1 45.670481780637175 14.143339971456694 2.3889653973934557 0 0 0
4045 1 17.917225206846886 15.365352000746133 15.501514931191938 0 0 0
2053 1 7.324304739074082 18.24936570578556 1.76273134181781 0 -1 1
2499 1 5.631588283643045 21.74580290595879 -0.34182402739260875 0 0 0
1660 1 35.40286739741204 2.637074547007968 -0.3517025851202503 0 0 0
2860 1 10.729889446671198 16.11167402258878 3.7154990602716556 0 0 0
2773 1 25.756563184523614 -0.5605682032503223 2.974040731693823 0 1 0
2577 1 19.20860390380684 16.24600549811858 0.6508822395203637 0 0 0
3247 1 35.98495687020845 19.14152230921735 16.066869742347542 -1 0 0
2091 1 21.61029332830089 16.398911275076742 1.8561494461108734 0 0 1
3514 1 22.2647663568117 19.001938818199964 1.2026211172836674 0 1 1
3711 1 28.670258553214484 15.636003142195683 3.4794195538281123 0 1 1
1990 1 28.38398304338254 17.728214844383427 1.9296200410856192 0 0 1
734 1 20.03814457450798 0.34046733406478125 4.072898886351541 1 0 0
1644 1 34.335378628542045 16.27908821787145 2.209607177196146 0 0 1
4086 1 38.81796569566258 18.29186039090435 1.8666252456178252 0 0 1
1671 1 45.234170376547425 16.855770294138193 2.0778232557162597 0 0 0
2796 1 42.26704416812905 17.407487168204863 1.990317120142815 0 0 0
2303 1 33.37038280981919 0.03456501624828734 13.298259528858917 -1 1 0
2060 1 -0.1470826379659475 15.406415641864331 1.3789195954863105 1 0 1
706 1 50.41669210313664 1.2442197022368509 11.175738573753854 -1 0 0
3665 1 1.1029253144171975 19.34739494115734 0.7727487200233898 0 1 1
1968 1 5.23222084684484 19.6039138559544 1.1147380418462145 1 0 1
3615 1 4.750740842024126 24.400410490689502 6.189112642866882 0 0 1
2075 1 9.192266001141853 19.859473398197068 3.344688335960872 0 0 1
577 1 27.365967696298025 0.7395550250151264 9.96328878988581 0 0 0
1592 1 28.85194925202526 5.920910619803503 -0.16737595176301073 0 0 1
2695 1 13.326453434916806 19.101050943669637 1.2238506315393027 0 0 0
2179 1 12.054788861222578 18.46233352425969 3.606380136012631 0 0 0
1014 1 16.245279168209848 19.248919300160463 1.5668310208078848 1 0 1
1165 1 26.44461822755688 19.492184766106906 2.401630672612295 1 0 1
607 1 24.62345605018741 19.602468437689364 0.3376745204639341 0 0 0
3822 1 30.490157671553145 21.485386324496044 1.0545803077139793 0 0 1
1425 1 36.74535691452847 19.936992539263624 0.5928648925909641 0 0 1
1868 1 42.97040430141301 20.123374097936146 0.986926068436073 0 0 1
3272 1 45.00204364859101 20.796497317273342 2.763774325251906 -1 0 0
3846 1 46.95939640484886 21.832912457868265 1.2874247418342706 0 0 1
2089 1 1.2454089600706133 21.937090220680236 -0.36186416455712456 0 0 1
331 1 3.5932019086710127 23.698123238440893 3.051449793217456 0 0 0
499 1 13.863626181721175 21.659083681394026 -0.11945314120807532 0 0 1
1847 1 7.642857364559248 23.108271907489325 0.5555346113661415 0 0 1
2125 1 11.247825180628968 21.2037427824797 1.507565883398379 0 0 0
2066 1 12.431819486636826 23.0471195137 3.2771422318206063 0 0 1
1880 1 13.886856733710784 24.27694453191243 1.3255554900111115 1 0 1
2275 1 11.677519161299706 14.261535232410552 16.008842195808977 0 0 0
3978 1 19.40674216802546 23.02557114646299 2.488476040971267 1 0 1
2804 1 14.023933059345206 6.188846983242853 15.781696095253945 0 1 0
654 1 32.59425697228278 0.17506058661172208 9.680170014582552 0 0 0
2741 1 27.531917424176413 22.07804913749439 1.3731125478948145 0 1 0
2272 1 31.580119207130853 23.2983067208373 4.4199291777352645 1 0 0
2459 1 47.648358142630244 22.96189494293228 15.823036803126083 0 0 0
3128 1 32.112049667523394 23.908047033799626 1.6116272348132563 0 0 1
2511 1 21.23553520757414 -0.5177091753353545 10.88656193047377 0 1 0
2489 1 36.80955916090497 22.560378516548436 2.3088959118448646 0 0 0
2248 1 13.237197206856484 10.250308179708373 15.528472191273671 0 0 0
704 1 41.13294321670739 22.28409980929782 1.0055785433640427 -1 -1 0
1349 1 34.23544582190168 18.076786131598382 0.1352706537892372 0 0 0
430 1 27.087341558476503 12.924738626341192 0.057225154270714174 0 0 0
2123 1 5.071562894932756 1.099053483741666 2.854005725123404 1 1 0
2434 1 7.51591028854048 0.4579285813199454 3.873292297543121 0 1 0
530 1 9.407449743922125 2.2348419725319837 2.9653570938164875 0 0 0
932 1 13.09378493719501 -0.10883079869200718 4.121105985516764 0 1 1
2734 1 15.854063060066775 0.13148463421810863 3.0628496672760974 1 1 0
2523 1 17.62319430420399 1.4549510162271728 4.818182827854229 0 1 0
2095 1 36.4608574854728 24.34474208698951 5.855688536604898 -1 -1 1
575 1 45.567004287645304 23.709252357998107 0.0006759056701393096 0 0 0
3 1 7.728820935346848 8.610229609494667 -0.38465204906137673 0 0 0
3708 1 29.27996278079248 -0.1881622050420131 3.9899380432976024 0 1 1
3930 1 31.888890746390405 0.03596044839851109 5.2927663253129715 0 1 1
2193 1 33.537393519328106 1.6984448738113214 4.038220599783964 0 1 0
435 1 38.463479022462394 0.7269847777934297 4.11728294681155 0 0 0
358 1 37.624223419174726 2.067362848840713 6.354594056987006 0 0 0
277 1 43.1444611877362 0.8601312906104843 4.791054365569209 0 0 0
3745 1 45.82609634231123 -0.29008914115619894 4.1009165696825605 0 1 1
2004 1 49.96377331522939 1.2058334566055813 3.2304356694043133 0 0 0
4039 1 49.35810034709489 22.51024539172296 13.750078624801358 -1 0 1
664 1 0.7258203955779228 3.1715198592206177 3.702467587532813 0 0 0
2756 1 50.42058295953757 4.648054118785898 5.098915953053017 -1 1 0
2466 1 3.5729569535406176 2.890341993418895 4.430216073863066 0 1 0
2550 1 3.2508994022098374 4.688503548318766 2.310645176439031 0 1 0
1406 1 10.966302798532674 3.2412896979957138 4.865077140126852 0 0 1
1554 1 12.900554551426582 4.909907245739246 4.348253968682249 0 0 0
2596 1 18.209669786898658 4.070934333113902 4.3688449133721186 1 1 0
2987 1 24.810165570227994 8.70483749023046 2.186302437886219 0 1 1
3715 1 23.31712690166454 6.228277178118164 4.710396216931247 0 1 1
1794 1 21.646969063821118 1.7589323084291402 6.38190903940065 0 0 1
4167 1 24.36822880417644 5.594665984824404 7.521894134038057 0 1 1
2655 1 26.987339579508824 3.5574644556765795 4.748920510956037 0 1 0
23 1 28.5504943755674 2.6882479996283557 2.9187170512444633 0 0 0
1901 1 29.778699593575755 4.994302727891016 2.221380887871481 0 0 1
638 1 32.383174346634846 5.0474967696503805 2.3547240591074865 0 0 0
2328 1 33.056024071911835 5.70838750723384 5.149573920716396 0 0 0
3210 1 37.624139115114914 5.048707310648583 4.344187024210084 0 0 0
1843 1 35.366651787616476 3.741566698587679 5.255636382253672 0 0 1
3218 1 39.620440295068235 5.4018807523312535 6.388100833285586 0 1 0
1324 1 47.354854505185685 1.8389739519104054 3.5367745774632047 -1 0 0
514 1 47.93344365865859 3.6468987108007918 5.609796852841858 0 0 0
2564 1 -0.2548357592482958 6.96888252590846 3.9426757818282 0 1 0
979 1 5.850611881273299 6.02201259467278 3.2185805429012575 1 0 0
1210 1 9.836500845623366 7.185025374151218 3.8727641522494016 0 0 1
507 1 12.631589768646489 7.235576548169233 6.008003182976686 0 0 0
1483 1 17.02054555997787 6.781874978238665 1.4340852842295968 0 0 1
2098 1 22.421968208437754 7.0196592984584845 2.027073350975197 0 0 1
316 1 26.575880494781444 7.124580625792 6.273118289472663 -1 0 0
3650 1 28.855620590902436 6.920844936921523 4.185824370771949 0 1 1
3919 1 34.36003511594373 8.159146306447182 5.522731956286867 0 0 0
288 1 37.010637286923554 7.795551703792663 4.429089901699152 0 0 0
49 1 42.26052053312455 6.196969330790544 5.884037914631245 -1 0 0
2046 1 46.220712392076464 5.895398240976603 5.1049129582998205 0 0 1
4021 1 -0.06054656012868609 8.851932952850047 5.760762296354724 0 0 1
1293 1 0.3788203075671026 11.345803042211518 4.126786540052791 0 0 0
1463 1 4.798376624196049 10.708403528078932 4.076258830383386 0 0 1
1111 1 7.352480500895406 11.539875609416175 3.7893305286531076 0 0 0
3568 1 9.24709661307402 9.867734083877618 4.9292558315495905 1 0 1
1495 1 14.220928489575725 11.117023218455529 2.7204078099889055 0 -1 1
20 1 17.201544579650477 10.417919708813104 3.13942894883699 1 0 0
1557 1 20.60292611697973 8.600597909402783 3.670448233316426 0 0 1
2681 1 17.298786141781427 9.075597580543006 5.473318381661678 0 1 0
2573 1 23.14402784753503 10.791403073042812 1.6130911553441232 0 0 0
910 1 25.99867334076774 5.926960524547329 3.1851710067565806 0 0 1
3882 1 25.293831657286425 9.220442030145994 4.927236550588126 0 1 1
2457 1 30.00056888213975 9.623438545414741 4.3935705458408725 0 0 0
2000 1 27.836211672416237 10.795599631735403 2.9403881153437657 0 0 1
1927 1 32.79198789331237 9.523900689191445 3.63001448109737 0 0 1
2450 1 33.49181693873355 12.531617523828338 4.015774002975508 0 1 0
1201 1 38.745321417949356 8.645732145247585 6.190959317774994 -1 0 1
973 1 41.258578092633215 9.121385238614263 5.23529574959445 0 0 0
125 1 45.702224727147964 10.938189724575487 2.6300667326397495 0 0 0
2963 1 45.52688925790916 10.66356151188053 5.387056377512724 0 0 0
3782 1 2.7173346819955224 12.524984196670612 4.14362990693578 0 1 1
1140 1 3.0163338751701096 14.480724964413794 6.005095698899105 0 0 0
345 1 7.214478442252851 14.134048609808989 4.99782662254131 1 0 1
3085 1 18.109005473420257 12.97672012690503 6.703054522105953 1 0 0
1528 1 22.10046618006361 17.01355742061254 4.542629790542372 0 0 1
454 1 24.54223125163068 13.739249818892961 3.8490492116144344 0 0 0
1222 1 27.59843094382344 12.366716124852942 7.3844520592377485 0 0 0
593 1 27.29207248069839 15.019887773677814 5.895971073125832 0 0 0
141 1 30.576096572870227 12.73565151960958 4.503856706097811 0 0 0
3521 1 39.46002273124603 13.540700113161963 5.679802381656563 -1 0 1
2858 1 42.8576896879064 14.900071320581505 3.1702160478371444 -1 0 0
1412 1 43.46794212796995 15.279052753984345 6.079544018186131 0 0 0
825 1 49.95698134923316 12.974011461463432 2.576560253514898 0 0 1
338 1 48.04838943199751 14.43558709228087 4.014334651929932 0 0 0
760 1 0.7866222190032099 17.544788871825887 3.226750517148746 0 0 0
1321 1 3.393774808090454 16.287531742094316 3.9864306174437445 0 0 0
3582 1 7.960371234938405 16.596289145859195 4.042628505266926 0 0 1
672 1 4.844008346281335 18.393637935699566 5.174348598503084 0 0 0
3347 1 11.7748237555235 15.542067496578525 6.192075045135712 0 0 0
2249 1 14.16775438834947 15.279221127686265 4.969170926921888 0 1 0
3381 1 16.164648829880356 17.14068816960096 3.770693700440587 0 1 0
12 1 18.338314407301493 16.648308508800536 5.646962208892219 0 0 0
1132 1 20.04392487261862 18.699552559992867 5.06328529222997 0 0 0
814 1 24.786278686446234 16.644237713431743 5.197340412462002 0 0 0
2482 1 30.75258099353425 16.54019410587284 5.562694940120741 -1 0 0
262 1 32.615177637420416 17.835258243216412 3.8914800795537854 0 0 0
922 1 36.925661058239186 16.356559802319786 2.695324757110471 -1 0 0
361 1 36.70379245217627 17.120098384278208 5.226996335776659 0 0 0
3698 1 40.634039039236626 18.519652516764406 3.932922984698691 0 0 1
3431 1 38.7870530096033 15.832374463236064 6.677139010323455 0 1 0
85 1 47.11597406601912 17.122482161579033 6.196061569894326 0 0 0
1373 1 49.706900762403976 16.921298558751854 4.879935332970512 -1 0 0
2287 1 1.3770626735637226 20.506141612099352 3.6686161651262834 0 0 0
1802 1 4.055376106008534 20.54874913275546 3.6180154766566357 1 0 1
4094 1 10.404147220107978 19.564452519154404 6.00169000755647 0 0 1
25 1 14.24810923102256 18.65473806475228 5.41239335683333 1 0 0
1542 1 16.34150292616977 21.379014894162676 5.468421405224514 0 0 1
404 1 17.982609730899615 20.477791165781895 3.3364240385958555 0 0 0
2524 1 21.120918602462606 20.78359888519553 3.028219015588584 0 1 0
611 1 22.68804176741086 20.911391221706836 5.262486215286871 0 0 0
2041 1 25.28770669398184 19.41388124718436 4.703149814023653 0 0 1
745 1 29.00866019478351 22.632441397634462 3.8796434797947024 0 0 1
1307 1 30.114767669458566 19.369996378561577 2.8850680409456366 0 0 1
3756 1 29.274224642438924 20.388804948430472 5.120093161047281 0 1 0
1913 1 33.34273270718022 20.478999679709485 1.3720569905562359 0 0 0
1703 1 38.07074057231128 19.851578371589884 5.260568111964641 0 0 1
376 1 39.69804198105095 21.635019957256365 3.328690609913181 0 0 0
389 1 41.56696476667081 21.783989012007076 5.385263329596591 0 0 0
1 1 45.57244876631843 18.622371959342154 4.452151554102073 0 0 0
3387 1 47.54311255490697 21.537254469478714 4.908222833397356 -1 0 0
3942 1 20.765144015247706 24.768948952096498 4.317678022303685 0 0 1
3419 1 0.3974280770437608 23.06315171542576 2.8365807149986146 1 0 0
2259 1 5.771782285174094 22.320876092969318 4.893518902257007 1 0 0
4168 1 8.00763446982577 22.3670814246045 3.1406118289747083 0 0 1
991 1 10.48223933483111 22.25728702446771 6.406720386494174 1 0 0
3009 1 13.644904129438896 22.46462392889115 8.079141234472477 0 0 0
3570 1 -0.5562160115562974 24.27484541034022 0.18560772333971964 0 0 1
66 1 13.342143875659245 21.451235047640832 5.32520586297569 0 0 0
1973 1 21.704606670452172 23.499907058086993 0.6292145364856021 0 0 1
1881 1 27.218450931615052 24.145279507910665 5.395580718914517 0 0 1
661 1 45.35134153361062 22.059004984053175 14.394477356261802 0 0 0
2107 1 33.277827121079596 20.719037358993027 4.522097544842994 -1 0 0
780 1 20.248337866248807 11.121305099987469 -0.08863997799764728 0 0 0
3984 1 36.02083897449873 21.794869947244454 4.755938023845947 0 0 1
129 1 44.09672622930621 22.738497386434936 4.362976107382933 -1 -1 0
951 1 24.290788332955266 0.2267914014602498 14.087772435530876 0 0 0
529 1 48.80009348274805 23.182447055388707 2.863321899052118 0 0 0
224 1 1.6652282689674385 1.2716020110002721 6.36334518356464 1 0 0
1999 1 8.317928378907277 3.131913642579113 8.287680527366234 1 0 1
370 1 9.622863014513937 0.7410310350137197 7.657156555654684 0 0 0
385 1 12.06312990725626 1.2557698440334544 6.386877316803436 0 0 0
2539 1 14.279696397624882 2.7214801356048137 7.520051061136224 0 1 0
2959 1 16.457180195766938 0.9862842033291483 7.291644790727518 0 1 0
500 1 20.362244148835156 0.0020205026702188045 8.388835233195369 1 0 0
1758 1 24.982393773777492 1.2864621773486116 4.974455490594674 0 0 1
1597 1 25.357114880713215 2.7995760567090366 10.042841344876802 0 0 1
3403 1 49.741236280462644 4.044807856867618 -0.47454061155217747 -1 1 1
1087 1 28.927493116849536 1.7048152476283902 8.030112547711052 0 0 1
1655 1 31.58801494688259 1.655851064861833 7.745155944769509 0 0 1
796 1 4.713575491266548 12.481980103756854 16.440681150397744 0 1 0
1964 1 23.315464748617615 -0.5355190668649455 6.048322182553315 0 0 1
1055 1 42.62991890636131 2.3249916388197507 7.053627206693213 0 1 0
3057 1 43.5971777318381 0.688504380648788 8.881135223383096 -1 1 0
2920 1 5.1006766778149295 22.084123192734424 15.66547197839187 1 0 0
2266 1 49.59366823213885 0.5349200701514285 7.878909282679466 0 1 0
2047 1 0.42932219627536106 4.7554275841734315 7.533778697482219 0 0 1
984 1 0.638376389065562 2.31972603568767 8.891642944259655 1 0 0
782 1 4.457940691974344 4.485674302610534 6.51907438043313 0 0 0
2584 1 5.544668383297264 3.2130610353591025 8.800235105417158 0 1 0
3169 1 9.138502105930991 5.0506735907403515 6.309614244127958 1 0 1
864 1 15.360905431828416 4.5037879449865486 5.77695258208136 0 0 0
2806 1 21.016352005821812 3.8595002028699588 4.328468027687464 0 1 0
767 1 26.71776019404572 5.200699165994981 9.113644729565934 0 0 0
4031 1 28.296080130470113 4.204572978983484 7.064545526885633 0 1 1
2068 1 32.727720222635 4.165166976022031 7.491419854064407 0 0 1
1959 1 35.49120865532056 3.9811838903080474 8.173863298457833 0 0 1
142 1 40.019557415776276 2.890815455004773 7.66642013556371 0 0 0
2610 1 44.41149277796437 4.5097920442012684 6.858277510556843 0 1 0
1038 1 47.86189460435534 2.740378393542708 8.17948702905897 -1 0 0
804 1 2.729936224595534 6.464540163384041 7.896232224176963 1 0 1
3860 1 6.667333681825408 6.096769433095201 5.920866829991012 1 1 1
3620 1 7.197101213688206 8.790276991493215 6.792398780462635 0 0 1
1015 1 10.008983865851162 6.256562450925839 8.943607256768535 0 0 0
245 1 12.33637765530083 7.858291741784219 8.787745785401855 0 0 0
133 1 15.507765962561976 7.065699721993881 6.910594520951592 0 0 0
386 1 15.591457809040229 7.63096932629027 9.747997398411837 0 0 0
637 1 18.25936187817312 7.02892069064111 3.947555486738504 1 0 0
877 1 18.357761900900996 6.885431672947371 10.487470708626704 0 1 0
2011 1 21.604472099197302 11.454243021523101 6.800153523424977 0 0 0
3221 1 21.799895804005317 7.235648104259545 8.371664895779915 0 1 0
414 1 30.237641301101245 6.103898962206744 6.310629396572954 0 0 0
1354 1 29.496475177918466 6.934139687532973 9.403438070735861 0 0 0
2008 1 34.6880180601585 8.565776009301079 8.215819109690678 -1 0 1
1611 1 36.37004848159292 6.694040750744127 9.229620652772386 -1 0 1
570 1 38.91339756950326 7.145493086724629 8.507452540684318 0 0 0
2640 1 46.27946937968396 8.185961584199314 6.525240080192518 0 1 0
707 1 45.14934206649029 5.792628974411603 9.284074460337603 0 0 0
555 1 45.82974463783364 8.832403875895906 9.29411875471484 0 0 0
3900 1 4.796472714589979 10.227539977725254 6.821862189712265 1 1 1
2634 1 2.2976240319386334 9.052111897472166 7.44740636664033 0 1 0
246 1 10.976809646315306 11.404567726320753 6.263102813572435 0 0 0
67 1 12.851073850621162 9.988817764163283 4.667517712879873 0 0 0
3538 1 15.003517448030781 10.487618027200606 6.451156061708636 0 1 1
452 1 19.155232399634833 10.306120808190215 7.10477169305698 0 0 0
2933 1 19.725617732591484 9.051651850918232 9.399848121336326 0 1 0
3318 1 21.88476909024767 12.800222782859997 4.629261171475862 0 1 0
1362 1 24.294910209399326 10.516088809259545 8.083004538150217 -1 0 0
306 1 27.23471066631675 9.476828969545164 7.578194626673882 0 0 0
3372 1 30.220574587897193 8.99783699506257 7.43004592118934 0 1 0
3824 1 35.31272791850603 11.410272053738575 6.30215637495839 0 0 1
2418 1 38.06973710604525 11.283501948474912 6.779348000796801 0 1 0
1866 1 38.055339921378945 11.18135115823266 9.236095041579139 0 0 1
2464 1 43.07802842290053 10.772881065437366 6.744900169873491 0 0 0
2109 1 43.19504006412882 9.467440873959912 9.153605409821967 0 0 0
1500 1 48.82136652989847 8.608011612213618 7.543582879830646 -1 0 1
337 1 2.1620601273412157 15.768758791773738 8.926785333396056 1 0 0
3594 1 4.816909662731681 12.262601308104724 8.633280250730596 1 0 0
312 1 5.550715264158751 14.575353429824228 7.126615349124858 1 0 0
1936 1 9.579057798281493 13.846210246052495 6.678711627533944 1 0 0
2600 1 15.401220471226289 13.10723319618067 6.1684829148461375 0 1 0
2286 1 14.284883465421446 14.270554283236663 8.409365571210515 0 1 0
1039 1 20.63460355516661 14.978014213496644 5.761080244940243 0 0 0
2668 1 21.80763791216628 15.042132014484736 8.404690672051071 0 1 0
1804 1 23.636673845393435 12.997556791616972 9.282401160189865 0 0 1
2736 1 27.850749135847092 15.904227245652159 9.85931038171777 0 1 0
328 1 31.432626152081713 11.158502265033292 8.916596132960107 0 0 0
1196 1 32.82814413011525 14.232539432544076 6.079213323976586 0 0 0
2637 1 33.90229054572464 13.00453673802126 8.53703879173704 0 0 0
2525 1 41.92848490431797 13.31162259046324 7.241719941680669 0 0 0
3716 1 47.39609716744468 12.723701006547548 6.295066718105151 0 0 0
26 1 50.138917176005876 12.692089032101745 6.237900047842123 0 0 0
1213 1 0.15946006088917575 15.203184883499755 6.746254450979014 0 0 0
1925 1 6.189772390601031 16.723715693897894 8.995209304830148 0 0 1
2140 1 8.038217554958546 18.810798092250455 9.365198204457423 1 0 0
2621 1 10.417332064785537 17.53366621200719 9.50893447061503 1 1 0
784 1 14.440643915521306 17.146478675139022 9.11677265742282 0 0 0
1285 1 19.85076620042457 15.488263114761427 10.262971420562398 0 0 0
1669 1 17.80580356993203 17.11974333849937 8.750970155432578 0 0 0
875 1 23.654484034533994 17.002253053450602 8.034483142957123 0 0 0
957 1 27.749717539190634 17.520605876209096 7.566024732791453 0 0 0
2960 1 30.618240774532502 18.624512061820962 7.971626512994712 -1 0 0
2219 1 30.348824422146844 13.380504414799397 7.5679632238783245 0 0 0
1158 1 31.942930107549774 17.319144888040498 10.226509850965806 0 0 0
2048 1 34.012659138505256 17.016759271249093 6.047635899883886 0 0 1
2776 1 34.300873435880476 17.501412735108772 8.711211368105884 0 0 0
1877 1 35.10000924676385 15.277759764657173 9.954981987537218 0 0 1
1787 1 37.71218632569297 15.419374864838257 9.479029034648782 0 0 0
1583 1 41.452196882838436 17.212429731453327 6.37209763324018 0 0 1
807 1 45.849807515293406 14.72473104168961 7.35994927581107 0 0 0
3784 1 46.287614952403445 18.081082184069512 10.210151941580062 0 0 1
1582 1 0.5739481068394252 20.499589655872253 6.299945454584592 0 0 0
57 1 3.1291441699543605 19.41048863072636 7.393338967388569 0 0 0
3216 1 7.338080957116229 18.465747611055704 6.242159821266493 0 0 0
2798 1 4.611519772739063 21.82464597505744 8.474050404651907 1 0 0
1150 1 16.28940998769701 19.618810057650027 7.762450904088714 0 0 0
131 1 12.150114356393837 17.94950644952604 7.516904748393589 1 0 0
2529 1 19.816279005342608 18.987506163542385 8.259304490308033 0 0 0
1916 1 22.27055404819168 19.031984005679515 7.3596611308540485 0 0 1
2304 1 23.095928700015644 20.965892925781503 9.247206101765146 0 0 0
1392 1 27.13066877320535 19.883460594923932 6.600352490431872 0 0 0
3386 1 31.290829124355533 21.384603340463052 7.361806492732796 0 0 0
291 1 38.41225414823069 19.46164853187248 7.863912179361497 0 0 0
618 1 40.11984094209102 21.44748458715893 8.969824516314686 0 0 0
808 1 43.275851541614955 19.474476636006457 5.99565971825438 0 0 0
111 1 44.50125440887069 19.7684164143058 8.937336708936662 -1 0 0
3349 1 49.147743730130315 19.748898846899564 6.211154566758007 0 1 0
2295 1 48.58359332167704 18.35517085148212 8.604150879721585 0 1 0
384 1 0.9130431853011081 23.423217953247168 7.009961155298507 1 0 0
2059 1 5.113593561106556 6.322551694427982 15.919104935319613 1 0 1
2740 1 3.226620527192683 24.092944776527133 8.19827626962846 0 0 0
2185 1 7.070638898002782 21.22912481847346 7.644828742293873 1 0 0
3402 1 8.32823551143385 23.40922079088124 8.37992139128907 0 0 0
1299 1 15.815208380960755 22.07295612819875 9.346170159379747 0 0 0
305 1 11.013952374129788 23.295993811577407 9.124983278429037 0 0 0
2700 1 16.94692424460258 23.766817226946756 6.3301098525461 0 0 0
117 1 20.11775072194822 24.07377754906524 8.676180307359678 0 0 0
3282 1 22.16568853092037 23.401229175872075 6.581362216863785 0 1 0
941 1 24.337302257558296 23.392811542214343 8.26409664044703 0 0 0
2530 1 27.013048842603638 22.418863518735705 8.028352365198312 0 0 0
102 1 28.723187559642675 24.147301044713423 9.21293568075196 0 0 0
2996 1 32.88179921528254 15.95180893170274 16.34178346538619 0 0 0
874 1 34.41407123165739 21.452180564255826 7.38733836811559 0 0 0
270 1 40.339704922265426 23.501080938343016 7.310161142341232 0 0 0
394 1 33.79414446841352 0.9230913465653199 15.86570530645879 0 0 0
2176 1 45.776390378719086 22.318712673963777 8.413366706099469 0 0 0
4027 1 48.29923928260716 22.914693985282533 9.661535534044187 -1 0 1
227 1 5.248385705953809 0.8885190122338877 10.296402026886641 0 0 0
2441 1 6.520343422148081 1.2184445336528438 12.723946606497604 0 1 0
674 1 11.5413313929112 1.9389438873011127 10.965062699825381 0 0 0
3695 1 15.479149904150844 1.9175382127034695 11.159704112330804 0 1 1
600 1 18.12147995582911 1.6350636949624233 9.606324509836114 0 0 0
2461 1 17.357208041049475 24.43073272989621 8.864740426062884 0 0 0
1101 1 20.35381267388229 1.6164278682090059 12.312573543105296 0 0 0
545 1 24.047412802190525 2.5481747521529843 12.39937765418693 0 0 -1
2340 1 29.54205957727028 1.6898945130441203 12.97500413983941 0 1 0
754 1 31.92526891420899 1.8794087195735223 11.715504766639006 0 0 0
551 1 29.158735809451603 13.242016389422227 16.33201735807722 0 0 0
2781 1 38.87107325284775 2.958102607132809 10.268601029143701 0 1 0
2130 1 44.22303865495783 1.5992288061876305 11.659735275960161 0 1 0
1244 1 46.5668147563282 0.8638538899036374 9.971703906559904 -1 0 1
3380 1 46.766943111459 2.3736020658032975 12.969354103769508 0 1 0
282 1 49.14980295218733 3.4483293158305317 12.05790246828929 -1 0 0
3199 1 2.8675317122037187 2.249211037595958 10.865734764202896 1 1 0
2437 1 4.791631177341017 4.487768918657383 11.466700641298303 0 0 0