
# Create simulation box of size 50 x 50 x 50 Angstrom
#
lattice	            sc 1
Lattice spacing in x,y,z = 1.0000000 1.0000000 1.0000000
region 	            all block 0 50 0 50 0 50 units box
create_box          1 all
Created orthogonal box = (0.0000000 0.0000000 0.0000000) to (50.000000 50.000000 50.000000)
  1 by 2 by 3 MPI processor grid

# fill box with 4175 randomly distributed atoms
#
create_atoms        1 random 4175 63782 all
Created 4175 atoms
  create_atoms CPU = 0.001 seconds
mass                1 18.015

# Define potential
#
pair_style          sw
pair_coeff          * * ML_mW.sw mW
Reading sw potential file ML_mW.sw with DATE: 2019-02-27

# Run minimization
#
minimize            1.0e-8 1.0e-8 10000 1000
WARNING: Using 'neigh_modify every 1 delay 0 check yes' setting during minimization (../min.cpp:187)
Neighbor list info ...
  update every 1 steps, delay 0 steps, check yes
  max neighbors/atom: 2000, page size: 100000
  master list distance cutoff = 6.0032907
  ghost atom cutoff = 6.0032907
  binsize = 3.0016454, bins = 17 17 17
  1 neighbor lists, perpetual/occasional/extra = 1 0 0
  (1) pair sw, perpetual
      attributes: full, newton on
      pair build: full/bin/atomonly
      stencil: full/bin/3d
      bin: standard
Per MPI rank memory allocation (min/avg/max) = 4.255 | 4.258 | 4.261 Mbytes
Step Temp E_pair E_mol TotEng Press 
       0            0    7792709.3            0    7792709.3    5898794.3 
     630            0   -45180.336            0   -45180.336   -154.07449 
Loop time of 1.17874 on 6 procs for 630 steps with 4175 atoms

99.7% CPU use with 6 MPI tasks x no OpenMP threads

Minimization stats:
  Stopping criterion = max force evaluations
  Energy initial, next-to-last, final = 
      7792709.32924461  -45180.0188663597   -45180.336116598
  Force two-norm initial, final = 2.0191930e+08 4.9721331
  Force max component initial, final = 1.0948746e+08 0.73126211
  Final line search alpha, max atom move = 0.053306038 0.038980685
  Iterations, force evaluations = 630 1000

MPI task timing breakdown:
Section |  min time  |  avg time  |  max time  |%varavg| %total
---------------------------------------------------------------
Pair    | 0.92303    | 1.0109     | 1.0565     |   4.6 | 85.76
Neigh   | 0.024875   | 0.025052   | 0.025378   |   0.1 |  2.13
Comm    | 0.075772   | 0.12124    | 0.20898    |  13.3 | 10.29
Output  | 0          | 0          | 0          |   0.0 |  0.00
Modify  | 0          | 0          | 0          |   0.0 |  0.00
Other   |            | 0.02151    |            |       |  1.82

Nlocal:        695.833 ave         704 max         685 min
Histogram: 1 1 0 0 1 0 0 1 0 2
Nghost:        1494.17 ave        1515 max        1468 min
Histogram: 1 1 0 0 0 0 1 1 1 1
Neighs:        0.00000 ave           0 max           0 min
Histogram: 6 0 0 0 0 0 0 0 0 0
FullNghs:      19997.0 ave       20462 max       19320 min
Histogram: 1 1 0 0 0 0 0 2 0 2

Total # of neighbors = 119982
Ave neighs/atom = 28.738204
Neighbor list builds = 26
Dangerous builds = 0

# Add velocity/set timestep
#
velocity            all create ${TEMP} 120598 rot yes dist gaussian
velocity            all create 230 120598 rot yes dist gaussian
timestep            5.0

# Define output
#
compute	            1 all msd
thermo	            100
thermo_style        custom step temp press vol etotal ke pe c_1[4] density

# Neighbor lists
#
neigh_modify        delay 0 every 1 check yes

# Set fixes
#
fix                 1 all momentum 10 linear 1 1 1 rescale
fix                 2 all nve
fix                 3 all temp/csvr ${TEMP} ${TEMP} 500.0 928347
fix                 3 all temp/csvr 230 ${TEMP} 500.0 928347
fix                 3 all temp/csvr 230 230 500.0 928347
fix                 4 all press/berendsen iso ${PRES} ${PRES} 1000.0 modulus 20000
fix                 4 all press/berendsen iso -950 ${PRES} 1000.0 modulus 20000
fix                 4 all press/berendsen iso -950 -950 1000.0 modulus 20000

# Run 0.5 ns equilibration
#
dump                1 all custom 1000 eq.${NAME}.dump id type x y z vx vy vz
dump                1 all custom 1000 eq.liquid_density_MLmW.dump id type x y z vx vy vz
run                 100000
Per MPI rank memory allocation (min/avg/max) = 3.506 | 3.508 | 3.511 Mbytes
Step Temp Press Volume TotEng KinEng PotEng c_1[4] Density 
     630          230    892.42114       125000   -42318.699    2861.6373   -45180.336 2.7295415e-33   0.99914793 
     700    146.38117   -775.17327    126350.41   -41426.644    1821.2601   -43247.904   0.27881823    0.9884692 
     800    181.47785   -978.91592    126876.34   -40609.889    2257.9295   -42867.819   0.64614176   0.98437178 
     900    203.50843   -649.18074    127141.81   -40142.334    2532.0317   -42674.366    1.1211608   0.98231648 
    1000    213.43505   -916.88131    127555.91   -39833.619    2655.5378   -42489.157    1.5727212   0.97912744 
    1100    223.57147    -828.4379     127756.6   -39641.787    2781.6541   -42423.441      1.99847   0.97758936 
    1200    219.17781   -652.20729    128051.07   -39682.946    2726.9887   -42409.935    2.4745561   0.97534129 
    1300    223.28386   -969.01686    128166.32   -39655.725    2778.0757   -42433.801    2.8321633   0.97446421 
    1400    222.32726   -684.65711     128337.8   -39652.638    2766.1738   -42418.812    3.1862554    0.9731622 
    1500    225.48685   -900.37575    128797.16   -39584.949    2805.4852   -42390.435    3.5111906   0.96969137 
    1600    234.90616   -943.95553     129175.4   -39484.911    2922.6793    -42407.59     3.876309   0.96685196 
    1700    232.30948   -1065.4183    129452.56   -39501.892    2890.3716   -42392.264    4.3039013    0.9647819 
    1800    225.59888   -781.02457    129294.49   -39618.976     2806.879   -42425.855    4.5624682   0.96596141 
    1900    226.54316   -873.63141    129366.05   -39593.711    2818.6276   -42412.338    5.0086308   0.96542714 
    2000      231.319   -815.59311    129671.83   -39555.769    2878.0482   -42433.818     5.365598   0.96315055 
    2100    234.50968   -943.60844    129944.57   -39535.778    2917.7463   -42453.524     5.752901   0.96112895 
    2200    234.66145   -923.61324    129781.46   -39591.222    2919.6346   -42510.856    6.0336002   0.96233696 
    2300    229.29196   -889.79778    129764.22   -39583.755    2852.8278   -42436.583    6.4866723   0.96246476 
    2400    232.85285   -800.71435    129959.89   -39603.218    2897.1321    -42500.35     6.765532    0.9610157 
    2500    235.34725    -1035.348    130112.35   -39579.243    2928.1672    -42507.41    7.0306521   0.95988956 
    2600    235.50921   -983.38491    130166.87   -39542.114    2930.1823   -42472.296    7.3607695   0.95948758 
    2700    236.16536   -903.18087    130496.02   -39562.431     2938.346   -42500.777    7.6879777   0.95706741 
    2800     234.3724   -904.81816    130376.95   -39560.199    2916.0383   -42476.238    7.8502752   0.95794147 
    2900    234.00353   -1143.0279    130445.68   -39632.328    2911.4488   -42543.777    8.1654388   0.95743679 
    3000    233.76281   -989.61808     130581.5   -39665.615    2908.4537   -42574.069    8.4033399   0.95644089 
    3100    231.50714   -872.00982    130670.91   -39642.641    2880.3889   -42523.029    8.7613155   0.95578647 
    3200     235.4038   -917.35777     130841.8   -39712.278    2928.8708   -42641.149    9.1475661   0.95453816 
    3300    232.12893   -868.62641    130892.83   -39705.933    2888.1253   -42594.058    9.4481822     0.954166 
    3400    233.27651   -951.93382    130856.67   -39768.744    2902.4033   -42671.148    9.7904672   0.95442967 
    3500    230.96682   -925.79966    130803.87   -39832.346    2873.6664   -42706.012    9.9696948   0.95481492 
    3600    229.23709   -824.76541    130894.17   -39897.672    2852.1452   -42749.817    10.161519   0.95415628 
    3700    225.51036   -1017.6561    130964.28   -39981.544    2805.7776   -42787.322    10.263478   0.95364544 
    3800    232.44405   -887.39596    130930.65   -39934.223    2892.0459   -42826.269    10.466675    0.9538904 
    3900    226.95794   -894.94871    130823.62   -39978.821    2823.7882    -42802.61    10.717932   0.95467084 
    4000    234.15322   -984.94876    131070.16   -39979.636    2913.3112   -42892.947    10.971066   0.95287511 
    4100    228.46887   -926.64929    131118.46   -39961.071    2842.5871   -42803.658    11.138848   0.95252409 
    4200    229.53202   -901.19214    131269.19   -39987.015    2855.8147   -42842.829    11.334214   0.95143035 
    4300    228.07108   -786.66869    131243.72   -40013.865    2837.6379   -42851.503    11.540513   0.95161499 
    4400    226.74695   -1112.3533    131424.87   -40012.935    2821.1631   -42834.098    11.690784   0.95030334 
    4500    226.07915    -935.3003    131619.29   -40007.533    2812.8545   -42820.387    11.931652   0.94889959 
    4600    226.99288   -791.42456     131554.1   -40054.461     2824.223   -42878.685    12.112747   0.94936982 
    4700    230.75775   -885.67239    131570.77   -39960.894    2871.0651   -42831.959    12.284463   0.94924951 
    4800    230.92272   -850.92465    131603.54   -40026.742    2873.1176   -42899.859    12.531646   0.94901319 
    4900    236.67969   -928.37994    131726.07   -39904.549    2944.7453   -42849.294    12.659425   0.94813042 
    5000    236.57019   -907.68195    131870.15   -39859.818    2943.3829   -42803.201    12.781263   0.94709448 
    5100    231.61246   -782.22622    131840.09   -39939.585    2881.6994   -42821.284    12.879939   0.94731039 
    5200    226.11627   -1126.1939    131774.31   -39985.588    2813.3163   -42798.904    13.072923   0.94778334 
    5300    228.83808   -1076.3035    131858.43   -39940.447    2847.1808   -42787.628    13.376696   0.94717865 
    5400    226.29406    -876.6998    131724.18   -39987.779    2815.5283   -42803.307    13.734171     0.948144 
    5500    227.60941   -775.79622    131719.79   -39999.436    2831.8938    -42831.33    13.862316   0.94817563 
    5600    229.29987   -904.56759    131855.12   -40001.451    2852.9263   -42854.378    14.076911   0.94720244 
    5700    228.89486   -1128.1387    131860.31   -39999.787    2847.8872   -42847.675    14.214089   0.94716513 
    5800      227.665   -1023.5836    131887.97   -40033.039    2832.5854   -42865.624     14.36243   0.94696653 
    5900    226.73999   -959.49697    131813.18   -40071.138    2821.0765   -42892.215    14.543407   0.94750382 
    6000    225.31267   -933.87395    131717.36   -40071.106     2803.318   -42874.424    14.635945   0.94819312 
    6100    227.53156   -1101.5638    132001.48   -39996.088    2830.9251   -42827.013     15.09405    0.9461522 
    6200    224.82908   -848.99882    132081.94   -40059.267    2797.3012   -42856.568    15.265101   0.94557586 
    6300    228.45628   -866.48476       131974   -40022.671    2842.4304   -42865.102     15.36641   0.94634923 
    6400    229.16785     -852.119    131984.55   -40016.961    2851.2837   -42868.244    15.405433   0.94627359 
    6500    230.11722   -875.25155    132096.25   -39973.122    2863.0957   -42836.218    15.617887    0.9454734 
    6600    234.63555    -993.8925    132076.34   -40058.111    2919.3123   -42977.423    15.881998   0.94561591 
    6700    225.08218    -692.9146    132316.11   -40127.398    2800.4503   -42927.848    16.035342   0.94390237 
    6800    226.33955   -774.41268    132539.34   -40044.904    2816.0943   -42860.998    16.316258   0.94231258 
    6900    231.44177   -1053.0037    132453.07   -39986.649    2879.5757   -42866.225    16.349517   0.94292633 
    7000    231.55399   -911.96217    132400.62   -39998.642    2880.9719   -42879.614     16.53657   0.94329992 
    7100    232.45864   -992.17344    132215.22   -40034.906    2892.2274   -42927.133    16.687259   0.94462266 
    7200    229.56302   -1025.9264    132218.78   -40101.092    2856.2004   -42957.293    16.848077   0.94459719 
    7300    229.63363    -1010.244    132312.23   -40176.445    2857.0789   -43033.524    17.021205   0.94393008 
    7400    230.55106   -972.38905    132297.53   -40208.118    2868.4935   -43076.612    17.288766   0.94403493 
    7500    230.57099   -1118.5108    132269.49   -40168.792    2868.7415   -43037.533    17.253905   0.94423506 
    7600    222.65757   -944.57482    132387.55   -40242.251    2770.2835   -43012.535    17.453963   0.94339302 
    7700    226.49742    -867.6838    132468.31   -40142.331    2818.0585    -42960.39    17.495297   0.94281786 
    7800    229.66476   -975.53008    132535.32   -40116.457    2857.4662   -42973.923    17.673106    0.9423412 
    7900    229.00616   -774.54009    132742.39   -40188.328     2849.272     -43037.6    17.906212   0.94087117 
    8000    227.52774   -1139.3073    132669.83   -40164.864    2830.8776   -42995.742    18.128044   0.94138576 
    8100    223.22838      -923.27    132317.21   -40233.927    2777.3854   -43011.312    18.218505   0.94389452 
    8200    224.48018   -850.60031    132285.01   -40248.119    2792.9603   -43041.079    18.393259   0.94412426 
    8300    228.44096   -962.66954    132472.77   -40232.396    2842.2398   -43074.636    18.606295   0.94278613 
    8400    227.95199   -1075.0448    132550.01    -40199.39    2836.1562   -43035.546    18.860616   0.94223675 
    8500    232.13649   -984.87938    132425.93   -40134.779    2888.2192   -43022.999    18.968781   0.94311961 
    8600    228.56985   -728.21013    132586.95   -40154.317    2843.8435    -42998.16    19.111575   0.94197426 
    8700    233.53367   -989.41642    132544.89   -40149.105    2905.6028   -43054.708     19.19073   0.94227316 
    8800      227.631   -943.35952    132565.08   -40205.785    2832.1625   -43037.948    19.377711   0.94212965 
    8900    223.60292   -885.90391    132598.87   -40278.333    2782.0455   -43060.379    19.497295   0.94188954 
    9000    227.91292   -999.85532    132507.74   -40220.197      2835.67   -43055.867    19.540136   0.94253736 
    9100    226.40633   -1015.7115    132691.86   -40285.483    2816.9251   -43102.408    19.824184    0.9412295 
    9200    231.17038   -926.91366    132924.05   -40193.412     2876.199   -43069.611    20.054889   0.93958532 
    9300    229.08785   -949.96918    133001.96   -40252.468    2850.2884   -43102.757    20.328553   0.93903496 
    9400    231.56098   -845.60467    132846.22   -40220.202    2881.0588   -43101.261    20.504896    0.9401358 
    9500    229.87737   -895.43093    132693.65   -40243.943    2860.1115   -43104.055    20.546142   0.94121682 
    9600     232.1848   -907.35837    132802.12   -40208.631    2888.8203   -43097.451    20.544801   0.94044804 
    9700    233.25959   -878.32129    133210.33   -40155.362    2902.1927   -43057.554    20.983089   0.93756611 
    9800    226.43166   -1067.6789     133106.6   -40256.814    2817.2404   -43074.055    21.148402   0.93829673 
    9900    227.38733   -990.39292     133012.4   -40342.615    2829.1306   -43171.745    21.095168   0.93896126 
   10000     227.9763   -913.28584    133165.46   -40360.837    2836.4586   -43197.295    21.101519     0.937882 
   10100    228.85196   -792.95167    133111.72   -40338.822    2847.3535   -43186.175    21.234224   0.93826068 
   10200    226.36811   -1070.3409    133112.96   -40394.476    2816.4497   -43210.925    21.297012   0.93825193 
   10300    227.46335   -964.58427    132949.21   -40399.734    2830.0765    -43229.81    21.463832   0.93940755 
   10400    231.24205   -932.19116    132943.29   -40344.409    2877.0907     -43221.5    21.480633   0.93944938 
   10500    224.45347    -851.3407    132946.48   -40318.577    2792.6278   -43111.205    21.469437   0.93942685 
   10600    230.18531   -1021.8691     132993.2   -40256.786    2863.9429   -43120.729    21.635326   0.93909682 
   10700    230.64883   -757.99601     133225.7   -40236.735      2869.71   -43106.445    21.656905   0.93745796 
   10800    235.74281   -945.33743    133281.33   -40224.963    2933.0887   -43158.052    21.968361   0.93706667 
   10900    230.42597   -1057.3527    133088.51   -40257.011    2866.9371   -43123.948    22.207862   0.93842428 
   11000    228.45186   -939.88182       133098   -40244.553    2842.3754   -43086.928    22.126137   0.93835735 
   11100    228.25573   -1063.9372    133021.45   -40290.233    2839.9352   -43130.168    22.163015   0.93889736 
   11200    231.07748   -879.88649    133305.59   -40271.455    2875.0432   -43146.498    22.394378   0.93689616 
   11300    233.31344    -802.8449    133297.79   -40271.706    2902.8628   -43174.568     22.66236   0.93695093 
   11400    232.03594   -901.42639    133367.24   -40305.144    2886.9682   -43192.112    22.774751   0.93646307 
   11500    228.00172   -832.83472    133348.56   -40339.694    2836.7748   -43176.469    22.918236   0.93659425 
   11600    227.45491   -977.96985    133350.14    -40347.47    2829.9716   -43177.442    22.973346   0.93658314 
   11700    230.08802   -1107.8649    133222.75   -40236.649    2862.7324   -43099.381    23.011705   0.93747871 
   11800    229.15137   -812.51063    133312.39   -40319.666    2851.0787   -43170.745     23.29608    0.9368483 
   11900    229.78649   -1070.3778    133236.97   -40327.576    2858.9807   -43186.556    23.274097   0.93737865 
   12000    228.19245   -953.01173    133308.52   -40336.545    2839.1479   -43175.693     23.38538   0.93687553 
   12100    231.65485   -1007.4629    133176.19   -40291.957    2882.2268   -43174.184    23.612976   0.93780645 
   12200    227.92971   -1055.2604     133293.1   -40279.059    2835.8789   -43114.938    23.532679   0.93698389 
   12300    230.27211   -841.70346    133512.09   -40301.386    2865.0228   -43166.409    23.811328   0.93544707 
   12400    232.35569   -960.61417     133483.2    -40289.23    2890.9465   -43180.176    23.756949   0.93564953 
   12500    230.11705   -1003.7119    133235.71   -40382.086    2863.0936   -43245.179    23.888443   0.93738748 
   12600    233.56266   -936.13429    133165.25   -40301.326    2905.9636   -43207.289    23.829899    0.9378835 
   12700    228.55193   -761.11651    133153.98    -40282.87    2843.6205   -43126.491    23.815875   0.93796292 
   12800    234.91286   -962.54719    133422.95   -40269.103    2922.7626   -43191.865    24.011766   0.93607199 
   12900    231.09956   -727.81329    133673.35   -40325.656    2875.3179   -43200.974    24.212175   0.93431854 
   13000    232.71449   -981.47536    133632.86   -40277.686    2895.4107   -43173.097     24.47344   0.93460166 
   13100     234.6332   -888.09179    133972.93   -40283.832    2919.2831   -43203.115    24.626553   0.93222929 
   13200    232.19968   -1169.7804    133850.89   -40225.899    2889.0055   -43114.904    24.722719    0.9330793 
   13300    238.34154   -919.54935    133973.76   -40285.191    2965.4218   -43250.613    24.812227   0.93222356 
   13400    231.25971    -1007.945    133765.53    -40378.43    2877.3104    -43255.74     24.79835   0.93367468 
   13500    230.16493    -837.8504    133624.36   -40414.027    2863.6892   -43277.716    24.800402   0.93466113 
   13600    227.51285   -777.95419    133846.15   -40445.422    2830.6924   -43276.114    24.993678   0.93311234 
   13700    230.81783   -962.97208    133940.38   -40444.997    2871.8126   -43316.809    25.197133   0.93245586 
   13800    231.95301   -983.07193    134174.92   -40357.747    2885.9364   -43243.683     25.43562   0.93082589 
   13900    231.70275   -934.60446    134286.46   -40416.366    2882.8228   -43299.189    25.422173   0.93005275 
   14000    229.71942   -1001.9709    134490.11   -40403.627    2858.1464   -43261.773    25.623065   0.92864441 
   14100    232.13842    -1015.394     134399.5   -40417.332    2888.2432   -43305.575    25.770264   0.92927053 
   14200    227.56679   -1040.8841    134310.36   -40474.182    2831.3635   -43305.546    26.096921   0.92988725 
   14300    227.37761   -761.60519    134334.32   -40531.134    2829.0097   -43360.144    26.035996   0.92972143 
   14400    231.71309    -831.5763    134279.31   -40513.811    2882.9513   -43396.763     26.19741   0.93010225 
   14500    229.97974   -1098.4326    134153.78    -40466.74    2861.3852   -43328.125    26.207193   0.93097259 
   14600    231.85082   -773.05609    134350.24    -40490.76     2884.665   -43375.425    26.316514   0.92961122 
   14700    228.25621   -972.97923    134236.61   -40544.146    2839.9412   -43384.088     26.46057   0.93039814 
   14800    227.08877   -1072.4282    134308.87   -40601.179     2825.416   -43426.595    26.589853   0.92989757 
   14900    224.70115   -1137.1616    134134.54   -40677.923    2795.7095   -43473.632    26.663971    0.9311061 
   15000    226.96977   -719.78864    134176.21   -40671.475    2823.9354   -43495.411    26.629555   0.93081698 
   15100    223.69738   -923.33574    134094.26   -40699.974    2783.2206   -43483.195    26.787953   0.93138584 
   15200    225.43962   -970.23883    134172.79   -40605.396    2804.8975   -43410.293    26.796926    0.9308407 
   15300     228.6419   -821.12855    134318.67   -40605.466    2844.7399   -43450.206    26.630342   0.92982974 
   15400    225.35715   -1087.7379    134263.41   -40589.946    2803.8714   -43393.817    26.857028   0.93021239 
   15500     230.1107   -896.24346    134111.67   -40565.736    2863.0145    -43428.75     26.81683   0.93126487 
   15600    230.74716   -1076.1678    134286.36   -40493.778    2870.9333   -43364.711    26.955861   0.93005345 
   15700    228.53339   -882.16611    134264.46   -40576.654    2843.3899   -43420.044    27.069366   0.93020516 
   15800    232.06531   -1083.7949    134193.31   -40566.273    2887.3337   -43453.607    27.192963   0.93069831 
   15900    228.75928    -875.2221    134224.22    -40608.41    2846.2004    -43454.61    27.314478   0.93048403 
   16000    229.00842   -793.96822    134265.45   -40544.379    2849.3001   -43393.679     27.44961   0.93019827 
   16100    230.91039   -935.36147    134346.22   -40498.049    2872.9643   -43371.014    27.460728   0.92963907 
   16200    227.14917    -910.9418    134244.55   -40567.929    2826.1675   -43394.096    27.776958   0.93034312 
   16300    228.01157   -841.42934    134309.23   -40577.461    2836.8975   -43414.358    27.733112   0.92989506 
   16400    234.89895   -873.34171    134260.13   -40478.037    2922.5895   -43400.627    27.904518   0.93023516 
   16500    235.30015   -907.04659    134232.19   -40474.902    2927.5812   -43402.483     27.89305   0.93042875 
   16600    231.50796   -946.70073    134162.16   -40459.614    2880.3991   -43340.013    27.959923    0.9309144 
   16700    231.63141   -984.56833    134193.76   -40493.938    2881.9351   -43375.873    28.057569   0.93069521 
   16800    232.97762   -875.83339    134247.25    -40475.73    2898.6845   -43374.414    28.114734   0.93032442 
   16900    230.82195   -1121.0942    134208.78   -40429.489    2871.8638   -43301.353    28.071282   0.93059103 
   17000    231.89249   -895.68253    134335.92   -40454.732    2885.1834   -43339.915    28.116571   0.92971035 
   17100    231.70235   -920.38725    134272.88    -40390.81    2882.8178   -43273.628    28.222443   0.93014681 
   17200    232.55568   -1032.4085    134163.11   -40414.488    2893.4348   -43307.923    28.465806   0.93090782 
   17300    233.17018   -948.59605    134057.79   -40477.548    2901.0804   -43378.628    28.576817   0.93163919 
   17400    229.84597   -865.04465    133993.81    -40493.88    2859.7209   -43353.601    28.633844   0.93208403 
   17500    230.09732   -1014.6488    133973.29   -40476.254    2862.8482   -43339.102    28.727755   0.93222678 
   17600    231.00874   -1083.1916     133965.8   -40456.998    2874.1879   -43331.186    28.694497   0.93227889 
   17700    231.68136   -769.51179    133802.89   -40490.064    2882.5566   -43372.621    28.855098   0.93341404 
   17800    230.07285   -814.41591    133913.69   -40502.096    2862.5437   -43364.639    28.949856   0.93264172 
   17900    235.16056   -973.70885    133768.78   -40471.291    2925.8444   -43397.135    29.027113   0.93365201 
   18000    236.54837   -867.85633    133906.56   -40409.127    2943.1115   -43352.238    29.132261   0.93269134 
   18100    222.30305   -872.86139    133866.99    -40521.65    2765.8726   -43287.522    29.098579   0.93296708 
   18200    229.60129   -890.05938    133796.29   -40529.578    2856.6766   -43386.255    29.131416   0.93346003 
   18300    235.73201   -753.49396     133802.1   -40441.944    2932.9543   -43374.898    29.287878   0.93341951 
   18400     228.5423    -699.1233    133894.87   -40497.622    2843.5007   -43341.123    29.395137   0.93277276 
   18500    229.43642   -929.27256    134048.01   -40452.183    2854.6253   -43306.808    29.537253   0.93170718 
   18600    229.36254   -987.16685    133797.12   -40507.358    2853.7061   -43361.065    29.650611   0.93345428 
   18700    231.07005   -919.68186     133892.5   -40467.757    2874.9507   -43342.707    29.659536   0.93278928 
   18800    232.83838   -855.09254       134012    -40427.15    2896.9521   -43324.102    29.718007   0.93195752 
   18900    234.60875   -873.49273     134117.1   -40466.887    2918.9789   -43385.866    29.934722   0.93122721 
   19000    228.48499   -860.96676    134004.72   -40433.852    2842.7876    -43276.64    29.944928   0.93200813 
   19100    225.45127   -912.16116    133906.85   -40482.733    2805.0424   -43287.775    29.908358   0.93268934 
   19200    229.76291   -799.03227    134100.75   -40439.277    2858.6874   -43297.964    30.041991   0.93134076 
   19300    233.62849   -1030.4301    134011.04   -40383.027    2906.7826    -43289.81     30.05764   0.93196417 
   19400    233.36535   -864.65018    133939.83   -40397.224    2903.5086   -43300.733    30.141022   0.93245972 
   19500    236.32889    -877.5637    133897.73   -40394.247    2940.3807   -43334.627    30.332328   0.93275289 
   19600    231.77438   -994.97081    133884.77    -40417.24    2883.7139   -43300.954    30.387512   0.93284317 
   19700    235.58694   -776.17816    133710.68   -40386.611    2931.1494    -43317.76    30.274694   0.93405769 
   19800     232.0244   -996.07039    133818.61    -40440.12    2886.8246   -43326.944    30.511112   0.93330433 
   19900    233.45504   -1061.6938    133829.15    -40445.17    2904.6246   -43349.795     30.41313   0.93323088 
   20000    229.09761   -1021.4465    133510.79     -40504.5    2850.4099    -43354.91    30.581789   0.93545615 
   20100    231.54792   -907.81586    133517.46   -40444.957    2880.8963   -43325.853    30.727057   0.93540945 
   20200    225.88684   -995.20382    133600.76   -40477.549    2810.4618   -43288.011    30.811284   0.93482617 
   20300    226.84252   -918.64531    133622.17   -40493.531    2822.3522   -43315.883    30.942503   0.93467642 
   20400     225.9041   -1012.8411     133462.9   -40492.016    2810.6765   -43302.693    31.090141   0.93579182 
   20500    229.45177    -922.0424    133538.88   -40473.817    2854.8163   -43328.633     31.17125   0.93525937 
   20600    228.75677   -949.38928    133721.16   -40516.017    2846.1691   -43362.186    31.264082   0.93398449 
   20700    228.05287   -824.76768    133537.92    -40460.44    2837.4112   -43297.851    31.293843   0.93526609 
   20800    234.92478   -1097.9865    133707.39   -40470.893     2922.911   -43393.804    31.462404   0.93408072 
   20900    230.70773   -1013.1606     133670.1   -40501.928    2870.4427    -43372.37     31.66172   0.93434126 
   21000    227.94123    -904.1701     133600.8   -40605.459    2836.0222   -43441.481    31.713136   0.93482591 
   21100    223.42887   -925.01017    133643.59   -40626.366    2779.8799   -43406.246    31.733102   0.93452663 
   21200     226.5215   -830.60696    133740.98     -40605.3    2818.3581   -43423.658    31.461264   0.93384608 
   21300    226.78111   -1005.3694    133878.55   -40610.855    2821.5882   -43432.443    31.617114   0.93288652 
   21400     229.4475   -826.56039    133971.92   -40603.034    2854.7631   -43457.798    31.707983   0.93223633 
   21500    229.61031   -1009.4419    134090.19   -40593.548    2856.7888   -43450.337     31.93616   0.93141409 
   21600     228.0476   -948.86677    134367.38   -40530.739    2837.3457   -43368.085    32.102141   0.92949267 
   21700    230.06999   -1007.3355    134109.53    -40500.01    2862.5081   -43362.518    31.898038   0.93127975 
   21800    232.69704   -901.53115    134051.49    -40478.48    2895.1936   -43373.673    31.938246   0.93168298 
   21900    230.14053   -975.26338    133992.22   -40494.043    2863.3857   -43357.428    32.113937   0.93209512 
   22000    226.90337   -970.99669    133826.51   -40529.662    2823.1093   -43352.771    32.324761   0.93324924 
   22100    232.62715   -715.52745     133920.7   -40452.991     2894.324   -43347.315     32.54751   0.93259286 
   22200    229.35175   -1004.1812    133882.48   -40483.807    2853.5718   -43337.379    32.464681   0.93285909 
   22300    232.60938   -998.16291    133958.69   -40464.544    2894.1029   -43358.647    32.392451   0.93232838 
   22400    235.16923   -1010.6477    133746.35   -40441.586    2925.9523   -43367.538    32.674452   0.93380861 
   22500    230.16986      -788.88     133587.9   -40440.638    2863.7506   -43304.389    32.813655   0.93491619 
   22600    233.52193   -1087.1372    133604.02    -40400.27    2905.4568   -43305.727    33.217309   0.93480343 
   22700    230.98089   -916.20286    133609.73   -40410.636    2873.8414   -43284.477    33.025174   0.93476342 
   22800    234.75887   -868.18372    133910.18     -40375.9    2920.8466   -43296.747    33.152588   0.93266612 
   22900    231.37683   -997.86272    133983.22   -40423.411    2878.7676   -43302.179    33.275143   0.93215773 
   23000    230.10485   -953.87929    133966.35   -40398.971    2862.9417   -43261.912    33.630265   0.93227507 
   23100    224.47267   -861.91422     134245.8   -40493.709    2792.8668   -43286.576    33.675739   0.93033444 
   23200    226.67911    -837.7265    134257.86   -40447.703    2820.3191   -43268.022     33.68878   0.93025089 
   23300    231.14171   -702.00108    134096.78   -40513.369    2875.8423   -43389.211    33.551298   0.93136832 
   23400    231.19082   -1194.8116    133914.55    -40443.55    2876.4533   -43320.003    33.700831   0.93263569 
   23500    225.74823   -887.62775    133853.22   -40469.074    2808.7371   -43277.811     33.83899   0.93306302 
   23600    233.39073   -988.76666    134047.39   -40447.697    2903.8244   -43351.521     34.03123   0.93171144 
   23700    228.93808   -968.07008    134127.99   -40481.075    2848.4249     -43329.5    34.091028   0.93115161 
   23800    224.13019   -934.50549    134044.22   -40540.721    2788.6056   -43329.326    34.053644   0.93173354 
   23900    228.45664   -928.00635    134036.42    -40568.14     2842.435   -43410.575     34.07003    0.9317877 
   24000    225.19344   -1061.5368    134123.21   -40494.229    2801.8345   -43296.064     34.31559   0.93118476 
   24100    229.71811   -820.34631    133990.33   -40493.617    2858.1301   -43351.747    34.466422   0.93210823 
   24200    227.78478   -991.79846    134041.73   -40542.463    2834.0757   -43376.539    34.513494   0.93175081 
   24300    223.47009   -881.89313    133941.19   -40506.135    2780.3927   -43286.528     34.59262   0.93245019 
   24400    223.47392   -1042.5735    134071.08   -40549.688    2780.4404   -43330.129    34.807066   0.93154681 
   24500    223.60587   -874.93333    134024.88   -40498.803    2782.0821   -43280.885    34.948001   0.93186798 
   24600    229.25698   -808.57824    133856.53   -40478.916    2852.3926   -43331.309    35.175669   0.93303994 
   24700    226.47752   -1005.8961    133859.55   -40493.786     2817.811   -43311.597     35.16757   0.93301892 
   24800    228.31952   -900.72542    133681.56   -40498.324    2840.7288   -43339.053     35.19075   0.93426119 
   24900     231.5931   -1105.8739    133664.37   -40445.423    2881.4585   -43326.882    35.149103   0.93438132 
   25000    234.76515   -1064.8816    133716.87   -40408.766    2920.9248    -43329.69    35.075444   0.93401447 
   25100    230.54245   -984.79064    133621.17   -40410.369    2868.3864   -43278.756    35.245056   0.93468339 
   25200    227.12239   -852.98526    133832.77   -40443.535    2825.8343   -43269.369    35.255039   0.93320562 
   25300    232.43811   -1085.5336    133716.59   -40453.677    2891.9719   -43345.649    35.392933   0.93401641 
   25400    228.78123   -745.24802    133869.22   -40434.654    2846.4735   -43281.127    35.565935   0.93295151 
   25500     232.8287   -1118.0401    133704.02   -40393.857    2896.8317   -43290.688    35.701042   0.93410425 
   25600    231.75717   -915.02419    133862.07   -40487.547    2883.4998   -43371.046    35.834652   0.93300134 
   25700    227.25666   -907.16809     133918.2   -40498.107     2827.505   -43325.612    35.984041   0.93261032 
   25800    231.38973    -887.0479    134168.51   -40478.655    2878.9281   -43357.583    36.180975   0.93087036 
   25900    227.53604   -891.11694    134177.69   -40434.167    2830.9809   -43265.148    36.157539   0.93080667 
   26000    234.36249   -914.13932    134355.59   -40366.875    2915.9149    -43282.79    36.133642   0.92957418 
   26100     226.6946   -882.28594    134433.74   -40445.952    2820.5118   -43266.464    36.337727   0.92903384 
   26200    235.10917   -972.81755    134490.14   -40455.888    2925.2051   -43381.093    36.398027   0.92864423 
   26300     229.3708   -940.55495    134401.59   -40420.197    2853.8088   -43274.006     36.43043   0.92925604 
   26400    231.48724   -960.53546    134395.94   -40412.611    2880.1413   -43292.753    36.603969   0.92929513 
   26500     230.8523   -1038.8012    134333.82   -40462.076    2872.2415   -43334.318    36.726437   0.92972483 
   26600    226.93492   -1046.4257     134494.9   -40492.074    2823.5019   -43315.576    36.784701   0.92861135 
   26700    229.90162   -896.21401    134418.21   -40502.955    2860.4132   -43363.368    36.830417   0.92914116 
   26800    229.00834   -1077.2879    134350.41    -40436.01    2849.2991   -43285.309    37.127278   0.92961003 
   26900    229.77033   -1009.8015    134327.53   -40449.308    2858.7797   -43308.088    37.238842   0.92976838 
   27000    231.24311   -778.61024    134303.85   -40493.716     2877.104    -43370.82    37.363175   0.92993235 
   27100    226.32983   -814.20519    134418.58   -40509.605    2815.9734   -43325.579    37.603882   0.92913859 
   27200    226.32362   -974.33112    134245.09   -40539.642    2815.8961   -43355.538    37.601813   0.93033938 
   27300    224.82688   -1040.6295    134110.55   -40573.307    2797.2738    -43370.58    37.656149   0.93127266 
   27400    233.29793   -907.57581     134149.9   -40510.137    2902.6698   -43412.807    37.738716   0.93099948 
   27500    229.77147    -982.3778    134134.45   -40450.668    2858.7939   -43309.462    37.995122   0.93110676 
   27600    226.82026   -945.17303       133962   -40484.836    2822.0752   -43306.911    38.004804   0.93230538 
   27700    231.14154   -897.99648    133959.28   -40484.877    2875.8402   -43360.717    37.991071   0.93232432 
   27800    232.46991   -1043.3644    134107.19    -40411.93    2892.3676   -43304.297    38.120762   0.93129602 
   27900    231.59129   -1014.7041    134214.92   -40438.196    2881.4359   -43319.632    38.494605   0.93054847 
   28000    231.25477    -955.1119    134311.33   -40471.661     2877.249    -43348.91     38.57403   0.92988052 
   28100    233.77126   -1054.7239    134254.88   -40456.803    2908.5589   -43365.362    38.497649   0.93027152 
   28200    226.68482   -1145.4842    134026.79   -40502.699    2820.3902   -43323.089    38.516654   0.93185466 
   28300    229.80602   -878.42715     134276.2   -40486.517    2859.2237   -43345.741    38.538967   0.93012378 
   28400    228.14882   -1003.8296    134113.18   -40519.404     2838.605   -43358.009    38.593011   0.93125441 
   28500    227.95378   -982.31352    134108.63   -40554.678    2836.1784   -43390.856     38.80154   0.93128604 
   28600    228.31035   -1019.7343     134145.4   -40501.319    2840.6148   -43341.934    38.910237   0.93103077 
   28700    227.00283   -985.73967       134170   -40516.464    2824.3468   -43340.811    39.263805   0.93086006 
   28800    228.15468   -904.43327    133997.35   -40505.764     2838.678   -43344.442    39.414692   0.93205938 
   28900    230.29176    -806.2855    134222.88   -40477.036    2865.2673   -43342.303    39.584871    0.9304933 
   29000    231.45593   -852.35776    134173.44   -40556.244    2879.7518   -43435.996    39.721738   0.93083615 
   29100    228.77258   -871.42086    134242.36   -40508.227    2846.3659   -43354.593    39.767398   0.93035829 
   29200    236.60573   -808.81621       134286   -40481.353    2943.8251   -43425.178    39.818135   0.93005593 
   29300    231.31352   -979.72817    134386.66   -40544.839      2877.98   -43422.819    40.002405   0.92935931 
   29400     230.0111   -1036.4567    134165.48   -40601.115    2861.7753    -43462.89    39.999954   0.93089138 
   29500    230.18653   -976.09833    134191.16   -40637.918     2863.958   -43501.876    39.856872   0.93071325 
   29600    232.18149    -891.4141    134219.69   -40573.664    2888.7792   -43462.443     40.01827   0.93051539 
   29700    229.10511   -970.93223    134109.27   -40625.321    2850.5031   -43475.824    39.812948   0.93128157 
   29800    232.15657   -908.73966    134006.88   -40612.051    2888.4691    -43500.52    39.983653   0.93199315 
   29900    227.73553   -820.62016    133973.44   -40643.505    2833.4629   -43476.968     39.98448   0.93222573 
   30000    229.08929   -1042.5752    133935.84   -40623.748    2850.3063   -43474.055    40.030575   0.93248743 
   30100    229.53934   -883.25559    134119.88   -40623.745    2855.9058   -43479.651    40.290588   0.93120788 
   30200    225.43561   -999.46897    134036.77   -40619.226    2804.8476   -43424.074    40.350564   0.93178529 
   30300    225.90476   -941.66753    134086.38   -40569.081    2810.6847   -43379.766    40.601552   0.93144053 
   30400    233.22534   -1022.0359    134106.35   -40540.382    2901.7667   -43442.148    40.536087   0.93130183 
   30500    228.94209   -989.33445    134032.62   -40534.898    2848.4749   -43383.373    40.551152   0.93181416 
   30600    229.92739   -943.28017    134164.16   -40514.247    2860.7338   -43374.981    40.592163   0.93090056 
   30700    233.17981   -1104.7111    134244.36   -40531.537    2901.2002   -43432.738    40.639114   0.93034442 
   30800    228.88752    -1000.978    134199.65    -40465.11    2847.7959   -43312.906    40.669227   0.93065439 
   30900    230.36144   -1026.1951    134252.51   -40588.256    2866.1343   -43454.391    40.944462   0.93028791 
   31000    224.03285   -963.39393    134328.43   -40623.608    2787.3945   -43411.002    40.914608   0.92976215 
   31100    227.85411   -941.43722    134427.47   -40627.482    2834.9384    -43462.42    41.179291   0.92907714 
   31200    227.15061   -985.45166    134201.38    -40633.95    2826.1854   -43460.136    41.273903   0.93064238 
   31300    231.89302   -856.97148    134213.49   -40588.644    2885.1901   -43473.834    41.280289   0.93055844 
   31400    231.70478   -954.59258    134239.28   -40549.539    2882.8479   -43432.387    41.284903    0.9303796 
   31500    227.80908   -1002.7104    134245.88   -40607.356     2834.378   -43441.734    41.336134   0.93033386 
   31600    230.39628   -999.56499    134027.06   -40542.882    2866.5678   -43409.449    41.349671    0.9318528 
   31700    228.29926   -754.20105    133983.65   -40580.333    2840.4768    -43420.81    41.427442   0.93215475 
   31800    232.27795   -950.58122    134157.92   -40518.949    2889.9793   -43408.928    41.638185   0.93094384 
   31900    230.54061   -921.34046    134254.56    -40507.68    2868.3634   -43376.043    41.813948   0.93027372 
   32000    232.01584   -915.20369    134218.52   -40488.609    2886.7182   -43375.328    41.645184   0.93052356 
   32100     232.6345   -874.74722    134207.19   -40493.786    2894.4155   -43388.202    41.863798   0.93060209 
   32200    231.40549   -884.35334    134162.86   -40484.312    2879.1243   -43363.436    41.784111   0.93090958 
   32300     229.8805   -945.65991    134031.18   -40458.808    2860.1505   -43318.958    42.005013   0.93182414 
   32400    233.22948   -723.82404    134142.79   -40524.374    2901.8181   -43426.192    42.107888   0.93104888 
   32500    229.50113   -998.58451    134179.25   -40538.102    2855.4304   -43393.533    42.383532   0.93079589 
   32600    232.70786   -1056.1498    134177.45   -40475.348    2895.3282   -43370.677    42.406114   0.93080837 
   32700    230.09976   -1027.2131    134236.59   -40548.507    2862.8785   -43411.385    42.447404   0.93039826 
   32800    228.70346   -939.19688    134214.65   -40588.511    2845.5059   -43434.017    42.495557   0.93055034 
   32900    233.30486   -975.50163    134265.42   -40585.883     2902.756   -43488.639    42.621578    0.9301985 
   33000    227.03212   -1255.7061    134119.75   -40641.254    2824.7112   -43465.965    42.535079   0.93120878 
   33100    227.11414   -790.35484    134037.59   -40569.104    2825.7317   -43394.835    42.648121   0.93177956 
   33200    229.29755   -891.78856    134200.74   -40613.962    2852.8974   -43466.859    42.764629   0.93064683 
   33300    228.12694   -956.93201    134257.33    -40555.66    2838.3328   -43393.993    42.851002   0.93025452 
   33400    225.23196   -966.31394    134245.55   -40645.891    2802.3137   -43448.205    43.045736   0.93033618 
   33500    228.14003   -961.74063    134200.99   -40602.772    2838.4957   -43441.268    43.036137   0.93064506 
   33600    229.97309   -988.93923    134227.56   -40561.473    2861.3024   -43422.776    43.233214   0.93046086 
   33700    225.09227   -929.47475    134268.58   -40561.673    2800.5758   -43362.249     43.38838   0.93017661 
   33800    229.59594   -1012.6103    134315.34   -40563.457      2856.61   -43420.067    43.448564   0.92985278 
   33900    230.10958   -1031.9614    134171.74   -40566.766    2863.0006   -43429.767    43.366927   0.93084795 
   34000    233.29997   -828.53742    134241.44   -40536.025    2902.6951    -43438.72    43.383879   0.93036464 
   34100    230.13476   -1036.1321     134203.9   -40554.441    2863.3139   -43417.754    43.577098   0.93062488 
   34200    227.88701   -861.75336    134228.61   -40560.132    2835.3477    -43395.48    43.517158   0.93045357 
   34300    228.82602   -834.58366    134249.87   -40604.175    2847.0307   -43451.206     43.87381   0.93030624 
   34400    228.06251   -855.21978    134245.76   -40535.523    2837.5312   -43373.054    43.899055   0.93033471 
   34500    228.75534   -960.85545    134065.23    -40558.96    2846.1513   -43405.111    43.881539   0.93158751 
   34600    230.98284   -900.45133    134173.16   -40537.101    2873.8657   -43410.967    43.874753   0.93083809 
   34700    225.88127   -1045.3266    134086.34   -40604.465    2810.3925   -43414.857    43.976091   0.93144082 
   34800    226.44226   -893.52635    134055.24   -40577.453    2817.3723   -43394.825      43.9482    0.9316569 
   34900    225.39087   -923.34523    134050.95   -40572.098    2804.2909   -43376.389    44.234418   0.93168674 
   35000     226.6754    -883.4943       134133   -40637.554     2820.273   -43457.827     44.46539   0.93111678 
   35100     228.8826   -886.50175    134181.82   -40576.181    2847.7347   -43423.916     44.33204   0.93077803 
   35200    225.19905   -1114.8006    134053.23   -40592.034    2801.9043   -43393.939    44.233104   0.93167089 
   35300    228.44024   -844.41822    134046.55    -40576.75    2842.2309   -43418.981    44.485377   0.93171733 
   35400    229.13874   -1033.4923    134196.57   -40605.896    2850.9216   -43456.818    44.690359   0.93067574 
   35500    237.10948   -956.62125    134157.29   -40514.072    2950.0927   -43464.165    44.489768   0.93094821 
   35600    227.36126   -834.05992    134193.93   -40569.024    2828.8063    -43397.83    44.693561   0.93069407 
   35700    230.63252   -1048.1252     134099.1   -40529.816     2869.507   -43399.323    44.876428    0.9313522 
   35800    230.52044   -911.07636    134302.83   -40581.284    2868.1125   -43449.397    45.016205   0.92993937 
   35900    231.00764   -892.86676    134339.59   -40516.799    2874.1742   -43390.973    45.499676   0.92968489 
   36000    231.37245   -940.10506    134395.29    -40500.59    2878.7131   -43379.303     45.73382   0.92929964 
   36100    234.13638   -1051.0058    134513.56     -40528.7    2913.1017   -43441.802     45.76902   0.92848251 
   36200    230.81979   -1110.2608    134533.64   -40562.869     2871.837   -43434.706    45.426244   0.92834393 
   36300    229.86674   -1015.1065    134558.41   -40612.461    2859.9792    -43472.44     45.50245   0.92817305 
   36400    227.61179    -831.3162    134652.11   -40543.498    2831.9234   -43375.422    45.508906   0.92752716 
   36500    227.07868   -910.17592    134609.08   -40512.927    2825.2905   -43338.218    45.697032   0.92782364 
   36600    224.80483   -972.16716    134590.62   -40657.144    2796.9994   -43454.144    46.122778   0.92795094 
   36700    228.09714   -795.30168     134676.3   -40603.122    2837.9621   -43441.084    45.850875   0.92736061 
   36800    229.30285   -831.67185    134801.12   -40590.763    2852.9634   -43443.726    46.037733   0.92650185 
   36900     226.1907   -1106.5094    134657.65   -40621.682    2814.2423   -43435.924    46.024479   0.92748903 
   37000    233.53218   -887.64185    134753.38   -40571.398    2905.5843   -43476.983    46.181822    0.9268301 
   37100    229.51764   -1088.6344    134703.26    -40561.56    2855.6358   -43417.196    46.158347     0.927175 
   37200     230.6431   -932.87346    134621.57   -40632.439    2869.6387   -43502.077    46.234285   0.92773757 
   37300    226.38217   -937.94454    134842.87   -40646.555    2816.6246    -43463.18    46.479444     0.926215 
   37400    224.20175   -894.22377    134779.82   -40684.492     2789.496   -43473.988    46.816178    0.9266483 
   37500    227.91544   -1134.4258    134675.94   -40698.342    2835.7013   -43534.043    46.935711   0.92736307 
   37600     228.1677   -957.73512    134463.47    -40659.24    2838.8399    -43498.08    46.807655   0.92882844 
   37700    232.09084   -962.72513    134700.43   -40669.668    2887.6513   -43557.319    46.821397   0.92719444 
   37800    223.70446   -887.26062    134669.14   -40767.903    2783.3087   -43551.212     46.76392   0.92740985 
   37900    225.64972   -951.56438    134687.81   -40716.932    2807.5116   -43524.444    47.025762   0.92728132 
   38000     227.0874   -953.53536    134710.71   -40685.174     2825.399   -43510.573    47.140751   0.92712368 
   38100    229.09838   -986.77097    134635.59   -40634.629    2850.4194   -43485.049    47.394588     0.927641 
   38200    229.93231   -1079.0875     134443.3   -40650.366     2860.795   -43511.161    47.286803   0.92896776 
   38300    233.26021   -1035.7633    134450.93   -40599.917    2902.2004   -43502.117    47.436355   0.92891505 
   38400    230.85719   -1070.9363    134512.16   -40659.816    2872.3023   -43532.119    47.477457   0.92849218 
   38500     230.9837   -988.27495    134521.47   -40693.511    2873.8764   -43567.387    47.415395   0.92842796 
   38600    228.79602   -903.58778    134476.55   -40644.305    2846.6575   -43490.962    47.569999    0.9287381 
   38700     229.4975   -846.68008    134540.21   -40659.667    2855.3853   -43515.052    47.596371    0.9282986 
   38800    230.91687   -969.51695    134675.62   -40696.564    2873.0449   -43569.609    47.582492   0.92736523 
   38900     231.3583    -890.5818     134805.6   -40653.466    2878.5371   -43532.003    47.678586   0.92647108 
   39000    229.87587   -919.74431    134943.01   -40702.975    2860.0928   -43563.068    47.978644    0.9255277 
   39100    228.61469   -988.74443    134949.81    -40644.85    2844.4014   -43489.251    47.951949   0.92548104 
   39200    228.57472    -1032.254    134857.85   -40666.183    2843.9041   -43510.087    47.825735   0.92611214 
   39300    227.02926   -1005.0371    134957.74    -40638.25    2824.6756   -43462.925    47.880365    0.9254267 
   39400    235.31397   -929.55209    135007.44   -40591.226    2927.7531    -43518.98    48.025183   0.92508599 
   39500    233.69511   -896.47182       134922   -40571.935    2907.6115   -43479.546    48.185917   0.92567178 
   39600    229.59612   -921.57182    134964.56   -40620.892    2856.6123   -43477.505    48.138915   0.92537991 
   39700    237.17285   -951.38229    134998.91   -40566.049    2950.8811    -43516.93    48.025533   0.92514446 
   39800    231.71035   -911.16606    134767.82   -40635.453    2882.9173    -43518.37    48.136106   0.92673083 
   39900     231.1955   -808.99623    134873.89   -40677.145    2876.5115   -43553.656    48.240567     0.926002 
   40000    227.96787   -1036.5234    134899.48   -40715.583    2836.3537   -43551.937     48.53002   0.92582633 
   40100     227.0624   -1034.4314     134747.4   -40619.798    2825.0879   -43444.886    48.742218   0.92687124 
   40200    228.14202   -982.22733     134628.2   -40641.107    2838.5204   -43479.628    48.705914   0.92769187 
   40300    230.24639   -1051.8118    134593.47   -40612.908    2864.7028   -43477.611    48.641614    0.9279313 
   40400     230.4928   -980.58725     134692.8   -40508.835    2867.7687   -43376.604    48.645128   0.92724696 
   40500    231.80173   -911.46706    134335.04   -40532.273    2884.0543   -43416.327    48.773501   0.92971641 
   40600    228.37859   -986.60476    134542.22   -40570.395    2841.4639   -43411.859    48.799174   0.92828477 
   40700    228.42007    -928.7121    134511.65   -40608.257    2841.9799   -43450.237     48.61128   0.92849573 
   40800    226.19715   -898.74293    134545.46   -40652.246    2814.3226   -43466.568    48.836896   0.92826237 
   40900    225.03445   -1172.2509    134491.26   -40678.694    2799.8564   -43478.551    48.996477   0.92863648 
   41000    231.04734    -973.5961    134570.39   -40571.106    2874.6681   -43445.774    49.274344   0.92809042 
   41100    233.33199   -985.50624    134552.32    -40566.69    2903.0936   -43469.783    49.176146   0.92821509 
   41200    232.04838   -810.33756    134556.44   -40593.657     2887.123    -43480.78    49.361725   0.92818662 
   41300    225.59854   -1067.5003    134376.32   -40764.839    2806.8747   -43571.713    49.300343   0.92943078 
   41400    222.33388   -1002.2257    134347.55   -40707.322    2766.2562   -43473.578    49.419589   0.92962984 
   41500     223.6978   -1038.3279    134279.84    -40699.33    2783.2259   -43482.556    49.205833   0.93009862 
   41600    226.43793   -889.51619    134425.48   -40653.844    2817.3183   -43471.162      49.1256   0.92909094 
   41700    225.73472   -902.51718    134367.58   -40628.513     2808.569   -43437.082    49.284312   0.92949124 
   41800    229.07542   -913.05565    134290.47   -40637.405    2850.1337   -43487.538    49.384133   0.93002501 
   41900    229.66623   -876.00423    134407.34    -40610.64    2857.4846   -43468.125    49.593058   0.92921628 
   42000    231.97723   -946.05331    134639.15   -40591.578    2886.2377   -43477.816    49.683937   0.92761643 
   42100    230.23919   -970.47117    134692.62   -40604.533    2864.6132   -43469.146    49.978659    0.9272482 
   42200    228.76646   -916.82519    134643.46   -40554.426    2846.2897   -43400.716    49.891117   0.92758675 
   42300    228.63141   -894.75893    134583.98   -40522.922    2844.6095   -43367.532    49.844348   0.92799668 
   42400      232.397   -1013.7003    134682.06    -40564.36    2891.4605   -43455.821    50.189102   0.92732094 
   42500    235.54691   -947.53145    134753.02   -40567.108    2930.6513   -43497.759    50.196619    0.9268326 
   42600    230.66522   -976.91397    134709.05   -40581.724    2869.9139   -43451.638    50.439085   0.92713512 
   42700    228.88552   -1047.2467    134646.39   -40591.029    2847.7711   -43438.801    50.541773   0.92756657 
   42800    230.63483   -935.34328    134610.94   -40548.739    2869.5358   -43418.275    50.840649   0.92781085 
   42900    224.68107    -1149.647    134710.71   -40616.444    2795.4597   -43411.904    50.978997   0.92712367 
   43000    233.98698   -835.63461    134702.19   -40636.451    2911.2428   -43547.694    50.695908   0.92718235 
   43100     228.1795   -1007.2202    134840.17   -40602.488    2838.9868   -43441.475     50.76182   0.92623353 
   43200    231.89228    -1089.911    134863.11   -40562.114    2885.1808   -43447.295    50.675654   0.92607599 
   43300    227.86804   -947.20836    134742.52   -40581.749    2835.1116   -43416.861    50.902836   0.92690484 
   43400      230.042   -796.86722     134701.6   -40536.167    2862.1598   -43398.327    51.011083    0.9271864 
   43500    230.43552   -916.04096    134621.89   -40529.436    2867.0559   -43396.492    50.927998   0.92773535 
   43600      236.762    -1002.416    134657.46   -40433.033    2945.7694   -43378.803    51.120549   0.92749031 
   43700    233.73371   -1063.7701    134170.84   -40484.122    2908.0917   -43392.214    51.199944   0.93085419 
   43800    234.92521   -849.45347    134075.17   -40498.036    2922.9162   -43420.952     51.27701   0.93151843 
   43900    232.16417   -997.99856    134190.52   -40547.877    2888.5636   -43436.441    51.522356   0.93071769 
   44000    228.32464   -855.44253    134078.33   -40594.035    2840.7926   -43434.828    51.469926    0.9314965 
   44100    230.45677    -1082.672    134180.96    -40610.29    2867.3203   -43477.611    51.507604   0.93078402 
   44200    227.61485   -844.36701    134183.12   -40638.855    2831.9615   -43470.816    51.676063   0.93076899 
   44300    230.28269   -826.74736    134330.97   -40645.749    2865.1545   -43510.903    51.805706   0.92974454 
   44400    232.13656   -736.48688    134286.88    -40613.53    2888.2201    -43501.75    51.942038   0.93004981 
   44500    227.97579   -1047.4994    134414.32   -40633.686    2836.4523   -43470.138     52.56901   0.92916807 
   44600    224.92821   -947.75806    134430.81    -40679.58    2798.5345   -43478.114    52.495535    0.9290541 
   44700    228.57459    -843.6859    134397.38   -40637.384    2843.9024   -43481.286     52.42374   0.92928518 
   44800    225.09433   -953.69553    134410.63   -40593.859    2800.6014   -43394.461    52.569711   0.92919359 
   44900     235.8131   -962.26983    134590.64    -40561.17    2933.9633   -43495.133    52.647658   0.92795082 
   45000    233.13402   -1041.2831    134716.72   -40571.492    2900.6304   -43472.123    52.954106   0.92708235 
   45100    230.26373   -1009.0701     134711.7   -40520.897    2864.9185   -43385.816    52.907068   0.92711685 
   45200    229.29431   -872.87238    134678.77    -40597.45    2852.8572   -43450.307     53.07968    0.9273436 
   45300    230.86489   -851.16339    134917.86   -40618.156    2872.3981   -43490.554    53.258937   0.92570018 
   45400    234.09562   -1008.8126    134969.47   -40612.652    2912.5945   -43525.246    53.355186   0.92534623 
   45500    230.28428   -919.85871    134814.74   -40628.035    2865.1743    -43493.21    53.250803    0.9264083 
   45600    232.41429    -853.7425    135126.28       -40623    2891.6756   -43514.676    53.618272   0.92427237 
   45700    232.01591   -855.23838    135213.88    -40639.15     2886.719   -43525.869    53.801645   0.92367361 
   45800     234.6257   -1015.8693    135109.86   -40583.238    2919.1897   -43502.428    53.755723   0.92438471 
   45900    234.94347   -1039.9996    134772.07   -40527.506    2923.1434   -43450.649    53.747622   0.92670157 
   46000    233.58812   -1052.4487    134849.85   -40497.363    2906.2803   -43403.643    53.593415   0.92616711 
   46100    234.53946   -837.97861    134826.28   -40459.167    2918.1168   -43377.284    53.744905   0.92632898 
   46200    240.60208   -989.56356    134772.69   -40462.105    2993.5474   -43455.653    53.878284   0.92669729 
   46300     232.0262   -996.69013    134879.68   -40481.045    2886.8471   -43367.892     54.02588   0.92596225 
   46400    234.85475   -999.83601    134789.77   -40512.762    2922.0396   -43434.801    54.196893   0.92657988 
   46500    232.72351   -971.97232    134684.91   -40523.534     2895.523   -43419.057    54.352335   0.92730128 
   46600    237.93949   -1003.1932    134897.33    -40508.08    2960.4196   -43468.499    54.537396    0.9258411 
   46700    231.21587   -970.37645    134917.19   -40614.682     2876.765   -43491.447    54.453821    0.9257048 
   46800    229.84377   -949.82604     135076.2   -40665.304    2859.6935   -43524.998     54.58416   0.92461507 
   46900    232.24912   -1002.0614    135009.55   -40596.189    2889.6206   -43485.809    54.572458   0.92507154 
   47000    232.35644    -1008.862    134940.89   -40594.044    2890.9558   -43484.999     54.80984   0.92554222 
   47100    232.80873   -975.16027    134817.31   -40566.004    2896.5832   -43462.588    54.742763   0.92639065 
   47200    231.55636   -953.41246    134761.15   -40624.026    2881.0013   -43505.027    54.856408   0.92677669 
   47300    229.30694   -1069.6887    134692.83   -40655.083    2853.0143   -43508.098    55.027058   0.92724679 
   47400     230.3165   -920.16776    134691.63   -40604.351    2865.5752   -43469.927    55.256885   0.92725505 
   47500    233.84111   -854.27613    134730.61   -40533.545     2909.428   -43442.973    55.239372   0.92698677 
   47600    237.34679   -945.79553    134925.04   -40490.789    2953.0453   -43443.834    55.389105   0.92565097 
   47700    234.01002   -1022.6522    134614.07   -40555.342    2911.5295   -43466.872    55.239414   0.92778931 
   47800    232.52477   -892.64707    134596.67   -40561.109    2893.0502   -43454.159    55.332864   0.92790924 
   47900     227.1077    -883.9528    134595.24   -40643.179    2825.6516   -43468.831    55.505985   0.92791909 
   48000    225.35339   -1001.5846    134653.42   -40662.321    2803.8246   -43466.146     55.58435   0.92751816 
   48100    233.29467   -963.77622    134591.48   -40634.962    2902.6293   -43537.591    55.576302   0.92794501 
   48200    227.27377   -992.47241    134577.89   -40675.453    2827.7177   -43503.171       55.781   0.92803871 
   48300    228.52484   -1046.5209    134530.95   -40660.955    2843.2834   -43504.238    55.622845    0.9283625 
   48400    235.56478   -894.20353    134397.45     -40577.3    2930.8737   -43508.174    55.717359   0.92928471 
   48500    230.91305   -1078.3073    134553.15   -40632.062    2872.9973   -43505.059     55.80059   0.92820935 
   48600     229.7733   -1053.7803    134525.19   -40629.054    2858.8167   -43487.871    55.916079   0.92840225 
   48700    232.46986   -1037.1813    134439.23   -40588.827     2892.367   -43481.194    55.770237   0.92899587 
   48800    228.42142   -936.61299    134436.25   -40612.282    2841.9967   -43454.278      55.8417   0.92901644 
   48900    230.60289   -874.98327    134690.55   -40608.033    2869.1383   -43477.171     56.17248   0.92726249 
   49000    231.17557   -775.49914    134671.17   -40646.817    2876.2636   -43523.081    56.296482   0.92739588 
   49100    228.99783   -1047.8293     134767.3   -40634.937    2849.1684   -43484.106    56.633741   0.92673438 
   49200    227.94617   -1042.4815    134776.26    -40653.65    2836.0837   -43489.733    56.919222    0.9266728 
   49300    230.62238   -861.30826    134676.29   -40606.272    2869.3809   -43475.653    56.866752   0.92736064 
   49400    232.20373   -1093.4325    134603.72   -40572.028    2889.0558   -43461.083    56.590974   0.92786064 
   49500    233.53122   -1004.6981    134437.76   -40593.997    2905.5723   -43499.569    56.162397   0.92900603 
   49600      231.412   -1007.9005    134555.77   -40586.315    2879.2053    -43465.52     56.25101   0.92819126 
   49700      230.729   -985.78395    134454.94    -40603.12    2870.7075   -43473.827    56.477009   0.92888732 
   49800     231.7442     -765.629    134572.61   -40659.046    2883.3384   -43542.385    56.775301   0.92807509 
   49900     234.8399   -975.14959    134523.33   -40553.119    2921.8548   -43474.974    56.771048    0.9284151 
   50000    232.77723   -1082.9257    134385.73   -40599.589    2896.1913    -43495.78    56.959865   0.92936572 
   50100    233.65475   -1024.4619    134486.94   -40626.861    2907.1093   -43533.971    56.862623   0.92866633 
   50200    227.37504   -839.84116    134569.42   -40671.377    2828.9778   -43500.355    56.728502    0.9280971 
   50300    230.47041   -862.05673    134539.21   -40630.208    2867.4901   -43497.698    56.711291   0.92830553 
   50400    231.17069   -800.48849    134537.83   -40671.245    2876.2029   -43547.447    57.165424   0.92831502 
   50500    227.20765    -965.0324    134554.09   -40710.012    2826.8952   -43536.907    57.409774   0.92820288 
   50600    228.58175   -947.50746    134470.84   -40729.148    2843.9915    -43573.14    57.065507   0.92877752 
   50700    227.98401   -877.97263    134448.43   -40727.248    2836.5545   -43563.802    56.878333    0.9289323 
   50800    227.26499   -869.94527    134429.97   -40714.785    2827.6085   -43542.393    56.994073   0.92905985 
   50900    230.42381   -826.78587    134358.77   -40612.296    2866.9102   -43479.207    56.953898   0.92955218 
   51000    228.86888   -924.93104    134309.21   -40644.798     2847.564   -43492.362    57.306844   0.92989524 
   51100    228.30552   -1008.8302    134401.71   -40671.895    2840.5547    -43512.45    57.409265   0.92925525 
   51200    227.36005   -849.60417    134349.05   -40651.201    2828.7912   -43479.993     57.80531   0.92961945 
   51300     224.5165   -1143.2356    134361.74   -40716.457    2793.4121   -43509.869    57.660823   0.92953168 
   51400    226.78227   -996.84296    134330.73   -40715.745    2821.6026   -43537.348    57.575909   0.92974625 
   51500    229.68888   -1073.2059    134548.01   -40712.273    2857.7663    -43570.04    57.548785   0.92824479 
   51600    226.44132   -1059.2257    134552.81   -40668.447    2817.3605   -43485.808    57.668921    0.9282117 
   51700    230.84858   -885.47666    134527.78   -40666.984    2872.1952   -43539.179    57.589836   0.92838438 
   51800    230.55697   -928.05986    134549.83   -40703.213     2868.567    -43571.78    57.584692   0.92823225 
   51900    228.03155   -908.11474    134642.77   -40739.461     2837.146   -43576.607    57.730497   0.92759152 
   52000    229.98044   -889.96615     134729.3   -40761.207    2861.3939   -43622.601     57.83651   0.92699574 
   52100    224.03552   -923.76354    134780.74   -40696.331    2787.4278   -43483.759    57.732395   0.92664199 
   52200    230.64837   -1036.4971    134780.91   -40717.723    2869.7043   -43587.427    57.745565   0.92664081 
   52300    223.04422   -1045.9538    134893.87   -40702.843    2775.0941   -43477.937    58.036016   0.92586482 
   52400    227.34086   -872.45481    134862.57   -40651.195    2828.5525   -43479.748    58.006602   0.92607975 
   52500    229.56851   -892.80916    134741.09   -40644.156    2856.2687   -43500.425    58.050923   0.92691467 
   52600    228.20648   -983.93279    134687.92   -40674.044    2839.3225   -43513.366    58.237747   0.92728056 
   52700    227.90039    -852.1227    134589.03   -40691.257    2835.5141   -43526.771    58.216062   0.92796193 
   52800    231.97693   -1001.5001    134643.25   -40654.588    2886.2341   -43540.822    58.364956   0.92758824 
   52900    232.41162    -937.8707    134613.13    -40651.66    2891.6424   -43543.303    58.234303   0.92779575 
   53000    231.86529   -833.26988    134601.87    -40625.08     2884.845   -43509.925    58.160804   0.92787335 
   53100    228.64481     -893.614    134714.52   -40665.532    2844.7762   -43510.308    58.420381    0.9270975 
   53200    225.94674   -929.29721    134806.61   -40652.486     2811.207   -43463.693    58.724306   0.92646413 
   53300    232.06107   -928.91827    134724.46   -40655.504    2887.2809   -43542.785    58.861459   0.92702911 
   53400    227.41332    -899.3054    134881.05   -40728.549    2829.4541   -43558.003    59.119771   0.92595283 
   53500    228.18949   -955.08182    134993.56   -40731.915    2839.1111   -43571.026    59.153395   0.92518111 
   53600    224.29045   -981.48616    134769.64    -40741.64    2790.5997   -43532.239    59.076554   0.92671831 
   53700    226.30506    -825.7676    134762.11   -40786.781    2815.6652   -43602.446    59.040462   0.92677008 
   53800    230.64731   -960.13734    134861.81   -40674.186     2869.691   -43543.877    59.032265   0.92608493 
   53900    230.36994    -1123.022    134821.94   -40733.874      2866.24   -43600.114    59.324364   0.92635883 
   54000    230.45643    -840.1626    134885.38    -40698.71    2867.3161   -43566.027      59.7207   0.92592308 
   54100    225.65709   -993.76315    134856.47   -40713.633    2807.6032   -43521.236    59.572084   0.92612159 
   54200    227.20467   -826.74803    134879.41   -40694.264     2826.858   -43521.122    59.618171   0.92596407 
   54300    230.33151   -1097.8197    134861.97   -40667.154    2865.7619   -43532.916    59.774886   0.92608386 
   54400     229.0519   -1035.8152    134838.67   -40708.145    2849.8411   -43557.986    59.837511   0.92624384 
   54500    230.51647   -891.92341    134852.09   -40691.312    2868.0632   -43559.375    59.847986   0.92615172 
   54600    231.83517   -938.80479    134954.16   -40581.174    2884.4703   -43465.645    59.812809   0.92545122 
   54700    230.49234   -943.17842    135001.89   -40573.136    2867.7629   -43440.899    59.966011   0.92512401 
   54800    231.23527   -965.96465    134779.16   -40651.998    2877.0064   -43529.004    59.926555   0.92665281 
   54900    228.23911   -987.92793    134869.42   -40703.446    2839.7285   -43543.175    60.179927   0.92603265 
   55000    226.91577   -1058.2112    134763.01   -40768.033    2823.2636   -43591.296    60.102334   0.92676389 
   55100    228.72995   -997.05068    134759.58   -40725.772    2845.8354   -43571.608    60.260011   0.92678747 
   55200     227.6445   -1082.5745    134710.84   -40741.089    2832.3304   -43573.419    60.310272   0.92712283 
   55300    228.88241   -886.12689    134710.25   -40689.334    2847.7323   -43537.067     60.25256   0.92712686 
   55400     228.0243   -971.82145    134742.91   -40660.029    2837.0558   -43497.085    60.344865   0.92690215 
   55500    233.23027   -953.78663    134577.32    -40590.09    2901.8279   -43491.918    60.529122   0.92804264 
   55600    228.81392   -922.26145    134680.69   -40625.906    2846.8802   -43472.786    60.539645   0.92733036 
   55700    226.78582   -1121.7578    134818.55   -40621.869    2821.6468   -43443.516    60.369974   0.92638208 
   55800    229.99521   -957.70967    134716.25   -40619.945    2861.5776   -43481.522    60.533731   0.92708558 
   55900    230.59168   -1073.3979    134901.39   -40581.052    2868.9989   -43450.051    61.006338   0.92581321 
   56000    230.90514   -1072.3318    134956.59   -40575.234    2872.8989   -43448.133    60.922055   0.92543457 
   56100    230.29481   -1046.8304     134981.1   -40538.064    2865.3052    -43403.37    61.182975   0.92526652 
   56200    232.56751    -1040.058    134841.67   -40546.751    2893.5819   -43440.333    61.084046   0.92622326 
   56300    231.35431   -964.32259    134788.68   -40578.199    2878.4874   -43456.687     61.11781   0.92658736 
   56400    230.79117   -1077.6532    134702.22    -40573.18    2871.4809   -43444.661    60.977335   0.92718211 
   56500    228.82735   -833.88847    134537.05   -40665.971    2847.0473   -43513.018      60.7477   0.92832043 
   56600    229.41841   -935.87579    134751.24    -40677.08    2854.4011   -43531.481    61.010444   0.92684484 
   56700    225.65584   -999.00543    134820.05   -40713.661    2807.5876   -43521.248    61.244981   0.92637181 
   56800    228.37009   -942.97167    134897.34   -40644.429    2841.3581   -43485.787     61.34635   0.92584104 
   56900    228.48318   -990.77428    134776.41     -40630.2    2842.7652   -43472.965    61.536119   0.92667175 
   57000    231.81865   -906.92969     134761.4   -40574.799    2884.2647   -43459.064     61.50618   0.92677499 
   57100    237.49969   -873.39944       134835   -40640.374    2954.9476   -43595.322     61.58393   0.92626905 
   57200    225.48782   -1048.4964    134594.25   -40701.806    2805.4972   -43507.303    61.360363   0.92792588 
   57300    228.46862   -841.93601     134673.4   -40736.633     2842.584   -43579.217    61.496887   0.92738053 
   57400    225.44231   -996.10583    134547.36   -40748.005    2804.9309   -43552.936    61.574544   0.92824931 
   57500    228.31357   -1000.0965    134698.94   -40790.477    2840.6549   -43631.132    62.005481   0.92720474 
   57600    223.72912    -924.6267    134657.66   -40742.359    2783.6155   -43525.975    61.925393   0.92748895 
   57700    223.70428   -1032.0301    134588.48   -40795.203    2783.3066   -43578.509     61.85797    0.9279657 
   57800    222.29389   -862.52432    134740.34   -40805.647    2765.7586   -43571.406    62.016872   0.92691984 
   57900    229.09074   -894.87135    134760.78   -40774.495    2850.3244    -43624.82    61.733864   0.92677926 
   58000    225.56989   -946.42669    134739.22   -40771.233    2806.5183   -43577.752    61.855394    0.9269275 
   58100    228.21387   -964.35598    134781.13   -40688.336    2839.4144    -43527.75    61.612528   0.92663929 
   58200    230.02099   -1057.4627    134786.79   -40643.822    2861.8984    -43505.72    61.827694   0.92660039 
   58300    231.41133   -906.57821    134642.62    -40583.41    2879.1969   -43462.607    61.827058   0.92759255 
   58400    233.13574   -927.57736    134796.53   -40571.875    2900.6519   -43472.527    62.222235    0.9265334 
   58500    228.50702   -1023.1883    134999.18   -40582.374    2843.0618   -43425.436    62.366851   0.92514259 
   58600    230.57423   -1051.1456    134730.17   -40548.067    2868.7818   -43416.849    62.070653   0.92698981 
   58700    234.40522   -828.87667    134458.72   -40563.201    2916.4466   -43479.648    61.999383   0.92886125 
   58800    228.73323   -981.25481    134549.72   -40615.679    2845.8762   -43461.556    62.206148   0.92823303 
   58900    225.45745   -1055.6169    134361.58   -40658.583    2805.1193   -43463.703    62.129214   0.92953275 
   59000    232.76879   -892.84732    134345.24   -40628.824    2896.0863   -43524.911    62.223478   0.92964579 
   59100    236.13356   -1107.5682    134231.31   -40637.642    2937.9504   -43575.593    62.324454   0.93043487 
   59200    229.27462   -1053.4874    134280.96    -40651.03    2852.6121   -43503.642    62.697598   0.93009082 
   59300    229.65909   -958.40677    134185.13   -40654.108    2857.3956   -43511.504    62.603518   0.93075505 
   59400     227.3636   -945.28866     134226.7   -40705.121    2828.8355   -43533.957    62.877105   0.93046684 
   59500    228.25797   -882.65992     134320.9   -40668.643    2839.9631   -43508.606    62.731588    0.9298143 
   59600    226.82305   -826.45755    134396.75   -40661.143      2822.11   -43483.253    62.691747   0.92928953 
   59700    226.97837   -1092.0909     134483.9    -40679.11    2824.0425   -43503.153    62.848761   0.92868731 
   59800    223.79365   -960.12067    134516.82   -40670.104    2784.4184   -43454.522    63.078053   0.92846004 
   59900    226.86821   -1065.0482    134479.57   -40627.568    2822.6719    -43450.24    63.196145   0.92871721 
   60000      225.079   -1024.7045    134506.31   -40652.371    2800.4107   -43452.782    63.444826   0.92853258 
   60100    226.87345   -860.12976    134531.71   -40616.414    2822.7371   -43439.151    63.239236   0.92835728 
   60200    231.00597   -1159.1649    134480.85   -40589.246    2874.1534     -43463.4    63.223242   0.92870837 
   60300    227.85902   -991.16711    134342.17   -40527.011    2834.9994    -43362.01    63.224027   0.92966706 
   60400     232.7677   -973.18703     134393.3   -40472.507    2896.0727    -43368.58     63.47426   0.92931334 
   60500    229.29715   -1008.8239     134157.3   -40489.734    2852.8925   -43342.627    63.441034   0.93094818 
   60600    227.80942   -977.63529    134162.39   -40528.189    2834.3823   -43362.571    63.579355   0.93091282 
   60700    228.87239   -952.57686    134199.44   -40552.288    2847.6076   -43399.895    63.586212   0.93065584 
   60800    231.64324   -1105.3452    133993.81   -40495.872    2882.0823   -43377.955    63.723351   0.93208405 
   60900    230.85235   -990.24313    133869.91   -40498.209    2872.2422   -43370.451    63.657448   0.93294668 
   61000    229.35635   -938.41078     134037.6    -40539.61    2853.6291   -43393.239    63.470197   0.93177951 
   61100     232.3838   -1056.7852    133914.73   -40582.351    2891.2962   -43473.647    63.472844   0.93263445 
   61200    232.06494   -859.06672     134009.8   -40605.523     2887.329   -43492.852    63.840235   0.93197281 
   61300    234.09319   -773.97748     134190.7   -40605.024    2912.5644   -43517.588    63.905889   0.93071642 
   61400    231.28489   -913.45235    134178.22   -40652.898    2877.6237   -43530.521    63.946147   0.93080304 
   61500    231.82016   -986.40645    134196.37   -40665.374    2884.2835   -43549.658    63.883788   0.93067714 
   61600    231.96218   -833.94403    134221.97   -40616.062    2886.0505   -43502.113    63.701215    0.9304996 
   61700    228.56421   -815.70561    134297.85   -40692.536    2843.7733   -43536.309    63.927851   0.92997388 
   61800    223.38429   -1133.2573    134464.39   -40755.789    2779.3253   -43535.114    64.149587   0.92882207 
   61900    224.38969   -907.05909    134425.42   -40699.241    2791.8343   -43491.076     64.51004   0.92909131 
   62000    230.01702   -875.63587    134453.84   -40657.781    2861.8491    -43519.63    64.277079   0.92889496 
   62100    228.49463   -1110.9098    134497.82   -40675.163    2842.9076   -43518.071    64.401201   0.92859116 
   62200    229.40727   -1001.3043    134475.65   -40621.577    2854.2626    -43475.84    64.192382    0.9287443 
   62300    227.38253   -1017.2211    134610.94   -40648.592    2829.0709   -43477.663    64.439812   0.92781086 
   62400    234.62357   -1031.4204    134624.04   -40588.676    2919.1633    -43507.84    64.666253   0.92772058 
   62500    231.63344   -939.77958    134494.43   -40607.422    2881.9603   -43489.382    64.454133   0.92861462 
   62600    230.94162   -1012.2305    134491.39    -40609.09    2873.3527   -43482.443    64.562006   0.92863562 
   62700     229.6607   -1047.1793    134734.68   -40650.435    2857.4158   -43507.851    64.656072   0.92695877 
   62800    229.13405   -1034.3376    134633.05   -40648.279    2850.8632   -43499.142    64.752652    0.9276585 
   62900     231.3686   -999.98435    134629.17   -40607.126    2878.6652   -43485.791    64.552432   0.92768525 
   63000     232.4067    -1091.715    134851.62   -40575.195    2891.5812   -43466.776    64.598465   0.92615493 
   63100    233.57824   -952.30725     134603.2   -40576.364    2906.1574   -43482.521    64.861753   0.92786421 
   63200      228.155   -1016.7918    134530.49    -40600.82    2838.6819   -43439.502    64.756283   0.92836572 
   63300    231.25871   -1048.1184     134697.4   -40631.177    2877.2981   -43508.475    64.937032   0.92721533 
   63400    232.23075    -1096.331    134450.43   -40548.061    2889.3921   -43437.453    64.816194   0.92891849 
   63500    229.55512    -988.2038    134558.74   -40636.481    2856.1021   -43492.583     64.92632   0.92817079 
   63600    229.05795   -830.76097    134543.74   -40643.753    2849.9163   -43493.669     65.07944   0.92827427 
   63700    231.89651   -925.41807    134417.11   -40645.719    2885.2335   -43530.952     65.24359   0.92914877 
   63800    224.28654     -1062.57    134425.66   -40757.624     2790.551   -43548.174    65.163375   0.92908964 
   63900    225.35558   -888.34736    134289.31   -40745.188    2803.8518    -43549.04    65.248408   0.93003298 
   64000    226.77568   -866.68398    134378.34   -40729.341    2821.5207   -43550.862    65.519696   0.92941682 
   64100    227.56338   -782.04601     134502.5   -40636.911     2831.321   -43468.232    65.490768   0.92855887 
   64200    230.67054   -877.42148    134559.13   -40629.036      2869.98   -43499.016    65.479431   0.92816806 
   64300    237.75041   -868.19991       134754   -40534.951    2958.0671   -43493.018     65.72714   0.92682584 
   64400    230.11731   -973.44332    134711.84    -40579.38    2863.0968   -43442.477     65.87369   0.92711591 
   64500    234.14923   -882.07158    134602.64    -40566.74    2913.2616   -43480.001    65.363954   0.92786808 
   64600    232.15466   -961.68969       134632     -40628.3    2888.4453   -43516.745    65.566382   0.92766572 
   64700    229.74763   -1049.9521    134688.29    -40640.45    2858.4973   -43498.947    65.479412   0.92727801 
   64800    226.85833   -845.86881    134789.91   -40648.498    2822.5489   -43471.047    65.591466   0.92657891 
   64900    232.95026   -999.56219    134987.57   -40616.676    2898.3441   -43515.021    66.108543   0.92522217 
   65000    230.76261   -816.30145    134956.88   -40580.523    2871.1256   -43451.648    66.527026   0.92543256 
   65100    230.66536   -1010.2173    134770.14   -40614.297    2869.9157   -43484.213    66.243552   0.92671489 
   65200    233.12942   -919.22724    134824.92   -40604.452    2900.5732   -43505.025     66.25329   0.92633835 
   65300    235.14191   -946.71386    134797.28   -40596.203    2925.6124   -43521.815    66.455674   0.92652824 
   65400    234.94131   -971.81265     134898.3   -40540.312    2923.1166   -43463.429    66.326541   0.92583445 
   65500    233.48358     -989.479    134742.07     -40625.1    2904.9796    -43530.08    66.447993   0.92690794 
   65600    230.85359   -1024.4412    134808.83   -40670.416    2872.2575   -43542.673    66.413301    0.9264489 
   65700    227.80066   -936.08661    134706.64   -40719.018    2834.2732   -43553.292    66.326057   0.92715173 
   65800    229.42129   -1041.3508    134698.27   -40730.001     2854.437   -43584.439    66.559624   0.92720931 
   65900    230.67819   -933.40789    134594.69    -40706.79    2870.0753   -43576.865    66.622866   0.92792287 
   66000    231.35949   -810.30232    134608.31   -40614.412     2878.552   -43492.964    66.519448   0.92782895 
   66100    236.73977   -1037.1073     134594.5   -40565.043    2945.4928   -43510.536    66.510767   0.92792419 
   66200    237.29077   -1182.1238    134553.74   -40554.546    2952.3483   -43506.894    66.844181   0.92820529 
   66300    235.73945   -760.26351    134422.36   -40611.686    2933.0469   -43544.733     66.54598   0.92911248 
   66400    234.59514   -878.98307     134614.4   -40662.668    2918.8096   -43581.477    66.852945   0.92778703 
   66500    231.38254   -978.28257    134818.61    -40685.66    2878.8387   -43564.499    67.201914   0.92638171 
   66600    230.50665   -814.85295    134816.05   -40707.152    2867.9409   -43575.093    67.302206   0.92639931 
   66700    232.38224   -868.21453    134791.13   -40735.942    2891.2769   -43627.219    67.421687   0.92657054 
   66800    230.64881   -1053.2908     134870.2   -40675.613    2869.7097   -43545.323    67.489951   0.92602734 
[...]
   84600    226.31055   -1038.3639    135719.66   -40860.043    2815.7335   -43675.776    78.736921   0.92023141 
   84700    224.70248   -1086.8362    135842.85   -40871.154     2795.726    -43666.88    78.525234   0.91939686 
   84800    230.11415   -1110.1412    135623.59   -40846.143    2863.0575   -43709.201    78.345412   0.92088323 
   84900     226.7964   -974.52276    135720.43   -40826.175    2821.7784   -43647.953    78.283241   0.92022619 
   85000    227.81979   -799.95686    135699.74   -40760.699    2834.5114   -43595.211    78.336111   0.92036645 
   85100      230.727   -912.83736    135669.76   -40769.591    2870.6825   -43640.274    78.499656   0.92056986 
   85200    224.76864   -996.24874    135642.85   -40785.666    2796.5492   -43582.215    78.977709   0.92075249 
   85300    228.06695   -926.59753     135684.3   -40822.713    2837.5864     -43660.3    78.730471   0.92047118 
   85400     230.2377   -876.35847    135631.48   -40800.339    2864.5948   -43664.934    78.572294   0.92082965 
   85500    227.23409   -913.61431    135555.76   -40767.017    2827.2241   -43594.241    78.872254   0.92134402 
   85600     227.5062   -1080.1758    135509.93   -40729.113    2830.6097   -43559.723    78.732375   0.92165562 
   85700    230.38489   -823.12404    135664.02   -40762.918     2866.426   -43629.344    78.654437   0.92060883 
   85800    230.03102   -972.84498    135621.41   -40765.347    2862.0232    -43627.37    78.835346   0.92089807 
   85900    230.56315   -1054.2207    135514.73   -40664.883    2868.6439   -43533.527    78.641666   0.92162302 
   86000    228.46816   -1042.3012    135567.44   -40720.746    2842.5783   -43563.325    78.855657   0.92126469 
   86100     231.6217   -1072.6251    135493.87   -40708.069    2881.8143   -43589.883    78.718583   0.92176491 
   86200    230.86574   -939.93102    135566.12   -40669.845    2872.4087   -43542.254    78.947415   0.92127361 
   86300     230.4632   -1014.8089    135389.18   -40711.287    2867.4004   -43578.687    79.046086   0.92247765 
   86400    228.25328   -910.84957    135362.84   -40719.669    2839.9047   -43559.574    78.983614   0.92265716 
   86500    228.85211   -1039.7844    135272.07   -40702.663    2847.3553   -43550.018    78.957953   0.92327628 
   86600    234.26007    -841.8646    135527.09   -40641.671    2914.6406   -43556.312    79.196217   0.92153897 
   86700    232.83404   -847.75466    135588.34   -40622.941    2896.8981   -43519.839    79.588279   0.92112268 
   86800    226.74667   -960.74349    135578.14   -40688.916    2821.1597   -43510.076    79.422988   0.92119192 
   86900     230.5806   -872.92132    135623.22   -40655.958    2868.8611   -43524.819    79.427031   0.92088575 
   87000    232.39063   -840.71735    135525.27   -40666.127    2891.3813   -43557.508    79.361562   0.92155133 
   87100    227.74828   -839.16592    135608.55   -40708.337    2833.6216   -43541.958    79.579642   0.92098535 
   87200    234.41206   -935.60019    135590.88   -40708.745    2916.5317   -43625.277    79.453446   0.92110537 
   87300    231.99126   -918.37055    135637.74   -40719.635    2886.4123   -43606.047    79.801972    0.9207872 
   87400    232.46762   -1055.0288    135589.17   -40730.758    2892.3392   -43623.097    79.729849   0.92111703 
   87500    227.28633   -991.79307    135680.29   -40735.335     2827.874   -43563.209    79.691169   0.92049838 
   87600    227.44506   -1078.6256    135623.33   -40737.224     2829.849   -43567.073    79.829603   0.92088497 
   87700    230.16449   -864.86456    135372.02   -40753.905    2863.6839   -43617.589    79.715517   0.92259458 
   87800    229.56496   -847.30518    135452.27   -40728.404    2856.2245   -43584.629    79.891552     0.922048 
   87900    229.28034   -895.96821    135329.89   -40752.249    2852.6833   -43604.932    79.668733   0.92288178 
   88000    225.20736   -1123.6505    135227.28   -40772.329    2802.0077   -43574.337    79.721194    0.9235821 
   88100    228.16144    -963.4261    135177.75    -40689.22    2838.7621   -43527.983    79.543274    0.9239205 
   88200    231.66445   -996.98824    135224.12   -40662.532    2882.3462   -43544.878    79.710744   0.92360367 
   88300    229.80416   -1060.6065    135111.77   -40692.466    2859.2007   -43551.666    79.602431   0.92437164 
   88400    229.94436   -863.26029    135116.19   -40806.995     2860.945    -43667.94    79.288337   0.92434143 
   88500    234.14438   -926.89707    135157.97   -40704.347    2913.2013   -43617.549    79.502938   0.92405569 
   88600    234.78764   -890.50131    134979.14   -40666.746    2921.2046   -43587.951    79.506661   0.92527991 
   88700    228.54237   -849.43386    135053.56   -40630.009    2843.5016   -43473.511     79.83822   0.92477006 
   88800    232.87901   -993.95054    135026.75   -40562.231    2897.4576   -43459.689    80.326255   0.92495371 
   88900    236.02806   -971.58301    135185.21   -40602.964    2936.6378   -43539.602    80.459538   0.92386953 
   89000    235.68402    -968.8497    135102.79   -40589.565    2932.3572   -43521.922    80.444514   0.92443308 
   89100     225.6905   -970.34934     135039.5   -40682.027    2808.0189   -43490.046    80.245446   0.92486636 
   89200    224.40437   -944.96973    134938.41   -40711.374     2792.017   -43503.391     80.06451   0.92555927 
   89300    229.73444   -842.07473    135078.41   -40728.623    2858.3332   -43586.957    80.155689   0.92459992 
   89400     225.8827   -994.10417    135064.36   -40757.478    2810.4102   -43567.888    80.145382   0.92469611 
   89500     230.5687   -794.11417    135032.69   -40801.293     2868.713   -43670.006    80.400732   0.92491304 
   89600    222.47401   -938.02866    134999.74   -40852.568    2767.9996   -43620.568    80.631932   0.92513876 
   89700    225.49598   -883.83995    135130.13   -40814.583    2805.5988   -43620.182    80.554792   0.92424608 
   89800    226.37633   -851.19319    135304.37   -40774.032    2816.5519   -43590.584    80.630921   0.92305586 
   89900    226.18093   -998.77816    135121.61   -40838.719    2814.1208   -43652.839     80.52449   0.92430434 
   90000    231.47099   -1044.4429    135251.86   -40749.082    2879.9392   -43629.021    80.532226   0.92341421 
   90100    230.45337   -937.06071     135327.4   -40751.934    2867.2781   -43619.212    80.809459    0.9228988 
   90200     227.7874    -895.2241       135197   -40801.865    2834.1083   -43635.974    80.664245    0.9237889 
   90300    228.59255   -898.53971    135153.22   -40818.755     2844.126   -43662.881    80.632017   0.92408814 
   90400    227.05263   -1051.0174    135041.96    -40802.01    2824.9664   -43626.976    80.583879   0.92484954 
   90500      226.329   -801.13757    134959.06    -40767.49    2815.9631   -43583.454    80.424947   0.92541763 
   90600    236.15947   -880.81136     134939.1   -40663.414    2938.2727   -43601.686    80.645408    0.9255545 
   90700    231.66189   -980.14676    134880.18   -40671.246    2882.3143    -43553.56    80.384007   0.92595883 
   90800    231.43397   -880.20032    134943.68   -40706.746    2879.4786   -43586.225    80.793817   0.92552311 
   90900    227.76506   -963.10927    134910.01   -40803.045    2833.8304   -43636.875    80.517836   0.92575409 
   91000    225.57915   -850.36979    135012.55   -40821.391    2806.6335   -43628.024     80.50032   0.92505098 
   91100    224.23847   -822.69663    135200.07   -40805.188    2789.9529   -43595.141    80.692271   0.92376792 
   91200    225.29037   -1002.3312    135233.48   -40773.678    2803.0406   -43576.718    81.110348   0.92353976 
   91300    230.67606   -1055.9862    135055.04   -40669.384    2870.0488   -43539.432    81.125182   0.92475993 
   91400    236.62942   -908.96183    134972.06   -40647.127    2944.1198   -43591.246    80.962551   0.92532849 
   91500    231.98546   -869.02353    135187.73   -40647.378    2886.3402   -43533.719     81.30662   0.92385226 
   91600    228.69746   -958.17849    135078.77   -40684.376    2845.4312   -43529.807    81.433969   0.92459746 
   91700    231.23764   -913.50287    135023.25   -40763.627    2877.0359   -43640.663    81.431199    0.9249777 
   91800    229.34625   -871.48807    134905.92   -40736.379    2853.5034   -43589.883    81.366185   0.92578217 
   91900     227.7789   -1093.4206    134988.17   -40734.788    2834.0026   -43568.791    81.385023   0.92521806 
   92000    231.43928   -759.55903    134965.83   -40767.058    2879.5447   -43646.603     81.23924   0.92537121 
   92100    225.30015   -848.06531    135168.13   -40812.835    2803.1622   -43615.997    81.475199   0.92398621 
   92200    229.75466   -792.55338    135223.38   -40749.637    2858.5847   -43608.222    81.925555   0.92360872 
   92300    232.97714   -966.95426    135271.76   -40676.307    2898.6785   -43574.985    82.160244   0.92327837 
   92400    236.99422   -1036.8125    135121.74   -40689.137    2948.6586   -43637.795    81.748021   0.92430347 
   92500    231.92829   -985.16081    134866.53   -40749.888    2885.6288   -43635.517    81.887129    0.9260525 
   92600     229.2646   -898.53256    134822.81   -40711.231    2852.4875   -43563.718    81.734659   0.92635281 
   92700    232.17594   -1033.7818     134895.6   -40702.064    2888.7101   -43590.775    81.908813   0.92585298 
   92800    229.92977   -1103.0255    134888.49   -40753.839    2860.7635   -43614.602      81.8149   0.92590179 
   92900    234.37455   -1029.7409    134794.61   -40729.697     2916.065   -43645.762     82.05874   0.92654665 
   93000    229.01314    -916.5973    134631.35   -40767.438    2849.3589   -43616.797    82.066518   0.92767023 
   93100    234.64532   -961.40745    134730.55   -40720.484    2919.4339   -43639.918    81.887891    0.9269872 
   93200    233.05649   -926.58218     134896.7   -40727.155    2899.6658   -43626.821    82.037733    0.9258454 
   93300    229.05481   -1131.3929    134801.12   -40763.649    2849.8773   -43613.526    82.051773    0.9265019 
   93400    226.17316    -861.0334    134819.37   -40794.934    2814.0241   -43608.958    82.344297   0.92637648 
   93500    224.98896   -799.13233    134899.99   -40831.643    2799.2904   -43630.933     82.50958   0.92582281 
   93600    225.20613   -811.32048    135014.56   -40898.587    2801.9925    -43700.58    82.705601   0.92503719 
   93700     229.6284   -969.08108     134987.8   -40866.123    2857.0139   -43723.137    82.560035    0.9252206 
   93800    228.61843   -847.91796    134893.97   -40843.011    2844.4479   -43687.459    82.513139   0.92586412 
   93900    230.34674   -1011.5457    135093.36   -40819.759    2865.9513   -43685.711    82.697923   0.92449763 
   94000    225.85066   -1063.2225    135186.05   -40838.728    2810.0116    -43648.74    82.748864   0.92386373 
   94100     227.4416   -886.47857    135243.43   -40841.368    2829.8059   -43671.174    82.682168    0.9234718 
   94200    232.55268   -948.33296    135382.26   -40833.689    2893.3974   -43727.087    82.481751    0.9225248 
   94300    229.22235   -894.07306    135491.81   -40794.211    2851.9618   -43646.173    82.641355   0.92177892 
   94400    234.14204    -1000.932    135352.01   -40791.601    2913.1722   -43704.773    82.569343   0.92273098 
   94500    233.82653   -936.61795    135331.14   -40731.202    2909.2466   -43640.449    82.680485   0.92287326 
   94600    232.98739   -877.34266    135289.29   -40789.165    2898.8061   -43687.971    82.772808   0.92315878 
   94700    230.52827   -1031.9353    135263.09   -40834.853    2868.2099   -43703.063    82.914464   0.92333755 
   94800    231.37503   -1062.6559    135216.72   -40823.534    2878.7452   -43702.279    83.098772   0.92365417 
   94900    229.40512   -957.21607    135182.46   -40799.504    2854.2358    -43653.74    82.853177   0.92388826 
   95000    231.87555   -1003.6221    135314.01   -40775.183    2884.9726   -43660.156    83.084344    0.9229901 
   95100     231.2704   -875.26581    135150.47   -40755.585    2877.4435   -43633.028    82.726416   0.92410695 
   95200    230.83166   -1139.7693       135128   -40782.179    2871.9846   -43654.164    82.630332   0.92426067 
   95300     231.8206   -951.50095     134963.2   -40678.642    2884.2889   -43562.931    82.737532   0.92538921 
   95400    233.08578   -964.06724    134859.95   -40740.775    2900.0303   -43640.805    83.123452   0.92609773 
   95500    230.57114   -1030.3053    134978.38   -40747.689    2868.7433   -43616.432    83.118327   0.92528514 
   95600    230.66145   -848.63587    135087.49   -40721.783    2869.8669    -43591.65    83.092724   0.92453784 
   95700    231.54582   -1102.2999    135006.14   -40796.994    2880.8702   -43677.864     83.17426   0.92509489 
   95800    225.96067   -981.97747    134857.55   -40859.696    2811.3803   -43671.076    83.334214   0.92611422 
   95900     233.7096   -773.09724     134917.6   -40823.811    2907.7918   -43731.603    83.245043     0.925702 
   96000    232.36303   -982.65534    134743.66   -40908.574    2891.0378   -43799.612    83.118952     0.926897 
   96100    229.55339   -933.35062    134724.59   -40845.064    2856.0806   -43701.144    82.984976   0.92702819 
   96200    229.13169   -1148.2871    134779.72   -40888.077    2850.8339   -43738.911    83.315508   0.92664902 
   96300    229.49412   -856.25884    134684.82   -40830.726    2855.3432   -43686.069    83.531505   0.92730191 
   96400    230.25945   -895.39127    134853.57   -40800.149    2864.8653   -43665.015    83.739433   0.92614152 
   96500    232.24831   -969.81256    134862.16   -40852.555    2889.6105   -43742.166    83.723462   0.92608256 
   96600    228.33326   -898.01826    134832.67   -40842.481    2840.8998   -43683.381    83.768079   0.92628507 
   96700    226.45795   -1047.1451    134947.52   -40917.061    2817.5674   -43734.628    83.934516   0.92549677 
   96800    226.91899   -904.27244    134956.31    -40962.04    2823.3036   -43785.344    83.870829   0.92543644 
   96900    226.65778   -1079.3182    134827.79    -40902.89    2820.0537   -43722.944    83.548017   0.92631859 
   97000    228.44038   -996.11338       134724   -40894.418    2842.2327   -43736.651    83.271957   0.92703221 
   97100    226.77131   -942.13408    134702.86    -40880.36    2821.4663   -43701.826    83.306135   0.92717773 
   97200    225.41099   -904.13733    134856.94   -40882.832    2804.5413   -43687.373    83.772666   0.92611838 
   97300    227.56485   -882.28253    134987.27   -40871.676    2831.3394   -43703.015    83.947406   0.92522419 
   97400    225.23117   -866.24099    134972.53   -40872.523    2802.3039   -43674.827    83.918234   0.92532527 
   97500    232.49097   -959.54055    135299.77   -40767.675    2892.6297   -43660.305    83.943671   0.92308726 
   97600    229.28315   -1143.8185    135209.22   -40836.081    2852.7183   -43688.799    83.916259   0.92370546 
   97700    231.14321    -1076.849    135016.57   -40753.396    2875.8609   -43629.257     84.04047   0.92502341 
   97800    234.38359   -1017.1488    135178.27   -40726.397    2916.1774   -43642.575    84.244047   0.92391694 
   97900     231.8592   -868.07645    135272.76   -40679.661    2884.7692   -43564.431    84.032607   0.92327158 
   98000    234.57881   -929.88624    135340.51    -40708.37    2918.6064   -43626.976    84.029405   0.92280939 
   98100    229.75765   -905.64128    135306.82   -40787.214    2858.6219   -43645.836    84.084459   0.92303917 
   98200    230.79021   -965.83757    135318.85   -40752.382     2871.469   -43623.851     84.19489   0.92295708 
   98300    226.32709   -1003.3663    135199.03   -40773.786    2815.9392   -43589.725    84.205159   0.92377505 
   98400    226.92657   -924.38294    135068.12   -40793.018    2823.3979   -43616.416    84.541778   0.92467038 
   98500    227.72321    -953.5161    135026.73   -40802.478    2833.3096   -43635.788    84.395814   0.92495384 
   98600    231.12771   -986.75456    134875.85   -40822.386    2875.6682   -43698.054     84.18465   0.92598852 
   98700    224.57379   -1011.6129    134959.17   -40879.422    2794.1249   -43673.547    84.600897   0.92541689 
   98800    222.84713   -1028.8458    134923.72   -40833.117     2772.642   -43605.759    84.737644   0.92566001 
   98900    227.14888   -990.74351    134810.85   -40838.374    2826.1639   -43664.538    84.879568   0.92643499 
   99000    228.10721   -863.25653    134714.24   -40870.658    2838.0873   -43708.745    84.834074   0.92709942 
   99100    229.50321   -905.53527    134791.26   -40775.487    2855.4562   -43630.943     84.90109   0.92656964 
   99200    231.01297   -882.65279    134697.33   -40770.456    2874.2405   -43644.697    84.977586    0.9272158 
   99300    232.41369   -1016.4317    134880.07   -40723.569    2891.6682   -43615.238    85.038132   0.92595955 
   99400    231.90924   -844.66236    134861.64   -40696.188    2885.3919    -43581.58    85.099904   0.92608613 
   99500    234.67488   -946.19649       135173   -40569.807    2919.8016   -43489.609    85.182714   0.92395291 
   99600    232.92885   -909.34493    135116.99   -40602.413    2898.0777    -43500.49    85.073512   0.92433597 
   99700    235.15081   -828.93387    135178.33   -40605.955    2925.7231   -43531.678    85.233905    0.9239165 
   99800    231.26973   -913.41725    134958.52   -40631.951    2877.4351   -43509.386    85.153382   0.92542131 
   99900    226.20319   -1011.7641    134887.54   -40685.875    2814.3978   -43500.272    85.294894   0.92590827 
  100000    233.40443   -795.19795    135007.71   -40688.387    2903.9949   -43592.382       85.515   0.92508413 
  100100    235.08284   -941.00137     134992.9   -40615.565    2924.8774   -43540.443    85.749295    0.9251856 
  100200    229.52319   -932.37983    135091.47   -40610.967    2855.7048   -43466.672    85.550315   0.92451055 
  100300    231.28133   -985.09993    135135.35   -40588.736    2877.5794   -43466.316    85.311148   0.92421035 
  100400    233.11305    -931.2366    135026.42   -40630.307    2900.3695   -43530.677    85.403004   0.92495595 
  100500    234.68926   -992.57988    134927.83   -40553.516    2919.9806   -43473.496    85.436579   0.92563179 
  100600    230.35088   -1095.8214    135041.59   -40650.986    2866.0028   -43516.989    85.507728   0.92485203 
  100630     233.5638   -1036.9236     135006.9   -40634.754    2905.9777   -43540.732    85.446451   0.92508968 
Loop time of 79.6933 on 6 procs for 100000 steps with 4175 atoms

Performance: 542.078 ns/day, 0.044 hours/ns, 1254.810 timesteps/s
98.3% CPU use with 6 MPI tasks x no OpenMP threads

MPI task timing breakdown:
Section |  min time  |  avg time  |  max time  |%varavg| %total
---------------------------------------------------------------
Pair    | 61.291     | 62.104     | 62.881     |   6.4 | 77.93
Neigh   | 5.2101     | 5.2398     | 5.2863     |   1.1 |  6.57
Comm    | 8.7716     | 9.5434     | 10.367     |  16.4 | 11.98
Output  | 0.1746     | 0.17582    | 0.1814     |   0.6 |  0.22
Modify  | 1.9439     | 1.9504     | 1.9634     |   0.5 |  2.45
Other   |            | 0.6798     |            |       |  0.85

Nlocal:        695.833 ave         705 max         683 min
Histogram: 1 0 0 1 1 0 0 1 0 2
Nghost:        1454.67 ave        1477 max        1443 min
Histogram: 3 0 0 1 0 0 0 1 0 1
Neighs:        0.00000 ave           0 max           0 min
Histogram: 6 0 0 0 0 0 0 0 0 0
FullNghs:      18788.3 ave       19096 max       18445 min
Histogram: 1 0 0 1 1 0 2 0 0 1

Total # of neighbors = 112730
Ave neighs/atom = 27.001198
Neighbor list builds = 5689
Dangerous builds = 0

undump              1
unfix               2
unfix               3
unfix               4


################################################
#######         Run Simulation         #########
################################################

reset_timestep      0
log                 log.run_${NAME}
log                 log.run_liquid_density_MLmW
