LAMMPS data file via write_data, version 29 Oct 2020, timestep = 800000

4175 atoms
1 atom types

-0.06176955605963386 50.061769556050066 xlo xhi
-0.06176955605963386 50.061769556050066 ylo yhi
-0.06176955605963386 50.061769556050066 zlo zhi

Masses

1 18.015

Atoms # atomic

2783 1 5.583207076218626 2.9392874015280146 1.0317834839681446 2 0 0
3443 1 9.880634701010559 2.7047407183186696 1.905195471876981 0 1 0
558 1 11.531081476889959 1.1323542356082466 0.3236655649747095 1 0 1
2597 1 13.975352883200875 0.2748392151307517 1.2031392840088626 0 1 0
3448 1 14.666285624503706 2.8259209362972735 1.7135479188638334 0 -1 1
3734 1 42.147769964757586 0.014997005167374844 4.392088679521255 1 1 1
403 1 18.60214384341611 0.4184342537148075 2.054218705953916 1 -1 -1
4028 1 6.303802525263764 -0.012280069868839956 3.1053320995903118 0 1 0
2106 1 24.940198448812033 3.050121174203015 1.5697048654783992 0 1 0
670 1 29.08352013911645 1.868906885791186 1.3307638743787815 0 0 1
1400 1 33.38040519055677 1.9832119008877536 3.972640537311648 1 1 0
215 1 28.918686808009845 15.826536430393274 0.30558541776832526 0 -1 0
3091 1 31.235581606757293 24.73209510511776 1.213196879167794 0 0 0
295 1 37.319316321957515 1.5320786304331262 3.9046546679082397 0 1 1
940 1 36.37626247949851 1.3467029778668638 1.0616572501368042 0 0 1
2524 1 8.082496021552124 0.12057247917710473 9.38426282382179 1 2 -1
3512 1 22.510337311118764 20.45037204329337 0.648372175877706 1 0 1
230 1 12.292185584094423 23.09288535539875 15.659282264028699 0 -1 0
2306 1 0.8483610508869951 0.6972397389954962 2.0158637748946497 1 1 0
2927 1 1.8451717140015795 4.109647251197831 2.7812642502841176 1 1 0
538 1 6.527164707229333 5.799120825951167 3.3334630733505946 1 0 -1
3822 1 10.343294472316177 6.402043006668325 2.7058650800185244 -1 1 1
3787 1 12.270842854524306 4.373404596699956 1.8654102497511886 0 1 0
1051 1 19.097150446656634 3.323561963692722 2.3914966024812774 0 0 0
3987 1 40.664947536926235 9.760851517021203 0.6905393104924246 0 1 0
2850 1 27.6505602902964 24.32037004337078 1.2851081635699906 -1 -1 0
1644 1 22.174826768754638 2.535058516700048 2.6173769223545125 0 1 -1
606 1 27.379284710733636 3.5450724328827032 3.0527185791300067 0 0 0
2520 1 23.377630530738962 5.311772040371221 3.178748677038988 0 1 0
3696 1 10.283851882285326 24.440330752403778 14.026302387478864 0 -1 1
1786 1 38.82055503387569 24.168317063389477 10.950204885741744 0 0 1
222 1 35.57757353776769 3.871492624715413 3.488173570359881 0 0 0
1847 1 44.76815617475184 3.080678952880639 0.6430963697141577 -1 1 1
4061 1 46.029204530135786 6.524559479385036 1.946052074927604 0 1 1
1660 1 49.02349122170024 3.0914988805763395 1.876863450137473 0 0 1
2098 1 48.88835760703047 6.020692400404521 1.765034411207702 -1 0 1
1237 1 3.932877745229264 5.4189735481748915 1.0675000608686933 1 1 1
2555 1 7.787305241162411 7.684206757895635 1.281745305922927 1 0 0
484 1 31.83389289701269 12.355714871923377 0.5408046460864412 0 0 1
2685 1 11.405417745677731 9.037369907068456 2.460627378928125 0 1 0
2957 1 15.21112071067585 5.911018271939923 1.3398408737288425 1 2 0
3136 1 21.17852343780855 6.773379837391745 3.4905458165057817 0 0 0
3996 1 20.194056777317027 7.568795438652396 1.2070354841018915 0 1 1
3308 1 24.341665182119442 7.925223643737176 2.0370396880724937 1 1 2
849 1 27.468833748979225 6.275749093069037 2.2533135283070935 0 0 0
4016 1 31.95650785551071 24.945652954447542 9.5575527162952 0 0 0
624 1 36.90777285127747 10.072401261087416 3.1588799645611383 0 -1 0
3361 1 39.78058591091346 5.460765839121901 3.6986873082199114 -1 1 0
1244 1 43.70550162664041 7.663165903812283 1.1961963919940726 -1 0 1
1611 1 42.76267056771182 8.11374067129709 3.8067970176762786 0 0 0
3820 1 48.211649764451934 9.744205106149321 2.012227144345426 0 1 0
2002 1 46.50197543249908 8.568508548485687 3.584708149187659 0 0 1
2212 1 6.027916080479257 11.855516032423672 1.1702232359662845 1 0 0
3110 1 7.497970239730189 10.040695138952122 2.6882003814974125 1 1 0
2197 1 9.82127328055637 10.828414351496942 3.6788430673008707 0 0 -1
2305 1 10.775974649876224 13.16660263600104 2.667261770135187 1 0 0
1586 1 38.023693574357935 11.675643102803559 0.8271588796906325 1 0 1
718 1 17.630118659691995 11.437135227494979 2.058008669958938 1 0 1
1619 1 20.013272278873696 13.583189219337873 3.3539110431000605 0 0 0
1464 1 22.99131940503627 9.660993812894969 3.845313050235342 0 1 1
3168 1 26.93926031449474 9.286465499498792 2.1405097973350156 0 0 1
838 1 26.11415126724832 11.990733029608272 2.417372209702489 1 -1 0
1372 1 25.298824602347178 24.75027081237423 15.259983965565114 0 0 0
2097 1 34.437275971021776 19.0547872252008 0.3857665985563009 0 0 1
363 1 30.903847749305 22.403624739497275 13.836425312142444 1 0 -1
3615 1 39.88459508303913 8.305626782705929 2.878199977286418 -1 0 0
720 1 45.93560358415695 23.601967708629758 0.34539689184128297 -1 -1 1
3035 1 0.634294776365981 9.218835679473601 3.0035050276546698 1 0 1
2120 1 30.241312630236035 21.714795283268465 2.8878211837704217 0 1 0
856 1 32.705893905652644 23.508481594187135 7.519791621805298 0 0 1
1319 1 1.6550410151420365 15.062547265835663 2.5153456499397704 1 0 2
2210 1 4.808560344571701 14.359534781650815 1.7704819724320526 0 0 0
3526 1 3.7434115467011444 14.180514653912343 4.517682739463907 -1 1 2
2954 1 8.0370597577453 14.180608235617193 1.608005237378662 -1 1 1
271 1 8.136398189675678 15.129553006713865 4.226631181836283 1 0 -2
899 1 23.9142132387178 1.199657809432789 12.13679314500489 0 0 1
2195 1 19.805410462948927 15.140940173855563 0.596555011702109 1 1 0
411 1 21.50165066217586 16.186368913882372 3.421636343309063 0 0 0
962 1 22.479270707819705 11.823947170469218 1.8268699752890558 0 0 0
1029 1 11.738798018550396 21.72342186499711 0.47854141134828354 0 0 1
1939 1 28.444147052832008 13.771539420847171 1.959056754611773 0 0 1
2500 1 30.717506341967766 12.937303723112938 3.044765379783858 -1 1 0
2773 1 34.024744739262175 13.90524863922718 0.5597379270479494 0 1 1
4128 1 40.916077499695874 0.33838178302530164 6.954393355982385 -1 1 1
2079 1 40.355819275467525 13.1623055552956 1.7519033236028523 0 -1 1
1987 1 3.6964991849268465 -0.024166829275897597 15.314791006608775 1 1 1
3118 1 45.45266741965037 13.439263820730577 0.8300544968448548 0 1 1
2828 1 2.39302349238425 17.850151555157353 1.8114364515907901 1 1 1
3922 1 4.9609660033308725 17.278187807936288 1.9372529612251776 0 0 1
1697 1 7.872848694289316 17.781840567781423 3.7211278450826017 2 0 0
798 1 12.613096743714745 17.723228082101308 2.2562835205199363 -1 0 0
1870 1 10.640820334902347 19.0353813575101 0.8523229342153343 1 0 0
2318 1 15.957466152987173 17.726862359275017 1.6641073510453823 0 0 0
1171 1 18.13275311296433 16.313468542015343 2.8076620136957793 0 1 1
2742 1 20.219359155204696 17.931148823126907 1.1225882166335606 1 0 0
1480 1 20.84157468897516 24.1267969668623 5.33762976906531 0 0 1
1532 1 3.9262553540975373 24.572818107691898 11.807186151512425 0 1 0
3781 1 27.47556565924631 15.739264566649076 3.6977074300672577 0 0 1
53 1 25.301717338907 16.211131298807235 2.4330147037514673 -1 0 0
1344 1 31.756129388426633 15.354159943522081 3.958665286859614 -1 0 0
3094 1 34.254640314294605 13.47265616333235 3.385969428347809 0 1 1
2548 1 36.6597756206145 18.400446715825023 2.0905943682745507 0 -1 0
2527 1 39.51960445427635 18.87507769659183 1.956253601665865 0 0 0
1551 1 43.904745263579485 0.5777104853249877 0.6686401085862147 -1 0 1
3663 1 43.51620513347363 17.763504086433674 3.94315743283666 0 1 0
2649 1 41.79688635560727 17.0527896606442 1.889575974488748 1 1 0
3593 1 45.40865468347428 16.07863682670694 2.040898397536458 -1 1 1
2919 1 48.028204690835224 17.913552823928367 0.6343847916572761 0 0 1
436 1 27.0599535787705 22.457989946368343 15.515312274921886 0 0 0
3777 1 3.321455024609896 22.626099407931147 2.346625123981477 1 -1 1
2230 1 5.36087293902404 21.403752933097305 3.8179553968907447 -1 1 1
861 1 7.229487515781213 21.203127850485444 1.6529715063463113 1 1 0
651 1 9.803491574164225 20.959262260207325 3.0491366283160195 -1 -1 -1
406 1 33.61683826248063 0.38323968915357853 15.366911221797551 -1 0 -1
952 1 13.684687764329816 22.08257671611219 2.52532188013777 0 0 0
3584 1 3.7801204382828715 9.823385755650543 0.013221083782257295 2 0 2
2979 1 32.94777201064004 24.46513636548803 16.23316308079597 -1 1 0
1424 1 19.165702170929173 22.728540320807557 1.8590375283031515 1 -1 0
1647 1 21.609294322867115 22.520863485771017 3.269989933972875 1 0 1
2089 1 18.217132255462367 5.323152986449411 0.44982716777773224 -1 1 1
1250 1 35.995181152044026 4.637347938882127 0.9063301445798101 -1 -1 1
200 1 30.62683383885953 17.326971841805655 2.207006203502327 1 0 0
2304 1 33.28689091991373 21.065035166963103 1.7587999204044864 0 1 -1
417 1 19.192710910175563 20.53076862930609 0.1705016268051002 0 0 0
1859 1 38.90941707057529 21.69481367238718 1.1611577888473377 0 0 1
2293 1 46.82473718058543 20.668269364734925 1.233672708280117 0 0 0
2412 1 43.819119443269386 20.102222695326912 1.573428490090496 0 0 1
1146 1 8.034048800910536 24.60114642574412 4.709193085366547 0 -1 1
1962 1 10.218990096506536 23.472282339505252 3.955188634046144 -1 -1 0
2480 1 7.499083309809943 23.406624075659774 0.09274761441745219 0 0 1
1774 1 37.60781581130037 15.996104683154801 1.3291397406465264 0 -1 2
2310 1 15.62303652279132 22.498068425980566 0.6336289981498371 1 0 1
890 1 19.891481287385172 12.10333644094999 0.417284130532247 1 0 0
3214 1 42.90007982245335 11.98365764844926 1.1692654712552233 0 0 0
1685 1 24.20847962472204 23.181004720385328 2.1419530530459743 0 0 0
283 1 31.003810226121 8.319023312654975 0.08489687948407867 1 0 0
96 1 29.58380829970507 23.454410063176585 16.357688537431173 0 -1 0
315 1 36.13765598373932 22.108765786146442 1.2409347279573808 0 0 1
3281 1 25.07036399970529 19.291048440180237 1.412141030806074 -1 0 1
4147 1 42.97209225171858 23.0648336506573 0.5874649058536623 -1 0 1
1377 1 22.39333434670041 24.913086088827374 8.080043138077002 0 0 0
1373 1 19.55796332081227 24.185795845249604 14.945181550240903 0 -1 1
3294 1 0.4808084614909912 22.14784477363208 0.9779413525514016 0 0 1
966 1 12.496266048461258 9.508507811451274 -0.002656158251002627 0 0 0
628 1 2.2706723791056835 0.8466892349219495 5.395322374863654 0 0 0
3176 1 24.109940902340647 1.5864456502368642 9.286470047685366 0 1 0
3830 1 4.2205015079617265 0.5985981167034353 7.608606865109417 0 1 0
1842 1 5.598543676622669 3.1211122161865728 3.6622523639982654 0 0 0
3991 1 8.558907452030969 1.734567892151837 4.065600079082234 0 0 1
2897 1 10.342625479905879 3.36564299898743 6.146855563378293 1 0 1
1144 1 12.997332093682953 3.35552374639048 4.755273696220792 1 1 0
6 1 16.607772375281826 2.6994474503153896 3.7855575888664768 0 1 -1
3711 1 17.168055902734025 1.6002266221710115 6.754124812333105 0 0 1
3602 1 22.087124535548767 0.8982801412007091 4.925861506860129 0 1 1
2350 1 27.258656407361038 1.6110366285139877 5.199409519690803 1 1 -1
1993 1 29.825268448807275 3.5021979574387427 6.7660156548399835 -1 1 1
3142 1 34.031607593505925 0.04624669164171201 2.1064958670962612 0 1 1
643 1 33.954690099904454 1.742059966679091 6.820814149796975 0 1 0
4063 1 41.0513255166331 0.8903322187837921 13.575012927417935 0 0 1
93 1 34.394054924395206 4.508834539457747 7.477993836563686 1 0 1
1177 1 38.12749551138994 2.983966284408411 6.065528706788727 1 0 1
4062 1 1.1935547053805433 0.5196837932371635 16.218608960630963 0 1 0
1245 1 42.374260702158594 3.697760829976825 2.691230910679112 0 2 1
1044 1 39.22177003097519 2.978679263282218 2.6584561695219793 -1 0 0
286 1 46.13016205236494 1.9438150544124553 3.5084017305477313 0 0 0
1943 1 12.579230453347128 0.024251946422010548 8.09912712052058 0 -1 0
3657 1 48.61233910592486 2.727169760480695 4.60960250009551 -1 0 1
978 1 3.222983023489446 3.396922521354629 5.033100980253283 0 0 0
2972 1 7.376670567413998 3.5481957088114897 6.217316636595907 0 1 1
585 1 4.112769692683387 6.1965585267607315 6.759761627135312 0 1 0
3000 1 7.120649806273058 6.4984889882004575 6.330234811606311 0 1 1
700 1 9.878901912243212 5.882461035473531 5.383430279258373 1 0 0
1364 1 15.14337702680749 4.888819101368677 5.638388780771563 0 1 0
858 1 22.486297089620795 3.833676615805486 5.8539963691897645 -1 -1 0
164 1 19.947864242294497 4.518899922081573 4.806491943265582 1 0 1
384 1 26.82901424880959 3.8018213990766916 7.386174008038447 0 1 0
3981 1 29.963725793953103 6.121263298759192 3.559477145711 0 1 1
3909 1 31.905418964460335 4.642556499220131 2.5935092681531198 0 1 1
1995 1 34.094601766710596 6.560900648223718 2.9872498730607138 0 0 1
3795 1 35.16483715660824 6.846780740280616 6.207315336499077 1 1 1
2112 1 37.692484515004125 5.941932178214098 5.625243411802818 -1 -1 -1
1802 1 42.23298254251962 5.818030588638904 5.276442360101676 -2 0 1
379 1 45.00014625990238 4.422956974800648 3.4239110329884124 1 -1 0
4073 1 0.4942881464504205 3.8364114389668953 6.289928679612949 0 1 1
928 1 3.710688317681694 6.59679603330929 4.053910671648736 0 0 1
1788 1 6.846540751216524 9.175780601904803 5.61771376258182 0 -1 0
1696 1 11.907290207442419 7.664947000530326 6.896821352963108 0 1 1
3009 1 13.097629480534616 8.673658151952681 4.534098709241775 0 1 0
1211 1 15.597010368988927 7.053147214086296 4.025552074045761 1 0 1
3117 1 18.197871641260797 8.98371032013307 2.98714380187172 2 1 1
1263 1 18.035870392242053 7.112630901824215 5.466484240964916 0 0 1
597 1 20.483990083545372 9.066980923443955 5.111043702271777 1 -1 0
1679 1 25.245066093614042 5.760582218102346 5.56785298450632 2 0 0
483 1 27.227533720938407 7.773349072592373 4.993164427722986 -1 0 -1
2744 1 30.818524591670705 8.598419219040611 3.195606521883403 0 -1 0
3372 1 34.937879104737135 8.799814423268927 1.5260588254122924 0 1 0
3081 1 39.054982474261394 6.9287599826555235 7.87145000546389 -2 1 1
1756 1 44.75060600021324 10.076399630907293 5.07054749387953 0 1 1
2226 1 46.849032575839615 6.995714093160701 6.086791117309373 -1 0 0
1106 1 48.38166229680289 12.106224605191581 5.7149401093303975 1 -1 1
1832 1 0.6730778343288005 6.434475585225557 3.6913235289998907 1 0 1
242 1 49.53964177201769 6.690151788872911 6.536528000170353 -1 -1 0
3138 1 3.492508976479083 11.594888153193073 4.962085747866036 0 1 0
2257 1 4.93564597094634 10.623091035553296 7.115264155097796 1 0 0
4118 1 3.4905056321347567 9.28602152018162 2.899996121343743 0 2 0
3326 1 6.973854279151461 12.613474142252436 7.6069020326827665 1 1 1
636 1 9.019098985045702 10.858887406124946 6.532293416122954 0 0 0
3664 1 14.06023930831004 11.170752047329849 4.784751157946569 0 1 -1
3223 1 16.692484154224147 10.784429489924792 5.245738394838604 0 1 1
1401 1 21.026749049925783 11.98634917886917 5.7030698508274975 0 0 1
727 1 25.074603719533535 11.681332999903244 4.9334006273038415 0 0 0
258 1 29.009242896897696 10.526733272819225 3.8093919716535423 1 0 1
1346 1 33.3397334771587 8.644588878131701 4.550159351738993 0 0 0
1399 1 34.74786618951714 11.069038819919747 4.841386527017152 -1 0 0
898 1 35.60687258424417 11.119863800473762 7.411719061123932 -1 -1 0
2399 1 40.42211916738 10.209355319812012 4.931551471357904 1 1 0
1835 1 44.78170004932181 11.56597317809185 7.474498289129666 0 0 1
685 1 49.41108887937865 14.740749491268437 3.8998979183329467 -1 0 -1
1019 1 6.159635837653094 14.696961509115555 6.109366047297714 0 0 0
1762 1 10.376666864803884 14.970513369496382 5.495596544394773 0 0 2
108 1 12.682915911506827 15.356808258338294 3.86604754833162 0 0 0
2638 1 10.911365217728003 13.137335319619192 7.28234643355378 1 1 -1
1617 1 14.516687138971758 13.44455925468633 3.167365441763656 0 1 1
837 1 17.265415281772174 13.466520400941697 4.276756827451198 1 1 1
1077 1 21.30194195798998 16.344111403921044 6.134393607466752 0 0 0
3074 1 23.3575130087655 14.351283521051924 3.0119254604242465 0 -1 0
89 1 28.79287852324239 13.525010320078987 7.113529190732314 0 0 0
3806 1 32.003298674019746 11.8237656297493 5.340755869733832 1 0 0
2411 1 34.37584998363245 16.01437249184894 5.089289130474166 -1 0 0
388 1 39.56873601544882 15.526199464174995 3.143680210265123 0 1 0
3516 1 38.768112576195335 15.006388455561268 5.672238638953409 1 1 0
1637 1 41.69364970586918 12.551222084803447 4.48078379821847 0 0 1
1722 1 44.26758028417535 12.037008101391113 3.585943808022811 0 0 0
520 1 0.8795433569377414 14.209359286963222 5.8110241989074245 0 1 0
2046 1 48.974076163809315 17.489462019326805 3.4748704221687077 0 -1 2
1511 1 5.2200284936146915 18.798364847968895 4.462236880222181 -1 -1 1
109 1 5.807155429653516 16.403962748746086 8.037036241054807 0 0 0
2994 1 10.400412428394999 17.314379923597475 6.84655647442324 0 0 1
296 1 9.416544612018622 19.223911024711136 5.099468445556587 1 0 -1
3231 1 14.022517997363096 16.257932146503343 5.992415686838797 -1 1 0
1726 1 18.66550559895726 17.24184026219384 5.477176050276634 0 0 0
4138 1 16.051467976381836 18.43111081854221 5.927200235465025 0 1 0
1581 1 21.645049702592214 19.636917010074765 3.2317987354136624 0 0 0
784 1 19.670808837912407 19.886346744441614 5.407393994470721 0 1 0
1905 1 23.943736474423932 18.392503467328915 4.177259467659681 0 -1 1
335 1 26.06925284088747 14.646171911255443 6.192763410291922 0 0 0
609 1 29.627902394402998 16.155606029352356 5.570774428469339 1 0 -1
525 1 32.579157416223524 16.565863467237772 7.121993134164433 1 0 0
716 1 35.57801064016529 18.24405249885313 4.452180690591353 0 0 0
2784 1 46.5085160104376 16.863139368713973 4.979701808969479 -1 1 0
2283 1 1.643990869613041 19.93276895279117 3.436799010083895 0 0 0
939 1 2.4387011125127946 18.991385490000166 6.035474642989839 1 0 1
3728 1 7.623828290915661 20.318973108653985 7.000964785230973 0 1 1
1098 1 12.53429093369452 19.764514836861192 4.626833024120652 0 -1 1
2707 1 13.364265076957286 21.275997421140115 7.265294110221507 1 1 0
2265 1 15.57725549070129 19.75459112618936 3.4475733826530157 0 0 0
140 1 17.66687136846414 21.52777914109859 4.014612002184143 0 0 0
1330 1 25.841227884880052 20.854902780891027 3.669877282267331 0 0 1
1248 1 28.62254930303815 22.763506931393263 5.331029932395305 -1 0 0
3844 1 28.15984791374527 18.358123422449324 2.9128200982540204 -1 0 0
2086 1 31.393624637062562 19.48684964714424 3.9857026263369653 0 0 0
2729 1 34.099869278831434 20.8181512266508 4.8032934334494115 0 0 0
1457 1 36.223950453203145 22.64766969262293 5.046376805728855 -1 0 0
2955 1 38.9964097978545 22.454705151407527 5.515480637018631 1 1 1
397 1 39.77597587133036 19.991513037735672 4.532146738828029 -1 0 -1
3616 1 42.39648357990377 19.70635380933971 5.388435412362281 -1 1 1
94 1 43.660208803317516 22.201282475976413 4.6056519419158555 0 0 0
2049 1 46.10023983903558 21.656360760227702 3.7803352535112373 0 0 1
1363 1 49.203869223988875 20.36158993119768 3.2179158487195054 0 -1 1
3627 1 6.710003347810246 22.416731293474093 5.85075722159603 1 0 2
225 1 12.59076002137253 22.90217134240678 5.1006915797318015 -1 0 0
1592 1 7.9602022750054395 18.271057926438733 0.7754606706165086 1 0 2
4146 1 30.520232476192845 8.731412824660929 16.489503717379097 -1 0 2
2172 1 0.33628295884077986 23.529825498998235 9.105887073974234 2 0 0
122 1 6.497963157682089 24.925642722865632 2.416975397485742 1 0 -1
874 1 28.031594480449332 19.592001291140967 5.23644338321215 0 0 0
3858 1 4.8920728805620755 24.91394082256588 16.479833665453523 0 1 1
2060 1 30.897899304252167 19.156495337739607 6.784264285323497 -1 0 2
1953 1 35.99036057621137 24.251938700189232 2.870425516099024 0 -1 2
1699 1 39.74890260918052 23.542298649748012 3.042958438804671 0 -1 1
3595 1 42.57184939657738 24.158777227944853 2.9252942050436856 -1 0 1
3340 1 47.11657149051311 24.22480550049876 2.6321573584579125 -1 1 0
4085 1 4.046429671237681 2.087816583044721 11.368616773474567 -1 1 1
1715 1 6.756642198146221 2.312157613997713 8.43732278721797 0 0 0
2192 1 14.567639653835956 2.2788869679609594 7.443251831375139 -1 1 0
887 1 41.70159290250409 24.513776006317965 10.675149164416686 0 1 0
3867 1 21.694423895609923 2.21730681330526 8.068354849766006 1 1 1
959 1 29.823653084534474 1.2072703221467262 8.388695160865415 -1 -1 0
3486 1 49.62702657553119 24.301084118732916 2.2785417289176038 0 -1 0
382 1 37.77776473719909 1.981696964997055 8.861179330914338 0 1 0
1418 1 43.7629528918382 24.062541234853924 14.053970113771905 -1 0 0
3395 1 30.523108121694264 2.498822910835502 4.030075471082136 0 2 1
4174 1 44.26840673562019 1.4814677003108596 5.4827931529635245 0 1 0
1169 1 39.38159979825794 4.297072403239405 9.346511803783404 -1 2 0
2449 1 45.990695050930015 0.6370178922049985 7.649341114050524 -1 1 0
2432 1 47.60532623941458 2.8363247115700543 7.993414099953991 -1 0 0
3786 1 26.23078226823327 24.17567308017441 3.8565971387243643 -1 0 1
3310 1 0.8235250573095312 3.3496148100256193 9.055439331477963 1 -1 1
2770 1 3.6681100660568555 3.6711334680318704 8.442263737937022 -1 1 -1
3307 1 7.178466342428898 6.5294454318311805 9.066728210257505 0 1 0
3739 1 8.249240139967831 3.9612519476320758 9.74464419561731 -1 1 1
1822 1 10.829978642652009 3.044618971668236 8.940104123698172 -1 1 0
127 1 12.560221626149284 4.959870020419553 10.058553304873032 0 0 1
903 1 17.915571582498576 4.161614014724617 6.868189473495126 0 0 1
4091 1 17.06266296291978 5.636842836009676 9.38047527966956 0 0 1
184 1 19.59549615268584 3.825043781429749 9.066825599762385 0 0 1
1947 1 22.670741017796114 6.893888196565833 6.891627201811272 0 0 0
4070 1 25.90076916093066 3.5919219317899374 9.760693313742822 0 1 1
3156 1 31.71433539919131 5.123403293688141 8.048213279718002 0 1 1
1885 1 32.82826679047666 1.5988331641317945 9.30270543292759 0 0 1
3691 1 40.7555884428467 3.050297270601775 7.203853131499758 0 1 0
4162 1 43.66550937053573 3.919740253652342 6.704060607497795 -1 1 1
2653 1 41.83796269031576 6.233266210627505 8.273478209183343 0 1 0
3205 1 43.715654724618915 7.372995292470402 9.994160011987525 -1 0 0
2883 1 46.37569413278534 4.342512265399545 6.016808392134234 0 1 1
440 1 49.641600197074965 5.7851696933094034 9.311232298692046 -1 0 0
894 1 0.8304669240655138 9.265374830249787 7.42016792799211 0 0 1
2761 1 3.354151803254673 8.503222199122494 8.206803623745909 1 0 0
2882 1 4.977038889137464 7.487840305736293 10.611561163612992 1 2 0
3759 1 9.008119078970477 8.239958721429224 10.33151474714164 0 1 1
4059 1 10.598689277572083 9.313051759375794 8.310362530921715 0 1 1
3980 1 14.081943204509978 6.335239592307538 8.041088189063982 0 1 1
2295 1 14.572201308671099 8.793079351374844 9.939131134494994 1 1 0
1713 1 17.586175710118045 8.11158124614161 8.088680498230605 1 0 1
1604 1 24.847311696732604 7.8212130919783025 8.379061005945795 0 1 1
3597 1 29.818644921744315 7.085387011855763 6.2727535128826215 -1 0 1
2220 1 31.207659749032903 9.446629841342013 6.939676320758769 0 0 0
1241 1 35.42657387174678 8.518198338328567 8.424145758770639 0 1 0
3652 1 38.585398555072075 11.417630006904371 7.938521664735234 0 0 2
2748 1 40.725920956696044 9.406001469490777 7.457466740364852 -1 0 -1
1925 1 41.875843393669356 9.119492032056058 10.734193404804916 0 1 0
3440 1 46.16119411653514 8.3625254440909 8.618337561400716 -1 0 0
3463 1 2.267925568256573 8.941021317560951 10.769749326466291 0 1 1
3832 1 4.796669223246953 12.287030282939059 9.832731007015589 0 1 0
4145 1 13.530323396881931 12.2225801129657 7.336107242342185 0 1 -1
3420 1 12.387375505951109 10.65958297528331 9.818736407269606 0 0 1
574 1 16.22721383612992 10.459632781802737 8.243816883942229 1 1 1
2319 1 21.178227016724488 9.927896020520063 8.18091421654729 0 0 0
582 1 23.25632793245563 13.758744428005999 5.669865726336854 0 0 0
2111 1 26.16286680699718 9.91340643987507 6.852616640187009 0 1 1
2561 1 26.065840681370013 11.480740711094667 9.155215178715455 1 1 0
577 1 28.802133966357758 10.806998799874089 6.561423974718853 0 1 0
3166 1 32.9942040495074 12.220507946979628 8.872679079946828 0 0 0
1501 1 35.82383491568834 12.509902022841306 10.231181379939782 0 0 2
75 1 38.121730940750695 12.080490061625998 5.111354153396536 0 1 1
67 1 42.31250821510578 11.17161243587579 8.650896937328664 1 0 0
3127 1 45.18757712136265 14.362453015321565 7.0945245396616 -1 0 1
3706 1 47.82609280384308 10.613927584465516 8.267893437423933 -2 1 0
247 1 0.6722893022506985 10.705850177929285 5.288909365989997 1 0 0
703 1 0.0836624595828962 10.792938504103216 9.662095623897777 1 0 1
2474 1 4.309730343518421 15.010420942380167 9.857848565843762 0 0 0
1608 1 9.739858091458851 14.013947604172909 9.562460198322423 1 0 1
2591 1 14.998293455497087 14.553055019943244 7.819052994007716 1 0 -1
3095 1 17.647806267885393 14.902089319455788 6.717877650459556 0 0 0
3357 1 17.595990060956645 12.446930718734686 9.531280239113345 -1 1 0
486 1 19.86577048157793 13.797277409062575 7.8302174190274965 0 1 0
177 1 22.796143750032947 15.303486784275746 8.253354868646825 -1 0 0
1386 1 25.400629652235455 14.178501285686519 9.018340062878377 0 0 0
2952 1 31.48121507759016 13.705996294025754 7.263778208351461 1 1 0
851 1 32.810761366927 16.74057972747944 9.86628237205178 0 0 1
2493 1 36.06353949712704 14.165835403420209 6.320398733300618 -1 0 0
1283 1 40.37847572088721 13.887824662289951 7.802809996143698 -1 0 0
2491 1 38.91519027793184 15.326203697942294 9.810853312792185 1 0 0
3190 1 42.682762487283526 15.513433199054319 5.9851560417956176 0 0 0
901 1 46.22732573742711 14.087841727947048 4.61044338608233 0 -1 0
3865 1 47.67974536646976 15.865459949760542 7.784346268460423 -1 1 0
1269 1 49.6003068433739 13.732790557668372 8.136756205088178 0 0 0
3389 1 1.6501006990366878 14.947546566940014 9.711881824154394 1 0 1
2308 1 0.9805498445049683 15.77765978183382 12.306888767831204 0 1 1
3437 1 8.488949667136943 16.40029206898588 8.611315824573564 1 1 -1
1338 1 8.582612408817244 18.409828848265107 10.398736164203399 1 -1 -1
1196 1 12.99060700421259 18.305298561268845 7.477954372586266 1 0 1
3040 1 14.015429419302555 15.243102312862423 10.429239702467756 0 1 0
3743 1 21.155595924278614 18.543268254107865 10.387639139453446 0 1 1
3643 1 23.954180306048634 17.376801850864545 9.762680890242821 0 0 1
598 1 24.314078400547665 18.860711611345934 6.9487193847946775 0 0 0
3747 1 26.617459119984836 17.405395574596067 6.654269604051242 1 1 0
552 1 35.31065180358921 17.52677734499459 9.671627386382173 0 1 0
1693 1 35.60930558062226 19.418641103366216 7.4430155254511075 1 -1 0
3641 1 39.26861641366892 17.98819479422298 8.372636692822002 0 0 1
1503 1 38.21232725932312 17.968959607608763 5.924141499776443 -1 0 1
2608 1 42.026961283151905 17.40084307740728 8.024733045558888 0 1 -1
3613 1 47.91594947178757 18.828990234382808 7.564133519563656 -2 0 1
2857 1 49.65174241053383 18.750286753018564 9.528892943709767 -1 0 1
3719 1 5.052323074450415 19.015825594207268 7.746919624636185 1 0 2
1984 1 4.328032114494885 20.225657913290856 10.110999332566436 -1 0 0
343 1 9.245608883930478 20.90996480543096 9.057750713090844 1 0 0
24 1 13.1244134174922 17.84295206101737 10.132073557196767 0 0 0
20 1 14.784030851213865 20.17871748358574 10.178167581264145 1 -1 1
4090 1 18.559294557809384 20.234876441904916 9.352825897727682 0 1 1
1880 1 21.651397323873187 19.032591687355012 7.524448650902293 1 0 1
4025 1 24.09087719519168 21.860248435671014 5.6589458243777475 1 0 1
556 1 25.642348382363274 21.680078984952814 7.934858834913589 1 -2 1
2867 1 28.45867837084826 19.274677998864195 10.571307257326184 -2 1 0
91 1 29.018238275073887 17.37757189172574 8.360385047892084 0 0 0
364 1 32.94445300356463 20.755253880467308 7.878368787855882 0 0 -1
3653 1 32.71744459526974 20.862621799150986 10.487661670176658 1 0 1
1367 1 45.72283631647713 19.698840479134073 8.711507249985637 -1 0 1
12 1 0.8247920484652989 17.119020782377287 7.676852403662317 1 0 0
1998 1 47.90997052410968 21.17798949668881 5.899547714536326 0 0 1
3892 1 2.5868102087182483 21.45483984821779 7.323054684031956 1 1 1
3796 1 5.3439941496660435 22.630061249519947 10.286512847404799 0 0 1
4079 1 4.757878237114274 23.326194016835228 7.609558311277443 -1 0 1
2365 1 8.149243253766766 23.075784927631723 10.303646440289958 1 0 0
2602 1 11.406393768938221 22.370904983312542 8.987361264648301 1 0 0
3965 1 16.333810028646106 20.82958241256722 7.651279633570342 0 1 0
1195 1 18.843228732432518 22.937338317680936 10.365896044080142 1 0 0
2656 1 18.15112589418045 21.613970293693853 13.736109988633562 1 0 -1
3096 1 18.958289704148036 23.7786418761466 7.758200851980053 0 0 1
1983 1 21.698138156766316 21.862164469329247 6.97572373534317 1 -1 2
1815 1 24.14645086691426 22.7390755720081 10.344543271879312 0 0 1
2521 1 27.808716652554384 23.497365097865952 7.967904362169378 0 0 0
3893 1 30.835775696888078 22.58387544842528 11.044782955415773 -1 1 1
1942 1 35.534832414275684 23.763271049359428 7.51173425441226 0 0 -1
1003 1 9.165729033556065 4.168456022532657 16.114087717689426 -1 0 0
3755 1 27.959682867404087 21.005983261589744 1.4566936827506223 1 0 1
2184 1 39.07126128861414 23.18261851264712 8.050716970310798 1 1 0
1123 1 43.927914647992665 23.63737915693928 7.1346414294109435 -1 -1 1
1919 1 41.6549555816343 22.37324437409182 8.454353801544448 -1 -1 1
1563 1 46.16182124023642 22.294833922378075 7.972278655073255 -1 0 1
1781 1 -0.008299068555686559 22.98489124227079 6.5917871887097546 1 0 1
3460 1 0.16050084936381034 1.943674862510537 11.764911372487356 0 2 -1
2051 1 6.568292914148093 1.592077196868067 12.999709969135615 0 0 1
792 1 11.0115692875412 0.7465832222470644 10.23701785782598 0 0 1
2081 1 11.287899535965192 1.892591256314929 12.738381090911629 0 0 1
2609 1 8.963001848610217 21.999960116214346 16.368064620705056 0 1 0
3468 1 14.990345490638036 13.967161206957114 0.47633072153897593 0 0 0
1900 1 19.169124340176293 2.5962249538096756 11.300765710408026 0 1 0
2175 1 24.83479329412336 24.66368041793336 12.495720966619958 1 0 0
2498 1 21.817683175356276 2.772117963256276 12.59892687237753 -2 0 0
1546 1 16.573934737508402 19.979293281379842 0.2863297872741707 0 0 1
2758 1 32.05790592001162 3.3571523785289172 11.547160208680545 -1 1 0
3384 1 35.385737179440326 1.3719223726461995 10.156636948975176 0 0 0
3097 1 35.596678061614156 2.3108697095305057 12.77208110358887 0 0 1