
# Create simulation box of size 50 x 50 x 50 Angstrom
#
lattice	            sc 1
Lattice spacing in x,y,z = 1.0000000 1.0000000 1.0000000
region 	            all block 0 50 0 50 0 50 units box
create_box          1 all
Created orthogonal box = (0.0000000 0.0000000 0.0000000) to (50.000000 50.000000 50.000000)
  1 by 2 by 3 MPI processor grid

# fill box with 4175 randomly distributed atoms
#
create_atoms        1 random 4175 63782 all
Created 4175 atoms
  create_atoms CPU = 0.001 seconds
mass                1 18.015

# Define potential
#
pair_style          sw
pair_coeff          * * ML_mW.sw mW
Reading sw potential file ML_mW.sw with DATE: 2019-02-27

# Run minimization
#
minimize            1.0e-8 1.0e-8 10000 1000
WARNING: Using 'neigh_modify every 1 delay 0 check yes' setting during minimization (../min.cpp:187)
Neighbor list info ...
  update every 1 steps, delay 0 steps, check yes
  max neighbors/atom: 2000, page size: 100000
  master list distance cutoff = 6.0032907
  ghost atom cutoff = 6.0032907
  binsize = 3.0016454, bins = 17 17 17
  1 neighbor lists, perpetual/occasional/extra = 1 0 0
  (1) pair sw, perpetual
      attributes: full, newton on
      pair build: full/bin/atomonly
      stencil: full/bin/3d
      bin: standard
Per MPI rank memory allocation (min/avg/max) = 4.255 | 4.258 | 4.261 Mbytes
Step Temp E_pair E_mol TotEng Press 
       0            0    7792709.3            0    7792709.3    5898794.3 
     630            0   -45180.336            0   -45180.336   -154.07449 
Loop time of 1.1538 on 6 procs for 630 steps with 4175 atoms

99.6% CPU use with 6 MPI tasks x no OpenMP threads

Minimization stats:
  Stopping criterion = max force evaluations
  Energy initial, next-to-last, final = 
      7792709.32924461  -45180.0188663597   -45180.336116598
  Force two-norm initial, final = 2.0191930e+08 4.9721331
  Force max component initial, final = 1.0948746e+08 0.73126211
  Final line search alpha, max atom move = 0.053306038 0.038980685
  Iterations, force evaluations = 630 1000

MPI task timing breakdown:
Section |  min time  |  avg time  |  max time  |%varavg| %total
---------------------------------------------------------------
Pair    | 0.87021    | 0.98477    | 1.053      |   6.5 | 85.35
Neigh   | 0.023657   | 0.024649   | 0.025559   |   0.4 |  2.14
Comm    | 0.056424   | 0.12421    | 0.24018    |  18.3 | 10.77
Output  | 0          | 0          | 0          |   0.0 |  0.00
Modify  | 0          | 0          | 0          |   0.0 |  0.00
Other   |            | 0.02017    |            |       |  1.75

Nlocal:        695.833 ave         704 max         685 min
Histogram: 1 1 0 0 1 0 0 1 0 2
Nghost:        1494.17 ave        1515 max        1468 min
Histogram: 1 1 0 0 0 0 1 1 1 1
Neighs:        0.00000 ave           0 max           0 min
Histogram: 6 0 0 0 0 0 0 0 0 0
FullNghs:      19997.0 ave       20462 max       19320 min
Histogram: 1 1 0 0 0 0 0 2 0 2

Total # of neighbors = 119982
Ave neighs/atom = 28.738204
Neighbor list builds = 26
Dangerous builds = 0

# Add velocity/set timestep
#
velocity            all create ${TEMP} 120598 rot yes dist gaussian
velocity            all create 225 120598 rot yes dist gaussian
timestep            5.0

# Define output
#
compute	            1 all msd
thermo	            100
thermo_style        custom step temp press vol etotal ke pe c_1[4] density

# Neighbor lists
#
neigh_modify        delay 0 every 1 check yes

# Set fixes
#
fix                 1 all momentum 10 linear 1 1 1 rescale
fix                 2 all nve
fix                 3 all temp/csvr ${TEMP} ${TEMP} 500.0 928347
fix                 3 all temp/csvr 225 ${TEMP} 500.0 928347
fix                 3 all temp/csvr 225 225 500.0 928347
fix                 4 all press/berendsen iso ${PRES} ${PRES} 1000.0 modulus 20000
fix                 4 all press/berendsen iso 350 ${PRES} 1000.0 modulus 20000
fix                 4 all press/berendsen iso 350 350 1000.0 modulus 20000

# Run 0.5 ns equilibration
#
dump                1 all custom 1000 eq.${NAME}.dump id type x y z vx vy vz
dump                1 all custom 1000 eq.liquid_density_MLmW.dump id type x y z vx vy vz
run                 100000
Per MPI rank memory allocation (min/avg/max) = 3.506 | 3.508 | 3.511 Mbytes
Step Temp Press Volume TotEng KinEng PotEng c_1[4] Density 
     630          225    869.67124       125000   -42380.908    2799.4278   -45180.336 2.7295415e-33   0.99914793 
     700    143.18682     227.6659    125176.75   -41521.631    1781.5163   -43303.147   0.26660471   0.99773716 
     800     177.3251    40.000285    124948.94   -40742.723    2206.2614   -42948.985   0.63610982   0.99955624 
     900    196.88627    330.18879    124650.76   -40321.649    2449.6395   -42771.289    1.1510199    1.0019473 
    1000    208.03282    339.77546    124839.87   -40050.956    2588.3238    -42639.28    1.6196745    1.0004295 
    1100    216.21162    329.05948    124726.63   -39860.977    2690.0836    -42551.06    2.0024678    1.0013378 
    1200    217.18517    382.90212    124701.85   -39897.188    2702.1964   -42599.385    2.4234498    1.0015368 
    1300    218.07352     679.8427    124756.15   -39877.359    2713.2492   -42590.608    2.9232408    1.0011009 
    1400    216.00038    183.45882    124897.45   -39877.616    2687.4554   -42565.072    3.3289583   0.99996827 
    1500       216.34    197.78041    124814.31   -39813.788    2691.6809   -42505.469    3.7776419    1.0006344 
    1600    228.66159    409.75815    124898.56    -39709.06    2844.9849   -42554.045    4.1123488   0.99995941 
    1700    224.29554    426.56537    125101.47     -39733.6     2790.663   -42524.263    4.4908371   0.99833748 
    1800    224.15033    511.54544       125121    -39837.98    2788.8562   -42626.836    4.8791092   0.99818166 
    1900      222.919    308.91924    125320.51   -39843.288    2773.5362   -42616.824     5.285018   0.99659256 
    2000    228.00792    453.25536    125143.03   -39797.908     2836.852    -42634.76    5.6477562   0.99800595 
    2100    225.56891    319.81182    125192.11   -39752.732    2806.5061   -42559.239    5.9506653   0.99761471 
    2200    227.12327    75.578035    125221.16   -39791.342    2825.8453   -42617.187    6.2810816   0.99738325 
    2300    225.86845      397.735    124926.28    -39781.57    2810.2329   -42591.803    6.6792897   0.99973751 
    2400    225.74507    293.11185    125166.79   -39792.273    2808.6978   -42600.971    6.9567593   0.99781656 
    2500    231.55543    405.14049    125175.17   -39758.021    2880.9897   -42639.011    7.4552753   0.99774969 
    2600    230.03874    377.79609    125321.57   -39707.067    2862.1192   -42569.186    7.8249751   0.99658414 
    2700    230.40161      357.214    125172.12   -39723.959     2866.634   -42590.593     8.064065   0.99777404 
    2800    228.21263    441.61504    125125.74    -39709.84    2839.3989   -42549.239    8.4891068   0.99814385 
    2900    225.91781    417.47186     125383.2   -39766.727    2810.8471   -42577.574    8.9524578    0.9960943 
    3000    226.88038    399.64083    125373.54   -39821.938    2822.8232   -42644.761    9.2168774   0.99617106 
    3100    226.29961    530.15499    125315.29   -39806.502    2815.5974   -42622.099    9.4883527   0.99663409 
    3200    227.51659     402.9938    125480.69    -39861.74    2830.7389   -42692.479    9.8344133    0.9953204 
    3300    228.59766    358.81131    125478.58   -39869.435    2844.1895   -42713.625    10.083725   0.99533716 
    3400    225.11026    409.12675    125462.19   -39905.211    2800.7996   -42706.011    10.412955   0.99546714 
    3500    220.50125    215.35457    125200.24   -39953.532    2743.4548   -42696.987    10.673659   0.99754991 
    3600    222.85443    555.59285    125136.13    -39988.81    2772.7328   -42761.543    10.848889   0.99806103 
    3700    218.61858    545.06693    125329.55   -40036.102    2720.0308   -42756.133    11.243067   0.99652071 
    3800     225.1457    494.36968    125645.67    -39969.43    2801.2405    -42770.67     11.53813   0.99401352 
    3900    223.43573    371.96598    125652.27   -39989.646    2779.9653   -42769.611    11.745496   0.99396124 
    4000    224.76193    334.01387    125701.57   -39984.231    2796.4657   -42780.697    12.050031   0.99357146 
    4100    223.92293    458.39156    125935.61   -39965.361    2786.0269   -42751.388    12.450002   0.99172495 
    4200    227.72253    363.49202    125905.29   -39980.697    2833.3013   -42813.998    12.896106   0.99196379 
    4300    220.26064    278.57891    125742.59   -39977.459     2740.461    -42717.92    13.269775    0.9932473 
    4400    223.12034    433.35874    125790.15       -39956    2776.0412   -42732.042    13.551214   0.99287182 
    4500    223.87165    284.17336    125675.66    -39940.49     2785.389   -42725.879    13.869413    0.9937763 
    4600    222.27423    457.35301    125651.37   -39985.237     2765.514   -42750.751    14.113495   0.99396837 
    4700    229.02306    315.34111    125876.45   -39920.283    2849.4823   -42769.766    14.195946   0.99219106 
    4800    220.77824    212.90848    126000.16   -39996.726     2746.901   -42743.627    14.438905   0.99121692 
    4900    228.04115    355.08731    125954.82     -39871.1    2837.2655   -42708.365    14.744076   0.99157372 
    5000    225.33333    291.24784    125993.33    -39813.85     2803.575   -42617.425    15.190826   0.99127068 
    5100    228.53404    89.638907    125764.85   -39867.792    2843.3979    -42711.19    15.550764   0.99307151 
    5200    226.05583    307.91099    125744.37   -39913.219    2812.5642   -42725.783    15.953512   0.99323325 
    5300    226.03308    237.44983    125633.36   -39855.763    2812.2812   -42668.044    16.411303   0.99411085 
    5400    221.31636    230.59708    125470.12   -39882.332    2753.5963   -42635.928    16.630331   0.99540424 
    5500    222.99057    370.48051    125460.03   -39863.498    2774.4267   -42637.925    17.125436   0.99548434 
    5600    228.38288    319.18956    125702.03   -39863.948    2841.5172   -42705.466    17.592838   0.99356784 
    5700     224.4232    383.07907    125640.22   -39847.337    2792.2513   -42639.588    17.995614   0.99405661 
    5800    222.66761    521.55804    125673.74    -39868.12    2770.4083   -42638.529    18.317134   0.99379144 
    5900    225.61726    182.05173    125545.32   -39900.306    2807.1077   -42707.414    18.683997   0.99480803 
    6000    224.32762    224.85147    125429.88   -39900.554     2791.062   -42691.616    18.785689   0.99572361 
    6100    225.54313    324.40137    125437.53    -39848.66    2806.1853   -42654.845    19.111284   0.99566286 
    6200    226.79085    270.62362    125345.48   -39924.521    2821.7094   -42746.231    19.326759   0.99639406 
    6300    223.74409    392.18421    125335.68   -39900.004    2783.8019   -42683.806    19.750157   0.99647195 
    6400    223.25305    202.27972    125378.64   -39879.113    2777.6923   -42656.805    20.326417   0.99613057 
    6500    225.07181    299.60051     125265.3    -39801.12    2800.3213   -42601.441    20.663357   0.99703181 
    6600    224.38664    321.86339    125377.63   -39879.198    2791.7964   -42670.994     20.90158   0.99613857 
    6700    226.33602     447.0501    125246.43   -39946.768    2816.0503   -42762.818    21.464524   0.99718201 
    6800    227.01572    300.31662    125266.11   -39872.818    2824.5071   -42697.325     21.88557   0.99702538 
    6900    230.49201    488.32237    125349.04   -39822.885    2867.7588   -42690.644    22.285781   0.99636574 
    7000    229.67502    338.16091    125451.73   -39822.537    2857.5939   -42680.131    22.480782   0.99555019 
    7100    226.17882    600.81168    125658.55   -39850.926    2814.0945    -42665.02    22.911396   0.99391161 
    7200    222.04219    407.30817    125402.07   -39908.371     2762.627   -42670.998    23.171398   0.99594442 
    7300    222.29815     263.4892    125552.26   -39974.269    2765.8116    -42740.08    23.359674   0.99475301 
    7400    220.01281    262.90882    125557.74   -40002.951    2737.3776   -42740.329    23.619231   0.99470959 
    7500    222.67633    477.77668    125469.69   -39967.305    2770.5169   -42737.822     23.92428   0.99540769 
    7600    219.12238    406.35749    125614.17   -40055.025     2726.299   -42781.324    24.149041   0.99426273 
    7700    224.22066    487.35772    125475.22    -39953.49    2789.7313   -42743.222    24.421334   0.99536381 
    7800    228.13878    265.11097    125682.02   -39946.163    2838.4802   -42784.643    24.880772   0.99372603 
    7900    223.90875    160.89591     125492.5   -40016.918    2785.8505   -42802.768    25.028755   0.99522676 
    8000    226.82466    391.23368    125354.34   -39986.919      2822.13   -42809.049    25.324899   0.99632363 
    8100    220.45858    337.13629    125219.58   -40061.924    2742.9239   -42804.848    25.587469    0.9973959 
    8200    217.78753    453.87664    125243.83   -40065.498    2709.6909   -42775.189    25.904347   0.99720274 
    8300    217.88675    455.37026     125282.1   -40048.087    2710.9254   -42759.012    26.244086   0.99689817 
    8400    222.95792    400.47683     125393.4   -39991.898    2774.0204   -42765.919    26.271455   0.99601328 
    8500    223.25013    352.72091    125420.18   -39917.566     2777.656   -42695.222     26.67686   0.99580063 
    8600    224.68313    133.60596    125393.25   -39934.595    2795.4852    -42730.08    27.191489   0.99601451 
    8700    226.78482    252.51801    125413.06   -39898.843    2821.6343   -42720.478    27.707125   0.99585713 
    8800    225.30773    461.26751    125338.81   -39940.447    2803.2565   -42743.704    28.138536   0.99644705 
    8900    220.51788    238.18817    125450.48   -40021.302    2743.6616   -42764.964    28.440102   0.99556012 
    9000    225.15781     223.7744    125643.94   -39972.031    2801.3913   -42773.422    28.957986    0.9940272 
    9100     222.4889    368.40157    125814.75   -40055.811    2768.1849   -42823.996    29.441983   0.99267763 
    9200    221.12138    453.80583    125949.13   -39965.461    2751.1704   -42716.632    29.611709    0.9916185 
    9300    222.87359    492.47864    125971.47   -40015.126    2772.9712   -42788.098    29.803345   0.99144266 
    9400    223.53229    239.56232    125844.64   -39981.113    2781.1667    -42762.28    30.202487   0.99244189 
    9500    226.95372    422.54861    125828.44    -39998.93    2823.7358   -42822.666    30.596286   0.99256967 
    9600    225.92909    426.40763    125966.14   -39972.634    2810.9874   -42783.621    30.882169   0.99148464 
    9700    224.20673    422.07771    126150.16   -39900.937     2789.558   -42690.495    30.958783   0.99003828 
    9800    226.01137    411.15793    126018.86   -39976.708    2812.0111   -42788.719    31.090583   0.99106981 
    9900    220.28507    290.17967    125831.92   -40050.579    2740.7651   -42791.344    31.606141   0.99254218 
   10000    222.59224    409.90032    125796.17   -40055.822    2769.4707   -42825.293    31.809756   0.99282428 
   10100    224.16965    487.72414    125771.71   -40021.427    2789.0967   -42810.523    32.088521   0.99301738 
   10200    221.20167    402.13007    125884.86   -40084.532    2752.1693   -42836.701    32.509981   0.99212476 
   10300     225.0638    174.08609    125929.32   -40088.843    2800.2216   -42889.064    32.696388   0.99177453 
   10400    223.48303    529.11682     126050.4   -40021.947    2780.5538   -42802.501    32.947419   0.99082183 
   10500    224.35702    458.39672    126273.51   -40009.807    2791.4279   -42801.235    33.219428   0.98907121 
   10600    228.32326    439.30475    126354.21   -39948.394    2840.7754   -42789.169    33.552427   0.98843947 
   10700    221.99715     465.2713    126291.94   -39936.644    2762.0666    -42698.71    33.935512   0.98892683 
   10800    230.96067    310.50284    126076.18   -39912.585    2873.5898   -42786.175    33.925638   0.99061925 
   10900    227.45184    496.71405    126192.73   -39929.801    2829.9333   -42759.734    34.208637   0.98970437 
   11000     227.9609    519.83704    126319.58   -39916.729     2836.267   -42752.996    34.574968   0.98871045 
   11100    218.94244    210.90141    126121.43   -39959.962    2724.0603   -42684.022    34.845899   0.99026383 
   11200    226.57375     433.0448    125964.56   -39940.012    2819.0082    -42759.02    35.111646   0.99149707 
   11300    228.21232    395.58931       125967   -39942.027    2839.3951   -42781.422    35.531031   0.99147784 
   11400    225.25708    260.93364    126011.25    -39969.82    2802.6263   -42772.447    35.647475    0.9911297 
   11500    224.77942    391.03301    126172.38   -40000.208    2796.6833   -42796.891    35.901707   0.98986397 
   11600    221.53472    495.04584    126143.77   -40006.472     2756.313   -42762.786       36.041   0.99008848 
   11700    228.43715    336.94887    125998.88   -39909.275    2842.1925   -42751.467    36.136096   0.99122702 
   11800    224.18115     555.4587    126051.13   -39986.532    2789.2397   -42775.771    36.493482   0.99081608 
   11900    220.65933    265.27553     126343.4   -39993.212    2745.4215   -42738.634    36.760175   0.98852405 
   12000    224.60412    247.32844    126291.09   -40002.135    2794.5023   -42796.637    36.951337   0.98893349 
   12100    225.69385    108.81557    126202.69   -39959.192    2808.0605   -42767.253     37.45626    0.9896262 
   12200    225.16323    529.05758    126049.18   -39966.022    2801.4586   -42767.481    37.730289   0.99083141 
   12300    226.06949    299.85549    126102.59   -39977.222    2812.7343   -42789.956    38.120664    0.9904118 
   12400    224.47183     435.7569    126097.98   -39949.421    2792.8563   -42742.277    38.409488   0.99044801 
   12500    224.23595    107.79816    126068.93   -40037.481    2789.9215   -42827.403    38.734241   0.99067623 
   12600     226.9785    356.89008    125880.58   -39948.209     2824.044   -42772.253    38.853587   0.99215855 
   12700    224.13178    471.23201    126169.19    -39920.25    2788.6255   -42708.875    39.201685   0.98988899 
   12800    225.68037    172.39331    126084.28   -39887.744    2807.8929   -42695.637    39.767721   0.99055562 
   12900    228.01324    546.94666    126011.18   -39942.913    2836.9182   -42779.831    40.424504   0.99113021 
   13000    226.89884    443.43046    126089.01   -39894.658    2823.0529   -42717.711    40.978102   0.99051849 
   13100    224.37113    457.47226    126352.54   -39902.686    2791.6034   -42694.289    41.327554   0.98845258 
   13200    232.81879    468.96864    126191.47   -39840.103    2896.7084   -42736.811    41.524013   0.98971422 
   13300    232.41004    217.14305    126279.72   -39896.432    2891.6227   -42788.054    41.751552   0.98902252 
   13400    225.32338    237.72526    126129.98   -39978.771    2803.4513   -42782.222    42.043694   0.99019672 
   13500    227.02409    458.30197    125999.35   -40015.577    2824.6112   -42840.189    42.366735   0.99122329 
   13600    224.19023    435.73882    126130.38   -40039.893    2789.3527   -42829.246     42.70774    0.9901936 
   13700    219.81778    262.25475    126112.28   -40036.589    2734.9511    -42771.54    42.978403   0.99033567 
   13800    226.66104    132.15575    126179.54   -39939.486    2820.0943   -42759.581    43.352435   0.98980779 
   13900    222.30681    307.04394    126247.33   -39976.756    2765.9194   -42742.675    43.649379   0.98927632 
   14000    224.26599    276.39461    126300.71   -39960.176    2790.2953   -42750.472    43.927354   0.98885822 
   14100    226.59231    317.01555    126164.15   -39971.492    2819.2392   -42790.732    44.165048   0.98992856 
   14200    221.49128    162.25194    126288.42   -40010.916    2755.7726   -42766.689    44.580803   0.98895441 
   14300    221.04536    467.26593    126134.79   -40058.699    2750.2245   -42808.924    44.896871   0.99015898 
   14400    224.26758    311.48854    126157.41   -40030.225     2790.315    -42820.54     44.93777    0.9899814 
   14500    226.23572    350.69849    126152.43    -39975.77    2814.8024   -42790.572    45.006748   0.99002046 
   14600    226.77171    488.74265    126292.93   -39985.132    2821.4713   -42806.603    45.033117   0.98891911 
   14700    221.52875    320.58387    126396.38   -40035.806    2756.2388   -42792.045    45.305245   0.98810974 
   14800    226.35524    83.768405    126201.34   -40066.076    2816.2895   -42882.365    45.637976   0.98963682 
   14900    219.43783    362.66141    126173.97   -40141.433    2730.2238   -42871.657    46.041182   0.98985145 
   15000    216.41826    433.47945    126073.63   -40142.324    2692.6546   -42834.979    46.239345    0.9906393 
   15100    218.38193    212.21371    126005.17   -40162.828    2717.0864   -42879.914    46.175313   0.99117755 
   15200    223.08046    400.17896    126035.44   -40079.788    2775.5451   -42855.333    46.406294   0.99093943 
   15300    220.31765     439.7554    125902.18   -40084.033    2741.1704   -42825.204     46.40715   0.99198834 
   15400    218.77914    402.68856    125909.31   -40053.666    2722.0284   -42775.694    47.080201   0.99193211 
   15500    222.61256    251.88093    125821.58   -40001.697    2769.7235   -42771.421    47.421903   0.99262373 
   15600    224.67653    308.46568    125904.33     -39917.9    2795.4032   -42713.303    47.763072   0.99197135 
   15700    218.70716    359.10247    125723.92    -39987.95    2721.1328   -42709.083    47.992613   0.99339481 
   15800    224.02725    419.59753    125798.41   -39980.507    2787.3249   -42767.832    48.248062   0.99280659 
   15900    220.10152    268.64178    125742.59   -40026.968    2738.4813   -42765.449    48.497811   0.99324735 
   16000    224.15227    420.49319    125713.86   -39960.167    2788.8803   -42749.048    48.643222   0.99347434 
   16100    225.64125    333.04867    125711.39   -39899.615    2807.4062   -42707.021    49.270271   0.99349384 
   16200    225.21703    453.20122    125642.22   -39961.244     2802.128   -42763.372    49.653193   0.99404082 
   16300    224.28082    339.47265    125727.24   -39957.226    2790.4798   -42747.706    49.946106   0.99336856 
   16400    229.28791    271.69955    125626.96   -39854.268    2852.7775   -42707.045    50.115259   0.99416157 
   16500    229.67809    315.84575    125809.48   -39851.114    2857.6321   -42708.746     50.63067   0.99271921 
   16600    228.32685    343.77472    125744.34   -39831.158    2840.8202   -42671.978    50.741252   0.99323352 
   16700    228.70748    223.78548    125772.79   -39865.419    2845.5559   -42710.975    51.447025   0.99300882 
   16800    226.59859    396.60905     125798.9   -39847.411    2819.3172   -42666.728    51.738162   0.99280276 
   16900    226.62418    240.09581    125814.03   -39817.699    2819.6356   -42637.335    52.449569   0.99268337 
   17000    229.00338    272.10435    125605.67   -39838.753    2849.2374   -42687.991    53.060582   0.99433008 
   17100    225.08074    356.96475    125777.31    -39778.07    2800.4323   -42578.503    53.237057   0.99297312 
   17200    225.67864    319.29017    125719.39   -39807.179    2807.8713   -42615.051    53.496093   0.99343062 
   17300     229.1031    332.63564    126020.79   -39863.975    2850.4781   -42714.453    53.703585   0.99105465 
   17400    226.81672    416.46083     126184.4   -39885.397    2822.0312   -42707.428    53.837978   0.98976969 
   17500    227.49011     448.2446    126099.45   -39865.157    2830.4095   -42695.566    54.197053   0.99043648 
   17600     231.1672    446.55898    126099.97   -39841.026    2876.1595   -42717.186    54.470289   0.99043233 
   17700     230.2441     135.9495    125838.47   -39873.848    2864.6744   -42738.523    54.572577   0.99249053 
   17800    228.65134    442.50754    126136.67    -39879.45    2844.8574   -42724.307    55.049232   0.99014416 
   17900    221.82901    285.96146    126132.51   -39844.855    2759.9746    -42604.83    55.275887   0.99017688 
   18000    229.92134    437.76057    126228.98   -39785.304    2860.6585   -42645.963    55.660909   0.98942015 
   18100    227.65484    363.69733    125933.79   -39896.595     2832.459   -42729.054    55.977234   0.99173935 
   18200     226.3109    288.22689    125931.39   -39892.196    2815.7378   -42707.933    56.305992   0.99175826 
   18300    233.38052    415.09558    125753.09   -39826.648    2903.6973   -42730.345    56.532667   0.99316437 
   18400    225.79304    235.70603    125983.63   -39894.997    2809.2947   -42704.292    56.731447   0.99134699 
   18500    225.88398    386.28743    125889.05   -39845.959    2810.4261   -42656.386    57.120714   0.99209178 
   18600    221.76096    330.05785    125708.17   -39893.941    2759.1279   -42653.069    56.952118   0.99351926 
   18700    226.99732    195.03263    125685.35   -39851.386    2824.2783   -42675.665    57.317363   0.99369965 
   18800    228.02886    344.63621    125803.73    -39827.17    2837.1125   -42664.283     57.94338   0.99276461 
   18900    231.34704    241.80325    125765.92   -39870.855     2878.397   -42749.252    58.421793   0.99306311 
   19000     227.8701    531.34145    125719.33   -39850.666    2835.1372   -42685.804    58.669158   0.99343112 
   19100    222.85031    356.14274    125729.41    -39914.09    2772.6815   -42686.771    58.845342   0.99335142 
   19200    223.26668    381.31134    125678.92   -39883.307     2777.862   -42661.169    59.174385   0.99375048 
   19300    231.52768    436.74467    125601.62    -39815.54    2880.6445   -42696.185    59.231895   0.99436214 
   19400    228.72442    243.41249    125650.18   -39843.013    2845.7667    -42688.78    59.731704   0.99397785 
   19500    229.20819    474.57707    125530.68   -39833.603    2851.7856   -42685.389    60.209876   0.99492406 
   19600    225.53096    428.84649    125655.56   -39879.656    2806.0339    -42685.69    60.658099   0.99393526 
   19700     230.3231    245.86909    125671.08   -39870.146    2865.6572   -42735.803    61.012138   0.99381252 
   19800    226.42654     501.8116    125836.57   -39908.718    2817.1766   -42725.895    61.592882   0.99250549 
   19900    225.79141    492.80252    125830.13   -39910.943    2809.2743   -42720.218    61.795283   0.99255636 
   20000    221.08933    365.87918    125644.23   -39944.046    2750.7716   -42694.817    62.305217   0.99402485 
   20100    224.37446    358.42928     125756.8   -39898.877    2791.6448   -42690.521    62.516296   0.99313506 
   20200     223.9323    449.69157    125644.95   -39935.768    2786.1435   -42721.912    63.049661    0.9940192 
   20300    226.27959    287.25456    125638.16   -39980.544    2815.3483   -42795.892    63.526945   0.99407295 
   20400    219.55868    257.61225    125736.65   -39979.314    2731.7273   -42711.042    64.067178   0.99329427 
   20500    227.51023    367.93149    125736.78   -39961.069    2830.6598   -42791.729    64.206855   0.99329325 
   20600    224.20211    186.60947    125825.35   -40002.263    2789.5004   -42791.763    64.708031   0.99259404 
   20700    229.97832    503.02296    125978.31   -39939.351    2861.3676   -42800.718    64.962939   0.99138884 
   20800    225.45842    359.09731    125876.06   -39928.022    2805.1314   -42733.153    64.846841   0.99219418 
   20900    224.21311    162.82838    125764.61   -39965.761    2789.6374   -42755.398    65.249028   0.99307339 
   21000    225.36842    421.88651    125697.58   -40065.981    2804.0116   -42869.992    65.922923   0.99360296 
   21100    221.87563    480.85023    125913.19   -40091.957    2760.5547   -42852.512    66.501232   0.99190161 
   21200    224.45811    415.97365    125886.06   -40071.806    2792.6856   -42864.492    66.417436   0.99211534 
   21300     218.0087    284.29683    125900.43   -40078.385    2712.4427   -42790.827    66.738002    0.9920021 
   21400    220.22727    343.44587    125987.72   -40027.243    2740.0459   -42767.289     66.79564   0.99131479 
   21500    224.15284    430.29837       125867   -40011.284    2788.8875   -42800.172    67.475242   0.99226559 
   21600    224.13493    480.65147    126028.38   -39951.308    2788.6647   -42739.973    68.009496   0.99099497 
   21700    223.31017    230.17016    126028.26   -39908.237    2778.4031    -42686.64    68.544609   0.99099595 
   21800    225.08698    270.77701    125892.19   -39890.432      2800.51   -42690.942    68.705161   0.99206707 
   21900    225.17535    399.77784    125849.13   -39892.412    2801.6095   -42694.022    68.699116   0.99240644 
   22000     228.2883    274.23677    125747.83   -39943.885    2840.3405   -42784.225    68.447511   0.99320596 
   22100     224.7072    312.67727    125582.84    -39891.23    2795.7848   -42687.015    68.180483   0.99451077 
   22200    225.42044    534.11057    125569.56   -39932.678    2804.6588   -42737.337    68.724669   0.99461596 
   22300    228.83227    358.63288    125765.97   -39908.349    2847.1084   -42755.458    69.138862   0.99306264 
   22400    227.15381    553.31611       125860   -39877.136    2826.2252   -42703.361    69.825267   0.99232077 
   22500    228.48884    325.30213    126018.51   -39891.829    2842.8355   -42734.665    70.261811    0.9910726 
   22600    229.41779    372.14115    126115.25   -39876.868    2854.3934   -42731.262     70.65111   0.99031233 
   22700    228.83561    291.25435    126203.61   -39891.807    2847.1501   -42738.957    70.651526   0.98961899 
   22800    223.52069    324.37437    125974.85   -39880.529    2781.0223   -42661.551    70.824874   0.99141605 
   22900    223.55901    150.80446    125990.76   -39914.735    2781.4991   -42696.234    71.029089   0.99129085 
   23000    227.24268    301.69928    126028.72   -39881.927    2827.3309   -42709.258    71.497559    0.9909923 
   23100    226.02967    351.26845    125790.64   -40003.531    2812.2388   -42815.769    71.697542   0.99286792 
   23200    227.77117    281.11298    125961.14   -39958.843    2833.9064   -42792.749    71.967197   0.99152399 
   23300    226.62096    357.57953    125691.93   -39999.008    2819.5956   -42818.604    72.007391   0.99364764 
   23400    229.38797     259.6946    125559.14    -39921.04    2854.0224   -42775.062    72.343415   0.99469849 
   23500    226.14314    287.37085    125593.39   -39971.669    2813.6506   -42785.319    72.716808   0.99442723 
   23600    221.74045    302.36496    125610.35   -39943.504    2758.8728   -42702.376    73.178044   0.99429297 
   23700    222.08301    485.57952     125560.5   -39971.692    2763.1348   -42734.827    73.747717   0.99468777 
   23800    221.59573    315.32047    125583.64   -40032.192    2757.0722   -42789.264    73.833197   0.99450447 
   23900    220.89351    339.41685    125597.55   -40054.398    2748.3353   -42802.733    73.855037   0.99439429 
   24000    222.41624    341.96789    125676.37   -39974.659    2767.2808    -42741.94    74.363276   0.99377067 
   24100    226.33196    375.99783    125754.18   -39978.868    2815.9999   -42794.868    74.907942   0.99315579 
   24200    221.70211    349.23599    125769.48   -40049.881    2758.3957   -42808.276    75.074822   0.99303493 
   24300    222.16007    527.26404    125767.96   -40026.602    2764.0936   -42790.695    75.226764   0.99304699 
   24400    220.49527    371.53576       125977   -40067.737    2743.3803   -42811.117    75.666164   0.99139918 
   24500    222.84694    403.54898    125932.78   -40020.865    2772.6397   -42793.505    75.953411   0.99174729 
   24600    227.12546    294.49386    125738.69   -40011.034    2825.8725   -42836.906    75.837661   0.99327814 
   24700    224.77028    328.88231    125804.17   -40036.241    2796.5697   -42832.811    76.015931   0.99276115 
   24800    221.34068    333.89175    126070.39   -40029.097    2753.8989   -42782.996    76.233973   0.99066476 
   24900    226.89625    299.50861    126124.82   -39970.809    2823.0207    -42793.83    76.404452   0.99023721 
   25000     231.3844    556.95426    126021.38   -39957.049    2878.8618   -42835.911    76.824484      0.99105 
   25100    229.27358    202.71741    126034.66   -39967.971    2852.5992    -42820.57    77.044595    0.9909456 
   25200    223.51327     216.0787    125918.57   -40014.285    2780.9301   -42795.215    77.424648   0.99185916 
   25300    228.61466    383.23793    125703.59   -40013.289    2844.4009    -42857.69    77.795414   0.99355547 
   25400    220.59367    499.03091    125755.48   -39993.318    2744.6046   -42737.923    78.341745   0.99314554 
   25500    224.64643    334.27523    125641.89   -39936.701    2795.0287    -42731.73    78.444287   0.99404337 
   25600    219.72522    347.88502     125524.5   -40024.826    2733.7995   -42758.626    78.665716   0.99497304 
   25700    226.56546    210.01292    125367.52   -40055.599     2818.905   -42874.504    79.273618   0.99621885 
   25800    222.51526    401.87818    125475.47   -40035.248    2768.5129   -42803.761    79.605256   0.99536182 
   25900    224.39224    415.63966    125594.91   -39969.556    2791.8661   -42761.422      79.7928   0.99441527 
   26000    224.25177    404.98554    125788.39    -39893.04    2790.1183   -42683.158    80.059187   0.99288571 
   26100     227.4015    353.93707    125898.54   -39969.366     2829.307   -42798.673    79.829471   0.99201697 
   26200    225.14725      472.749       125867   -39943.196    2801.2599   -42744.456    80.325912   0.99226561 
   26300    227.79233    462.34717    125898.03   -39917.556    2834.1696   -42751.726    80.934176   0.99202104 
   26400    227.10497    36.028786    125745.12   -39908.004    2825.6176   -42733.621    81.318493   0.99322731 
   26500    223.61133    262.69025    125736.58   -39951.091      2782.15   -42733.241    81.543537    0.9932948 
   26600    220.49311    412.88843     125682.4   -39998.119    2743.3535   -42741.473    81.645234   0.99372302 
   26700    222.15472      547.114     125902.5   -40016.298    2764.0271   -42780.325    82.219041   0.99198576 
   26800    225.48797    190.26774    125868.99    -39941.92    2805.4991   -42747.419    82.497572   0.99224992 
   26900    222.85091    397.01544    125747.01   -39932.747     2772.689   -42705.436    82.661784    0.9932124 
   27000    224.10471    404.21828    125888.09    -39962.01    2788.2887   -42750.299    82.594658   0.99209931 
   27100    223.81595    516.50659    126052.17   -39965.855     2784.696   -42750.551    83.035742   0.99080798 
   27200    225.75441    421.13458    126104.73   -39997.887    2808.8141   -42806.701    83.337024   0.99039496 
   27300    223.98225    502.44476    126184.17   -40033.995     2786.765    -42820.76    83.903886   0.98977143 
   27400    224.11907    331.50821    126265.74   -39977.049    2788.4674   -42765.517    84.417712   0.98913205 
   27500    227.28747    278.29532    126369.54   -39916.783    2827.8882   -42744.671    85.088724   0.98831956 
   27600    227.26844    276.56342    126005.61   -39947.612    2827.6515   -42775.264    85.334378   0.99117404 
   27700    222.92226    376.26308    125871.85   -39943.649    2773.5768   -42717.226    85.708986   0.99222733 
   27800    227.52436    565.49237    126065.26   -39873.215    2830.8356   -42704.051    86.304602   0.99070509 
   27900     225.0487    439.47991    126083.13   -39900.146    2800.0337    -42700.18    86.823508   0.99056468 
   28000    227.23223     586.9849    126124.56   -39940.836    2827.2009   -42768.037    87.127667   0.99023927 
   28100    227.41948    273.73013    126607.36   -39931.139    2829.5307    -42760.67    87.508346    0.9864631 
   28200     225.9685    349.44299     126406.2   -40002.831    2811.4778   -42814.309    87.881542   0.98803294 
   28300    225.68534    306.69135    126400.12   -40012.646    2807.9546   -42820.601    88.202268   0.98808047 
   28400    222.06613    265.03099    126362.47   -40068.128    2762.9248   -42831.053    88.839674   0.98837491 
   28500    220.14895    328.07973    126247.99    -40099.55    2739.0715   -42838.621    89.298215   0.98927109 
   28600      222.975     558.5635    126373.27   -40043.906     2774.233   -42818.139    89.564629   0.98829045 
   28700    226.35887    484.96569    126718.22   -40055.197    2816.3347   -42871.532    89.894733   0.98560012 
   28800    223.37164    370.79606    126901.18   -40017.335    2779.1679   -42796.502    90.403731   0.98417915 
   28900    220.67707    298.35253    126591.54   -39977.018    2745.6423    -42722.66     90.43917   0.98658636 
   29000    218.58335    226.84877    126610.57   -40031.654    2719.5924   -42751.247    90.148539   0.98643812 
   29100    224.89657    493.48034    126522.05   -39977.129    2798.1409    -42775.27    90.074778    0.9871283 
   29200    227.19705    627.38334    126692.04   -39929.986    2826.7633    -42756.75    90.414966   0.98580379 
   29300    222.66494    264.83564    126827.63   -40000.279    2770.3752   -42770.655    91.004079   0.98474989 
   29400    220.41004    224.05395    126878.02   -40049.622    2742.3199   -42791.942    91.545606   0.98435874 
   29500    221.69728    608.00453    126701.76   -40087.606    2758.3356   -42845.941    91.755378   0.98572814 
   29600    228.20647    438.03687    126647.16   -39991.924    2839.3224   -42831.247    92.110673   0.98615312 
   29700    221.53055    398.15223    126729.65   -40045.654    2756.2612   -42801.915    92.194951   0.98551118 
   29800    222.59366    368.83947    126581.59   -40029.347    2769.4883   -42798.835    92.605618   0.98666398 
   29900     223.1064     171.5934    126427.05   -40066.736    2775.8678   -42842.604    92.934375   0.98787001 
   30000    224.62962    134.52029    126248.51   -40047.684    2794.8195   -42842.504     93.29217   0.98926706 
   30100    225.63152    358.22774    126225.01   -40040.152    2807.2851   -42847.437     93.73381   0.98945123 
   30200    222.33466    229.24868    126285.14    -40052.84    2766.2658   -42819.106    94.132078   0.98898014 
   30300    225.15936    315.51459    126302.02   -40016.967    2801.4105   -42818.377    94.088856   0.98884791 
   30400    224.44405    180.98537    126372.01   -39989.038    2792.5106   -42781.549    93.924594   0.98830028 
   30500    222.86712    157.68603     126344.5   -39983.773    2772.8906   -42756.664      94.1436   0.98851545 
   30600    227.56732    288.83484    126068.09   -39979.017    2831.3701   -42810.387    94.071259   0.99068281 
   30700    229.70825     332.7483    126077.55   -39986.773    2858.0073    -42844.78    94.515332   0.99060851 
   30800    227.96985    285.46466    126052.51   -39921.067    2836.3784   -42757.445    94.896119    0.9908053 
   30900    221.71252    363.76047    125856.96   -40022.048    2758.5253   -42780.573    95.095545   0.99234472 
   31000    220.82445     438.6523    126136.05   -40053.481     2747.476   -42800.957    95.713216   0.99014906 
   31100    226.08293    301.88956    126164.94    -40043.08    2812.9015   -42855.981    95.951773   0.98992237 
   31200    219.73857     554.6028    126170.37   -40046.539    2733.9655   -42780.504    96.086286   0.98987972 
   31300    226.35747    321.67391    126146.56   -40014.226    2816.3173   -42830.543    96.172574    0.9900666 
   31400    223.20909    447.59684    126129.66   -39974.204    2777.1454    -42751.35    96.364527    0.9901992 
   31500    221.01547    452.99485    126230.33     -40034.2    2749.8526   -42784.052    96.645669   0.98940955 
   31600    222.63947      434.688    126385.97   -39972.922    2770.0583   -42742.981    96.775092   0.98819112 
   31700    225.16399    473.46507     126502.4   -40019.195    2801.4681   -42820.663    97.177458    0.9872816 
   31800    227.63742    547.70429    126675.86   -39963.026    2832.2422   -42795.269    97.772839   0.98592971 
   31900     228.6728    91.581609    126637.82   -39954.735    2845.1243    -42799.86    97.828853   0.98622585 
   32000    226.19736    317.41083    126413.78   -39947.964    2814.3252   -42762.289    98.296876   0.98797371 
   32100    227.25548     389.2987    126330.46   -39965.459    2827.4902    -42792.95    98.832494   0.98862533 
   32200    224.04033    311.23728    126348.85   -39958.113    2787.4877   -42745.601    98.910504   0.98848142 
   32300    222.78226    242.73797    126395.98   -39919.594    2771.8349   -42691.429    99.016958   0.98811285 
   32400    220.94198    521.48898    126606.48   -39968.823    2748.9383   -42717.761     99.25878   0.98646999 
   32500    220.53114    109.06114    126501.25   -39970.842    2743.8267   -42714.669    99.545391   0.98729054 
   32600    225.44215    277.14766    126388.21     -39894.2     2804.929   -42699.129    99.957709   0.98817359 
   32700    226.77094    493.01347    126434.66   -39957.123    2821.4616   -42778.585    100.66897   0.98781054 
   32800    222.82963     334.5518    126113.49   -39991.198    2772.4242   -42763.622    100.91797   0.99032618 
   32900      225.868    282.13036    126297.49   -40001.922    2810.2273   -42812.149     101.3359   0.98888337 
   33000    222.71127    428.24571    126236.98   -40055.145    2770.9516   -42826.097    101.47006   0.98935737 
   33100    227.39477    374.59163    126320.42   -40000.529    2829.2232   -42829.752    101.61005   0.98870389 
   33200    225.46765    231.71698    126494.21   -40064.577    2805.2462   -42869.824    102.48609   0.98734555 
   33300    224.07754    432.58335    126441.66   -40018.084    2787.9506   -42806.035     102.6864   0.98775586 
   33400    222.05701    223.89215    126353.07   -40097.039    2762.8113   -42859.851    102.33664   0.98844845 
   33500    221.64947    399.82157    126391.18   -40056.715    2757.7408   -42814.456    102.44359   0.98815034 
   33600    221.07025    385.15124    126407.42   -40029.824    2750.5342   -42780.358    102.89765   0.98802345 
   33700    221.80012    221.62615    126330.48    -40008.92    2759.6152   -42768.535    103.12404   0.98862514 
   33800    226.76926    200.04418    126170.87   -40001.154    2821.4407   -42822.595    103.20136   0.98987581 
   33900    224.22691     410.8339    125937.26   -40003.749     2789.809   -42793.558    103.63584   0.99171197 
   34000    226.19744    516.07677    125969.28   -39957.211    2814.3262   -42771.538    103.98999   0.99145993 
   34100    225.96045    447.45488    126116.06   -39993.151    2811.3775   -42804.529    104.12716   0.99030598 
   34200    224.18411    457.84088    126149.21   -40006.736    2789.2765   -42796.013     104.3064   0.99004576 
   34300    218.83754    537.69317    126005.08   -40055.498     2722.755   -42778.253    104.64145   0.99117821 
   34400    221.38175    405.51449    125806.15   -39986.549    2754.4099   -42740.959     104.9117   0.99274549 
   34500    222.81991    343.66107    125948.79   -39996.275    2772.3033   -42768.579    105.54417   0.99162123 
   34600    223.43349    337.35103    126028.78   -39965.572    2779.9374   -42745.509     105.9519   0.99099179 
   34700    220.04607    377.82049    125670.03   -40023.588    2737.7915   -42761.379    106.19577   0.99382078 
   34800    223.09408    208.45727    125744.28   -40015.006    2775.7145   -42790.721    106.88107   0.99323401 
   34900    226.64829    245.66865    125833.53   -40028.836    2819.9356   -42848.772    107.46687   0.99252952 
   35000    216.51414    233.01962    125809.83   -40103.606    2693.8476   -42797.453    107.48099    0.9927165 
   35100    225.28478    352.75149    125644.64   -40020.925     2802.971   -42823.896     107.4826   0.99402165 
   35200    224.75116    250.45732    125706.84   -40009.546    2796.3317   -42805.878     108.0653    0.9935298 
   35300    223.65468    297.60925    125559.15   -39980.975    2782.6895   -42763.664    108.43868   0.99469844 
   35400    221.47839      323.428    125717.96   -40015.453    2755.6122   -42771.065    108.74615   0.99344192 
   35500    229.75454    320.04926     125779.1   -39894.593    2858.5832   -42753.176      109.346   0.99295903 
   35600    225.98882    288.77808    126093.16   -39947.448    2811.7306   -42759.178    109.53765   0.99048584 
   35700     226.6847    383.79578    126102.25   -39905.373    2820.3886   -42725.761    110.05539   0.99041448 
   35800    226.65728    429.73133     126273.8   -39944.439    2820.0475   -42764.487    110.42011   0.98906894 
   35900    224.26319    538.25546    126354.26   -39886.664    2790.2605   -42676.924    110.73047   0.98843909 
   36000    227.27836    221.44546    126121.62   -39850.992    2827.7749   -42678.766    110.84216   0.99026235 
   36100    228.43945    155.67893    125946.67    -39862.89    2842.2211   -42705.111    111.49537   0.99163791 
   36200    226.35886     380.7693    125962.72   -39904.316    2816.3346    -42720.65    111.56588   0.99151155 
   36300    226.66725    338.84802    125973.28   -39966.386    2820.1716   -42786.557    112.06035   0.99142845 
   36400     227.5217     352.7412    125729.88   -39922.929    2830.8025   -42753.732    112.15345   0.99334775 
   36500    227.24942    369.76345    125776.05     -39899.7    2827.4149   -42727.115    112.75924   0.99298312 
   36600    223.36122    234.47758    125773.62   -40029.262    2779.0383     -42808.3    112.86487   0.99300228 
   36700    220.95692    605.07647    125952.11   -39961.204    2749.1241   -42710.328    113.35271   0.99159505 
   36800    220.32872    178.24545    125868.56   -39959.282    2741.3081    -42700.59    113.60976   0.99225328 
   36900    222.64005    495.80075    125782.44   -39970.648    2770.0655   -42740.714     114.0054   0.99293268 
   37000    225.31693    265.51512    125756.04   -39917.764    2803.3709   -42721.135    114.27033   0.99314113 
   37100    228.41914    396.86814    125801.57   -39897.983    2841.9683   -42739.951     114.6035   0.99278164 
   37200     226.4592    230.36899    125784.61    -39971.13    2817.5829   -42788.713    115.24407   0.99291551 
   37300    222.50651    487.21957    125853.96   -39986.236     2768.404    -42754.64    115.48048   0.99236838 
   37400    223.65007    388.56889    125817.21   -40022.006    2782.6321   -42804.638    115.45515   0.99265823 
   37500    224.25696    259.53739    125636.61   -40026.163    2790.1829   -42816.346    115.21529   0.99408517 
   37600    224.94257    341.57905    125453.75   -39980.669    2798.7132   -42779.382     115.2957   0.99553413 
   37700    220.89318    307.17733    125735.45   -39977.528    2748.3311    -42725.86    116.09855   0.99330376 
   37800    220.27265    222.16031    125659.76   -40077.271    2740.6105   -42817.881    116.22945   0.99390206 
   37900     223.0348    412.51336    125718.44   -40057.566    2774.9769   -42832.543    116.25825   0.99343815 
   38000    224.80025    255.82942    125734.47   -40027.784    2796.9424   -42824.726    116.76277   0.99331149 
   38100    224.48762    402.49839    125744.93   -39978.243    2793.0528   -42771.296    117.13272   0.99322883 
   38200    227.96148    265.41192    125850.65   -39980.188    2836.2742   -42816.462    117.61584   0.99239448 
   38300    225.54096    204.27104    125837.61   -39919.879    2806.1583   -42726.038    118.04202   0.99249736 
   38400    223.65957    390.54231    125704.73    -39964.34    2782.7503    -42747.09    118.58991   0.99354644 
   38500    226.52702    195.67533    125393.81   -39961.405    2818.4268   -42779.832    118.72735   0.99600999 
   38600    224.29686    332.52313    125326.22   -39915.788    2790.6794   -42706.467    118.94501   0.99654717 
   38700    226.43417    257.04156    125434.88    -39906.09    2817.2715   -42723.361    119.16969    0.9956839 
   38800    223.49854    249.66978    125332.46   -39922.469    2780.7467   -42703.216    119.41618   0.99649753 
   38900    225.33247    284.55628     125235.7   -39873.573    2803.5643   -42677.137    119.59091   0.99726749 
   39000    227.73376    168.15963    125220.18   -39922.822    2833.4409   -42756.263     120.0642   0.99739111 
   39100    225.81827    347.66073     125386.8   -39887.929    2809.6086   -42697.538    120.19962   0.99606572 
   39200    222.98476    264.79038    125372.76   -39909.995    2774.3544   -42684.349    120.45228   0.99617722 
   39300     227.5665    358.77691    125502.78   -39906.287    2831.3599   -42737.647    120.77777   0.99514525 
   39400     224.2179     482.7294    125615.46   -39865.785    2789.6969   -42655.482    121.52103   0.99425258 
   39500    226.48347    376.29395    125569.71   -39861.238    2817.8849   -42679.123     121.5495   0.99461482 
   39600    226.84697    307.73446    125432.38   -39895.226    2822.4076   -42717.634    121.73195   0.99570373 
   39700    225.26169     450.0976    125505.21   -39835.216    2802.6837     -42637.9      122.179   0.99512597 
   39800    224.59285    183.81214    125258.01   -39895.709     2794.362   -42690.071    122.43295   0.99708982 
   39900    222.91425    503.80028    125297.41   -39948.358    2773.4771   -42721.835    123.11955   0.99677629 
   40000     218.6105    204.44648    125355.35   -39942.323    2719.9302   -42662.253    123.29013   0.99631562 
   40100     227.1014     292.0474    125582.85     -39848.8    2825.5732   -42674.373    123.45186   0.99451076 
   40200    224.78191    427.72089    125757.21   -39887.624    2796.7143   -42684.338    123.83409   0.99313188 
   40300    223.53874    369.91012    125858.83   -39851.901    2781.2469   -42633.148     124.1152   0.99232999 
   40400     230.3447     214.4777    125774.43   -39762.998     2865.926   -42628.924     124.2367   0.99299585 
   40500    227.52599    407.42651    125662.12   -39787.328    2830.8559   -42618.184    124.53535   0.99388337 
   40600    226.72863    399.14804    125703.78   -39818.086    2820.9352   -42639.021    125.05417   0.99355395 
   40700    227.90467    140.37766    125631.95   -39875.411    2835.5673   -42710.978    125.50042   0.99412204 
   40800     224.0531    411.88103     125505.4   -39933.733    2787.6465    -42721.38     125.5311   0.99512445 
   40900    219.03814    419.02319    125728.07   -39979.039    2725.2509    -42704.29    125.97262   0.99336206 
   41000    223.64722    317.17226    125886.09   -39903.891    2782.5966   -42686.487    126.44983   0.99211507 
   41100    223.82031    456.20012    125786.67   -39881.104    2784.7501   -42665.854    127.20197   0.99289928 
   41200    227.58311    433.27436    125642.97   -39904.801    2831.5665   -42736.368    127.49912   0.99403484 
   41300    220.68858    167.75312    125374.26   -40056.196    2745.7855   -42801.981    127.92496   0.99616531 
   41400    219.73884    388.67766    125501.46   -39999.843     2733.969   -42733.812    127.97811   0.99515569 
   41500    215.17163    204.92426    125449.18   -39986.669    2677.1442   -42663.813    127.96219   0.99557038 
   41600    222.23868    258.76435    125498.15   -39923.551    2765.0716   -42688.623    128.66793   0.99518195 
   41700    223.04987    400.00408    125525.83   -39889.771    2775.1645   -42664.936    128.85929   0.99496245 
   41800    218.61579    313.75916    125350.04   -39896.958     2719.996   -42616.954    128.86995   0.99635781 
   41900    224.04932    552.06948    125504.04   -39865.801    2787.5995     -42653.4    129.15525   0.99513521 
   42000    228.95311    316.42739    125531.59    -39860.88     2848.612   -42709.492     129.4253   0.99491686 
   42100    221.22616     351.2893    125559.13   -39863.219     2752.474   -42615.693    129.71452   0.99469858 
   42200    233.37848    418.70571     125454.5   -39818.409     2903.672   -42722.081    130.40045   0.99552819 
   42300    227.22632    429.12983    125637.76   -39793.979    2827.1274   -42621.107    130.97724    0.9940761 
   42400    222.76998     242.8607    125455.97   -39827.399    2771.6821   -42599.081    131.69342   0.99551649 
   42500    224.17957    299.13827    125295.54    -39820.95      2789.22    -42610.17    131.95179    0.9967912 
   42600    229.86518    402.37133    125394.61    -39837.95    2859.9599    -42697.91    132.22576   0.99600363 
   42700    227.88681    332.82071    125507.37   -39867.583    2835.3452   -42702.928     132.5995   0.99510884 
   42800    228.36089      562.787    125665.43   -39822.216    2841.2436    -42663.46    133.05634   0.99385722 
   42900    225.70455    406.99382     125967.5    -39891.64    2808.1937   -42699.834    133.63746   0.99147388 
   43000    224.29515    137.31498    125761.42   -39918.098    2790.6581   -42708.756    133.95557   0.99309858 
   43100    225.80463    253.40717    125782.98   -39908.128    2809.4389   -42717.567    134.15686   0.99292841 
   43200    223.27777    353.47686    125749.86   -39867.977    2777.9999   -42645.977    134.57006   0.99318992 
   43300    230.44887    574.04211    125819.42   -39902.563    2867.2221   -42769.785    134.65209   0.99264079 
   43400    228.96481    471.79906    125897.56   -39850.369    2848.7575   -42699.127    134.71607   0.99202468 
   43500    223.72128    307.50901     125778.2   -39856.326     2783.518   -42639.844    134.82919   0.99296613 
   43600    230.62147    262.39756    125909.29   -39748.202    2869.3695   -42617.572    135.11673    0.9919323 
   43700    231.61429    242.35518       125810   -39771.788     2881.722    -42653.51    135.45262   0.99271517 
   43800    226.20681    366.95189       126033   -39770.923    2814.4428   -42585.366    135.75362   0.99095862 
   43900    228.20496    418.36882    125654.27   -39817.626    2839.3036    -42656.93    136.06068   0.99394547 
   44000    226.96279    298.84189    125447.21   -39860.823    2823.8486   -42684.671    136.30873   0.99558605 
   44100    225.96722    562.20914       125380   -39876.109    2811.4618   -42687.571    136.46408   0.99611974 
   44200    223.52332    290.30666     125487.3   -39918.129     2781.055   -42699.184    136.95277   0.99526795 
   44300    226.74324    507.34024    125384.45   -39922.313     2821.117    -42743.43    137.19964   0.99608435 
   44400    222.26986    591.26326    125428.22   -39880.229    2765.4596   -42645.688    137.26993   0.99573681 
   44500    223.78944    241.23712    125658.65   -39908.584    2784.3661    -42692.95    137.61557   0.99391082 
   44600    216.19921    324.60545    125695.37   -39967.936    2689.9292   -42657.865    138.21192   0.99362047 
   44700    219.50297    433.50051    125739.77   -39952.079    2731.0343   -42683.113    138.76624   0.99326962 
   44800     226.7015     422.2408    125725.49   -39915.375    2820.5976   -42735.972    139.33316   0.99338245 
   44900     227.7096    479.26808    125944.82   -39880.633    2833.1404   -42713.773    139.88824   0.99165243 
   45000    224.03136    409.60878    125814.22   -39890.404    2787.3761    -42677.78    140.38988   0.99268187 
   45100    230.17978    270.21798    125968.17   -39835.822    2863.8741   -42699.696    140.44224   0.99146868 
   45200    228.29188    366.29231    125961.37   -39895.208     2840.385   -42735.593    140.83429   0.99152219 
   45300    223.67848     416.7373    125967.59   -39920.986    2782.9855   -42703.972     141.1889    0.9914732 
   45400    224.53247    546.45203    126232.92   -39892.093    2793.6108   -42685.704    141.59263   0.98938925 
   45500    226.23848    446.83013    126310.43   -39890.362    2814.8368   -42705.199     142.0512   0.98878206 
   45600    228.62712    314.66959     126267.4   -39896.316    2844.5561   -42740.872    142.14788   0.98911909 
   45700     230.0567    408.13618     126100.4   -39921.108    2862.3427   -42783.451    141.72949   0.99042902 
   45800    230.30194    148.97033    126029.39   -39895.574     2865.394   -42760.968    141.91686   0.99098706 
   45900    228.30346    412.47666     126037.2   -39839.257     2840.529   -42679.786    142.00593   0.99092559 
   46000    229.15943    265.28948    125971.66   -39814.796     2851.179   -42665.975    142.23899   0.99144121 
   46100    234.15287    414.59989    125916.58   -39751.951    2913.3069   -42665.257     142.4441   0.99187491 
   46200    233.86898    247.69692    125834.78   -39745.545    2909.7747   -42655.319    142.59449   0.99251965 
   46300    229.81716    261.17156    125836.82   -39770.552    2859.3624   -42629.915    142.60629   0.99250359 
   46400    224.93137    336.00694    125608.79   -39814.805    2798.5739   -42613.378    142.90667   0.99430532 
   46500    224.25181     402.3903    125546.07    -39835.26    2790.1189   -42625.379    143.31376   0.99480204 
   46600    233.25727    347.38054    125603.87   -39843.251    2902.1639   -42745.415    143.84651   0.99434429 
   46700    223.74118    155.40262    125424.47   -39927.898    2783.7657   -42711.664    143.83869   0.99576653 
   46800    224.30644     238.0115    125152.43   -39951.249    2790.7986   -42742.048    144.16527   0.99793104 
   46900    225.59916    427.58669    125236.86   -39863.037    2806.8825   -42669.919    144.79204   0.99725827 
   47000     225.8335    199.54677    125401.57   -39843.178    2809.7981   -42652.976    145.30436    0.9959484 
   47100    226.42239    314.73528    125508.54   -39816.152     2817.125   -42633.277    145.50126   0.99509952 
   47200    228.03255    303.20136    125566.32    -39862.55    2837.1585   -42699.708    145.89242   0.99464161 
   47300    220.76319    458.74655     125410.7   -39871.886    2746.7138     -42618.6    146.05994   0.99587588 
   47400    222.54518    178.64879    125508.37   -39803.201    2768.8851   -42572.086    146.54608   0.99510091 
   47500     233.5629    356.66494    125432.18    -39736.08    2905.9665   -42642.046    146.66114   0.99570531 
   47600    228.97258    252.61461    125447.22   -39689.916    2848.8542    -42538.77    146.92085     0.995586 
   47700    225.15556     278.8544    125433.03   -39725.006    2801.3632   -42526.369    147.28866   0.99569856 
   47800    224.41493    449.44402    125600.03   -39737.404    2792.1484   -42529.552    147.68223   0.99437469 
   47900    225.82003     289.2146    125582.36   -39813.959    2809.6305   -42623.589    148.04819   0.99451459 
   48000    220.03767    476.52002    125348.52   -39843.483    2737.6869    -42581.17    147.93204   0.99636988 
   48100    224.12325    395.39498    125420.47   -39806.299    2788.5194   -42594.818    148.41987   0.99579828 
   48200    224.64245    211.27816    125420.61   -39853.991    2794.9792    -42648.97    148.81375    0.9957972 
   48300      227.903    410.19389    125439.51   -39839.421    2835.5466   -42674.968    149.64739   0.99564715 
   48400    232.01548    419.81068    125417.92   -39779.952    2886.7136   -42666.666    150.66439   0.99581859 
   48500    225.74272    448.54693    125312.94   -39855.952    2808.6687   -42664.621    151.04965    0.9966528 
   48600    224.72317    528.32356    125267.85   -39866.253    2795.9834   -42662.237    151.79331   0.99701155 
   48700    229.53979     482.3104    125404.81    -39836.08    2855.9114   -42691.991    152.29009   0.99592265 
   48800    222.51199     411.0973    125462.78   -39881.035    2768.4722   -42649.507    153.12236   0.99546248 
   48900    223.02796    382.74497    125874.86   -39878.519    2774.8918    -42653.41    153.65923   0.99220364 
   49000    230.06357    226.29578    125751.97   -39931.808    2862.4281   -42794.236    153.99296   0.99317324 
   49100    223.65749    493.59195    126005.59   -39928.235    2782.7244   -42710.959    154.34931    0.9911742 
   49200    222.10556    319.40313    126205.12   -39953.021    2763.4155   -42716.437    154.66726   0.98960714 
   49300    225.99243    212.54879    126081.25   -39892.968    2811.7754   -42704.743    155.07317   0.99057945 
   49400    227.63809     388.1449    126263.77   -39866.083    2832.2506   -42698.333    155.36913   0.98914748 
   49500    226.10131    341.17794    126055.92   -39886.884    2813.1302   -42700.014    155.47999   0.99077843 
   49600     224.8694     432.5326    125915.82   -39887.945    2797.8028   -42685.747    155.91917   0.99188084 
   49700    223.56163     490.4975    125500.86   -39908.613    2781.5317   -42690.145    155.64461   0.99516042 
   49800     221.5807    423.65643    125557.27   -39945.466    2756.8852   -42702.351    156.30264   0.99471334 
   49900     230.0851    385.61745    125784.43   -39821.957    2862.6961   -42684.653    156.29402   0.99291694 
   50000    227.41392    167.24017    125882.58   -39859.837    2829.4615   -42689.299    157.04709   0.99214274 
   50100    228.39052    422.63806    125763.39   -39861.896    2841.6123   -42703.509    157.65206   0.99308305 
   50200    229.26687    467.05014    125890.76   -39911.618    2852.5158   -42764.134     157.5884   0.99207826 
   50300    228.56973    411.03393    125929.21   -39895.965     2843.842   -42739.807    157.41395   0.99177538 
   50400    225.61962    470.72052    126139.44   -39918.382     2807.137   -42725.518    157.84524   0.99012247 
   50500    227.00773    391.48274    126265.48   -39965.634    2824.4077   -42790.042     158.3308   0.98913412 
   50600    223.85289    136.78531    126076.37   -39999.249    2785.1555   -42784.404     158.5424   0.99061778 
   50700    220.55877    584.29606    126035.17   -40012.751    2744.1704   -42756.921    159.01637    0.9909416 
   50800    219.62819    123.04845    126061.92   -40030.034    2732.5923   -42762.626    159.31088   0.99073128 
   50900    225.65803     317.8011    125988.87   -39943.653    2807.6149   -42751.268    159.17495   0.99130572 
   51000    227.55804    382.92912    125955.85   -39999.974    2831.2546   -42831.229    159.33466   0.99156564 
   51100    224.59666    324.72744    125910.44   -40038.992    2794.4094   -42833.402    159.32244    0.9919232 
   51200    229.70615    313.78128    125800.93   -40024.872    2857.9812   -42882.853    159.29802   0.99278671 
   51300    221.58047    444.83559    125998.66   -40090.808    2756.8822    -42847.69    159.72445   0.99122874 
   51400    221.32021    404.27246    125886.16   -40097.948    2753.6442   -42851.592    159.90333   0.99211458 
   51500    225.35951    124.19434    125845.61   -40094.566    2803.9008   -42898.467    160.04981   0.99243425 
   51600    223.85424    449.76644    125833.16   -40044.416    2785.1723   -42829.588    160.45202   0.99253242 
   51700    224.39122    394.43616    125901.03   -40053.941    2791.8533   -42845.794    161.18017   0.99199737 
   51800    222.52182    422.90387    125966.07   -40106.862    2768.5945   -42875.457    161.88153   0.99148516 
   51900    224.34364    271.80623    125981.45   -40146.598    2791.2614   -42937.859    162.22256   0.99136411 
   52000    224.33507    350.67699    126098.66   -40158.871    2791.1547   -42950.026     162.7953   0.99044265 
   52100    224.95429    430.70873    126152.08   -40092.067     2798.859   -42890.926    162.86704   0.99002325 
   52200    223.41617    428.44064    125868.68   -40102.991    2779.7219   -42882.713     162.7776   0.99225235 
   52300    224.38807    353.92543    126031.99   -40074.505    2791.8141   -42866.319    162.96989   0.99096656 
   52400    222.23138    242.26742     125844.5   -40004.648    2764.9808   -42769.629    163.17508   0.99244299 
   52500    223.01282    311.58372    125862.46   -39987.153    2774.7035   -42761.857    163.55304   0.99230136 
   52600    223.33951    493.08055    125915.57   -40016.271    2778.7681   -42795.039     163.7081   0.99188282 
   52700    223.45452    432.69096    125972.78   -40043.291     2780.199    -42823.49     163.8665   0.99143239 
   52800    224.76066    366.52405    126098.08    -39979.38    2796.4499    -42775.83    164.73605   0.99044724 
   52900    222.61908    333.95334     126084.3   -39967.611    2769.8046   -42737.416    165.02021   0.99055547 
   53000    226.99654    466.80459    126165.96   -39940.593    2824.2685   -42764.862    165.21977   0.98991435 
   53100    223.58358    400.00909     126079.2   -39986.833    2781.8048   -42768.637    165.45704   0.99059548 
   53200    223.66771    394.90372    125942.19   -39975.736    2782.8515   -42758.587    165.73091   0.99167318 
   53300    226.04342     283.3774    126106.65   -39963.415    2812.4099   -42775.825    165.55517    0.9903799 
   53400     220.5146     278.4932    126062.52   -40050.373    2743.6208   -42793.993    165.61216   0.99072657 
   53500    223.91721    479.44917    126198.83   -40071.413    2785.9559   -42857.369    165.91026   0.98965653 
   53600    222.49133    200.11794    126393.93   -40080.771    2768.2151   -42848.986     166.0848   0.98812885 
   53700    222.14933    570.95671    126186.89   -40105.638      2763.96   -42869.598    166.49969   0.98975015 
   53800    225.35131     365.8918    126333.35   -40003.472    2803.7987    -42807.27    166.91389   0.98860268 
   53900    222.75792    388.57122    126149.31   -40052.599     2771.532   -42824.131    166.93882   0.99004498 
   54000    226.65443    515.90071    126083.66   -40025.902     2820.012   -42845.914    167.18192   0.99056047 
   54100    224.47071    439.84394    126054.47   -40048.324    2792.8424   -42841.167    167.79195    0.9907899 
   54200    221.69018    442.57508    126213.04   -40010.624    2758.2473   -42768.872    168.17009   0.98954509 
   54300    225.86562    371.68786    126049.15   -39990.723    2810.1977   -42800.921    168.35881   0.99083166 
   54400    225.70204    301.28985    126006.19   -40020.396    2808.1624   -42828.558     168.9943   0.99116946 
   54500    228.79391    299.41368    125857.62   -40024.511    2846.6312   -42871.142    169.13366   0.99233954 
   54600    228.03111    325.02918    125987.15    -39936.82    2837.1405   -42773.961    169.53001   0.99131929 
   54700    227.89367    253.61104    125795.46   -39948.818    2835.4305   -42784.248    169.38035   0.99282991 
   54800    224.54145    711.93369    125772.91    -40010.73    2793.7226   -42804.453    169.00776   0.99300789 
   54900    224.24479    424.14236    126127.02   -40074.142    2790.0315   -42864.173    169.55663   0.99021997 
   55000    220.80336    217.74736    125976.44   -40126.982    2747.2135   -42874.195    169.25301   0.99140359 
   55100    219.82229    442.60717    126119.19    -40080.71    2735.0072   -42815.717    169.39097   0.99028142 
   55200    220.00075    315.12062    126092.84   -40081.269    2737.2276   -42818.496     169.7686   0.99048835 
   55300    222.46143    393.82499    126228.39   -40028.526    2767.8431   -42796.369    170.16275   0.98942474 
   55400    222.31914    460.23418    126275.66   -39989.335    2766.0728   -42755.408    170.50855   0.98905434 
   55500    226.18228    482.87292    126327.77   -39941.217    2814.1375   -42755.354    171.06408   0.98864636 
   55600    223.33346    295.00998    126256.87    -39984.41    2778.6928   -42763.103    170.97278   0.98920155 
   55700    228.42661    258.47568    126134.15   -39979.281    2842.0614   -42821.342     171.1207   0.99016395 
   55800    226.82851    330.58071    126203.43    -39991.48    2822.1778   -42813.657    171.59653   0.98962044 
   55900    228.35158    425.68353    126194.45   -39960.655    2841.1278   -42801.783    172.24884   0.98969088 
   56000    227.79403    194.56012    126134.92   -39941.409    2834.1908     -42775.6    172.52746   0.99015794 
   56100    229.79029    472.20738    126095.53   -39902.069    2859.0281   -42761.097    172.97502    0.9904672 
   56200    225.95204    428.45656    126253.64   -39896.515    2811.2729   -42707.788     173.4555   0.98922684 
   56300    223.39206    326.35583    126120.92   -39926.817    2779.4219   -42706.239    173.52786   0.99026787 
   56400    225.43932    338.05416    126051.55   -39920.539    2804.8938   -42725.433    174.14303    0.9908128 
   56500    223.27118     311.6294    125840.14   -40003.321     2777.918   -42781.239    174.14834   0.99247736 
   56600    217.93135    591.33803    125794.85   -40010.938    2711.4803   -42722.418    174.50399    0.9928347 
   56700      224.282    189.32419    125792.97   -40033.831    2790.4945   -42824.325    175.03559   0.99284953 
   56800    223.13589    286.19948    126155.21   -39965.781    2776.2346   -42742.016    175.75382    0.9899987 
   56900    224.52224    260.10935    126045.02   -39954.556    2793.4835    -42748.04    176.31202   0.99086418 
   57000    228.45317    394.57118    126387.42   -39891.354    2842.3918   -42733.746    176.75606    0.9881798 
   57100    225.47387    257.78998    126344.34   -39956.904    2805.3237   -42762.227    176.90167    0.9885167 
   57200    222.42579     315.3867    126369.33   -40011.245    2767.3997   -42778.644    177.39965   0.98832125 
   57300    222.94949    267.00697    126251.13   -40056.697    2773.9156   -42830.613    177.39161   0.98924655 
   57400    219.66454    207.28851    126156.97   -40075.932    2733.0444   -42808.977    177.58936   0.98998484 
   57500    223.95016    174.71248    125957.97   -40123.366    2786.3657   -42909.732    177.84243   0.99154891 
   57600    220.11768    475.02724    126050.61   -40083.211    2738.6824   -42821.894    178.29945   0.99082017 
   57700    221.64319    396.03155    126128.38   -40134.943    2757.6626   -42892.606     178.8855   0.99020927 
   57800     217.7526    237.43957    126329.58   -40167.255    2709.2563   -42876.511    179.49825   0.98863219 
   57900    220.35919    193.44038    126335.29   -40133.262    2741.6873    -42874.95    179.87504   0.98858756 
   58000    217.49381    478.53995    126620.78   -40138.621    2706.0365   -42844.658    180.49152    0.9863586 
   58100    221.34687    452.07862    126436.48   -40053.384    2753.9758    -42807.36    180.36611   0.98779632 
   58200    225.89479    429.42891    126725.22   -39993.535    2810.5606   -42804.095     180.2089   0.98554569 
   58300    227.68635    86.294614    126679.04   -39919.417     2832.851   -42752.268    180.42386   0.98590496 
   58400    224.96117    391.70339    126477.88    -39934.36    2798.9446   -42733.305    180.48107   0.98747299 
   58500    227.28148    333.19847     126277.3   -39928.453    2827.8137   -42756.267    180.68079   0.98904154 
   58600    227.03387    380.22665    126219.42   -39907.713     2824.733   -42732.446    180.60684   0.98949502 
   58700    229.66397    297.40455    126442.97    -39936.33    2857.4564   -42793.786    181.11286   0.98774565 
   58800    224.61312    263.07521    126363.45   -39993.017    2794.6143   -42787.631    181.07656   0.98836721 
   58900    224.93265    357.61348    126444.92     -40046.1    2798.5898    -42844.69    181.74347    0.9877304 
   59000    224.48712    393.73275       126565    -40042.91    2793.0465   -42835.956    182.09892   0.98679327 
   59100    225.46265    470.12196    126411.65   -40044.113     2805.184   -42849.297    182.89974   0.98799035 
   59200    225.13317    328.90677    126551.08   -40039.826    2801.0847    -42840.91    183.39044   0.98690178 
   59300    225.52768    329.38421    126751.53   -40034.764     2805.993   -42840.757    184.02263    0.9853411 
   59400    223.12905    285.99753    126752.83   -40095.724    2776.1496   -42871.874    184.07329   0.98533097 
   59500    222.20138     418.6816    126604.04   -40070.978    2764.6076   -42835.586    183.99997   0.98648898 
   59600    225.83012    557.34302    126708.11   -40064.228    2809.7561   -42873.985    184.33249   0.98567874 
   59700    222.71979    354.16252    126518.87   -40088.552    2771.0576   -42859.609    184.61493   0.98715303 
   59800    222.04658    425.80545    126567.72   -40088.231    2762.6816   -42850.912    184.63691    0.9867721 
   59900      224.331    518.11573    126445.84   -40064.905    2791.1041    -42856.01    185.04179   0.98772318 
   60000    227.02974    356.85472    126580.19   -40107.541    2824.6816   -42932.222    184.99263   0.98667489 
   60100    220.84189    408.09659    126394.47   -40059.288     2747.693   -42806.981    185.08726   0.98812467 
   60200    227.27831    154.06729    126254.47   -40040.282    2827.7743   -42868.056    185.16276   0.98922032 
   60300    228.46173    307.38114    126219.93   -40010.543    2842.4983   -42853.041     185.4812   0.98949102 
   60400    224.90735    328.06467    126290.32   -39961.537     2798.275   -42759.812    186.04211   0.98893956 
   60500    228.66891    330.49519    126372.87   -39996.849    2845.0759   -42841.925    186.64872   0.98829351 
   60600    222.75732    368.04525    126343.96   -40041.759    2771.5245   -42813.283     187.5187   0.98851969 
   60700    224.58182    220.39452    126420.46   -40045.889    2794.2247   -42840.114    187.85849   0.98792153 
   60800    227.68259    388.01704    126399.96   -40011.414    2832.8042   -42844.219    188.07769   0.98808172 
   60900    223.84134    441.99499    126279.91   -39988.093    2785.0118   -42773.105    188.18303   0.98902104 
   61000    223.58965    345.35737    126440.67   -40031.451    2781.8804   -42813.331     188.3528   0.98776357 
   61100    223.05772    363.30348    126598.87   -40077.913    2775.2622   -42853.175    188.76425   0.98652927 
   61200    223.30041    277.91737    126517.41   -40063.245    2778.2816   -42841.527     188.6246   0.98716444 
   61300     219.9272    380.69561    126277.95    -40035.73    2736.3125   -42772.043     188.8828   0.98903642 
   61400    224.41316     251.0231     126337.2   -40051.717    2792.1264   -42843.844    189.30061   0.98857258 
   61500    224.47142    468.94794    126180.59   -40054.131    2792.8512   -42846.983    189.45962   0.98979957 
   61600    224.02978    373.61284     126111.2    -40019.54    2787.3564   -42806.896    189.34436    0.9903442 
   61700    222.15859    626.74654    126305.25   -40083.252    2764.0753   -42847.327    189.19743   0.98882265 
   61800    219.04407    483.57709    126318.36   -40126.676    2725.3247   -42852.001    189.52059   0.98872005 
   61900    219.58779    576.61334    126344.92    -40074.42    2732.0895   -42806.509    189.74267   0.98851219 
   62000     222.7468     403.5264     126406.6   -40024.508    2771.3936   -42795.901    190.29534   0.98802986 
   62100    226.42791    282.85976    126325.07   -40047.351    2817.1936   -42864.544    190.65796   0.98866751 
   62200    224.94939    524.68899    126456.46   -39986.868     2798.798   -42785.666    191.05645   0.98764026 
   62300    221.70398    398.97066    126532.89   -40022.463     2758.419   -42780.882      191.346   0.98704373 
   62400    224.70309    361.31054    126695.01    -39960.56    2795.7337   -42756.293    191.99108   0.98578065 
   62500    223.08951    99.522707    126500.61   -39985.423    2775.6577   -42761.081    191.89491   0.98729559 
   62600    222.30514    435.36339     126567.8   -39979.419    2765.8986   -42745.318    191.58887   0.98677143 
   62700    222.45491    151.53145    126439.74   -40011.898    2767.7619    -42779.66    192.19294   0.98777086 
   62800    225.79392    326.00466    126343.83   -40000.311    2809.3056   -42809.617    192.17718   0.98852073 
   62900    228.08279    413.01514    126446.22   -39953.386    2837.7836   -42791.169    192.38119   0.98772021 
   63000    232.45051    378.35107    126619.83   -39908.045    2892.1262   -42800.171     192.9489   0.98636593 
   63100    230.30458    334.93838     126332.3   -39909.043    2865.4268    -42774.47    193.20896   0.98861095 
   63200    228.37999      384.583    126320.97   -39956.932    2841.4813   -42798.413    193.57404   0.98869963 
   63300    225.09636    357.14815    126358.35   -40014.029    2800.6267   -42814.655     194.1115   0.98840712 
   63400    226.48799    263.44777    126099.59   -39934.616    2817.9412   -42752.557    194.02548   0.99043538 
   63500    224.58051    150.35875    126224.95   -40034.384    2794.2086   -42828.592    194.22435   0.98945167 
   63600    225.82672    413.85306    126049.92   -40033.659    2809.7138   -42843.373    194.49948    0.9908256 
   63700    218.20911    317.87334    126105.08   -40031.718    2714.9362   -42746.654    194.99244   0.99039219 
   63800    221.00964    288.36815       125980    -40130.03    2749.7801    -42879.81    195.39899   0.99137551 
   63900    220.38017    428.87165    125980.12   -40107.909    2741.9482   -42849.858    196.19794   0.99137459 
   64000    221.44808    384.72379    125956.75   -40089.103    2755.2351   -42844.338    196.16807   0.99155852 
   64100    226.05689    597.33502    126030.95   -39988.749    2812.5775   -42801.327    197.17935   0.99097475 
   64200    226.83379    290.14072    125978.61   -39985.825    2822.2436   -42808.068    197.59951   0.99138651 
   64300    228.88289    395.03182    126232.98   -39886.931    2847.7383   -42734.669    197.91308   0.98938879 
   64400    223.66849    381.86249    126265.65   -39895.064    2782.8613   -42677.926    198.15945   0.98913277 
   64500    225.47177    559.25326     126347.7   -39878.455    2805.2975   -42683.753    198.40585   0.98849038 
   64600     224.1882    328.19938    126261.02    -39934.98    2789.3275   -42724.307    198.82379   0.98916901 
   64700    224.61449    231.58879    126460.52   -39954.624    2794.6313   -42749.255    199.06579   0.98760853 
   64800    223.97112    528.25688    126359.01   -39974.325    2786.6266   -42760.952    199.94165   0.98840195 
   64900    221.26989    447.32486    126241.36   -39949.543    2753.0181   -42702.561    199.97673   0.98932308 
   65000    225.10758    304.33984    125874.54   -39910.973    2800.7662    -42711.74    199.98696   0.99220614 
   65100    225.66882    659.54236    125768.03   -39926.603    2807.7492   -42734.352    200.02949   0.99304641 
   65200     222.2689     237.3361    125707.97   -39907.418    2765.4477   -42672.866     200.2389   0.99352084 
   65300    228.13536    508.31371    125628.87   -39903.256    2838.4376   -42741.694    200.22738    0.9941464 
   65400    229.92829    599.59549    125533.05   -39852.285    2860.7451    -42713.03    200.15467   0.99490529 
   65500    225.98153    189.66812    125530.33   -39912.251    2811.6399   -42723.891     200.5459   0.99492681 
   65600    227.37738    351.12955    125513.03   -39954.181    2829.0069   -42783.188    200.79897   0.99506391 
   65700    223.24946    307.68941    125691.08   -40013.315    2777.6477   -42790.963    201.25363   0.99365437 
   65800    226.10243    517.27485    125624.95   -40022.928    2813.1441   -42836.072    201.40364   0.99417743 
   65900     221.6324    287.67427    125663.83   -39988.948    2757.5284   -42746.477    201.80764   0.99386986 
   66000    221.08428    361.48845    125606.88   -39883.223    2750.7087   -42633.932    201.70225   0.99432046 
   66100    232.61578    482.75108     125851.6   -39838.062    2894.1825   -42732.245    202.38233   0.99238699 
   66200    230.47182     149.3354    125893.23   -39813.848    2867.5076   -42681.355    202.93948   0.99205883 
   66300    229.93402    516.40203    125811.46   -39855.292    2860.8163   -42716.108    203.07675    0.9927036 
   66400    228.39137    141.32506    125805.18   -39906.135    2841.6228   -42747.758    203.14766   0.99275318 
   66500    224.32821    271.50171    125638.12   -39906.546    2791.0694   -42697.616    203.11616   0.99407322 
   66600    221.59617    397.80325    125715.88   -39928.471    2757.0777   -42685.549    203.82419   0.99345839 
   66700    224.75796    485.41595    125705.23   -39961.532    2796.4163   -42757.948    203.65292   0.99354255 
   66800    228.09221    130.69933    125757.19   -39903.488    2837.9007   -42741.389    204.75661   0.99313199 
[...]
   84600    221.02656    265.21937    126352.33   -40071.164    2749.9906   -42821.154    258.61879   0.98845417 
   84700    218.13673    251.39885    126373.98   -40066.983    2714.0356   -42781.019    259.33799   0.98828488 
   84800    225.39446    403.99229    126116.81   -40026.968    2804.3356   -42831.304    259.79653    0.9903001 
   84900    226.68873    464.92145    126161.96   -40023.408    2820.4388   -42843.847    260.06738   0.98994569 
   85000    226.87562    442.13749    126067.56   -39964.273     2822.764   -42787.037    260.24937   0.99068696 
   85100    226.77414     258.0384    126134.87   -39955.428    2821.5015    -42776.93     260.1764   0.99015833 
   85200    225.57497    300.43179     126205.2    -39972.67    2806.5815   -42779.252    260.58808   0.98960651 
   85300    221.49912    235.05529     126139.2   -40002.359    2755.8702   -42758.229    260.40207   0.99012432 
   85400    223.50545    613.46061    126074.04   -39999.879    2780.8327   -42780.712    260.20991   0.99063607 
   85500     222.6456    450.74623    126208.42   -39962.081    2770.1345   -42732.216    260.78351   0.98958127 
   85600    225.68988    447.71492    126059.41   -39939.449    2808.0111   -42747.461    260.87077   0.99075101 
   85700     224.2554    412.52676    126191.38   -39978.158    2790.1635   -42768.321    261.64367   0.98971496 
   85800    223.13445    416.65511     126292.1   -39997.777    2776.2167   -42773.994    262.14548   0.98892563 
   85900    226.21183     367.2834    126379.69   -39893.805    2814.5052   -42708.311    262.63239   0.98824018 
   86000    226.51073    346.05528    126307.94   -39961.736    2818.2242    -42779.96    262.81226   0.98880161 
   86100     225.0037     112.3977    126146.48   -39943.135    2799.4738   -42742.608    262.83984   0.99006716 
   86200    226.67891    234.81532    125945.58   -39910.218    2820.3166   -42730.534    263.24283    0.9916465 
   86300    226.25572    343.44955    126057.71   -39933.291    2815.0512   -42748.342    263.33854    0.9907644 
   86400    224.74714    481.67449    126058.61   -39952.805    2796.2817   -42749.087    263.07811    0.9907573 
   86500    224.13253    365.91026    126101.24   -39934.893    2788.6347   -42723.528    263.66328   0.99042241 
   86600    228.91207     469.0533    126215.99   -39879.446    2848.1013   -42727.547    263.65767   0.98952196 
   86700    232.86228     270.0538    126373.49   -39885.398    2897.2494   -42782.648    263.67751   0.98828873 
   86800    226.61949    226.75475    126257.28   -39969.754    2819.5773   -42789.331     263.6398   0.98919832 
   86900    229.95358    88.803439    125791.73   -39944.039    2861.0598   -42805.099    263.26944   0.99285936 
   87000    222.12261    303.10846    125843.65   -39941.266    2763.6276   -42704.894    263.63023   0.99244968 
   87100    221.04589    279.76136    125797.73   -39966.949    2750.2311    -42717.18    264.03239   0.99281195 
   87200    226.11609    299.07837    125655.73     -39946.6     2813.314   -42759.914    263.68608   0.99393393 
   87300    221.37496    437.35021    125717.63   -39932.802    2754.3253   -42687.128    263.61167   0.99344455 
   87400     224.4045    413.25877    125730.47   -39935.852    2792.0186    -42727.87    264.05526   0.99334309 
   87500    224.72313    246.44377    125764.66   -39941.745    2795.9829   -42737.728    264.16643   0.99307299 
   87600    225.18221    371.74594    125831.63   -39953.218    2801.6947   -42754.913     264.7814   0.99254447 
   87700    224.64467    242.96383    125858.26   -39947.893    2795.0067   -42742.899    265.44998   0.99233446 
   87800    226.20881    349.46484    125871.07   -39921.494    2814.4677   -42735.962    266.20599    0.9922335 
   87900    225.42959    395.96572    125942.25   -39950.661    2804.7726   -42755.434    266.56486   0.99167266 
   88000    223.83626      462.168    125950.56   -39975.925    2784.9487   -42760.874    267.62731    0.9916073 
   88100    227.87338    363.73123    125969.23   -39922.723    2835.1781   -42757.901    267.96983   0.99146034 
   88200    226.70924    443.51894    125842.11   -39912.857     2820.694   -42733.551    267.98915   0.99246185 
   88300    226.58326     431.0966    125844.16   -39943.599    2819.1265   -42762.725    268.28723   0.99244566 
   88400    217.61275     485.9518    125927.27   -40045.964    2707.5163   -42753.481    268.19766   0.99179067 
   88500    227.08456    490.79352    125871.48   -39964.223    2825.3637   -42789.586    267.95835   0.99223027 
   88600    222.56009    391.26529    125972.75   -39927.732    2769.0706   -42696.802    268.61884   0.99143258 
   88700    228.40161    322.99731    125988.63   -39906.345    2841.7503   -42748.095    268.89253   0.99130766 
   88800     229.6865    427.60127    126022.86   -39831.296    2857.7367   -42689.032    269.48706   0.99103839 
   88900    230.15583    526.75022    126172.14   -39874.544    2863.5761    -42738.12    269.49412   0.98986582 
   89000     225.1128    403.13159    126437.45   -39852.312    2800.8312   -42653.143    270.05732   0.98778875 
   89100    224.03414    440.71361    126703.33   -39962.844    2787.4106   -42750.255    270.99987   0.98571597 
   89200    225.95604    393.71433    126470.99   -39996.929    2811.3228   -42808.252    270.89132   0.98752679 
   89300    223.63155    280.47547    126524.87   -40028.312    2782.4017   -42810.713    271.31247   0.98710623 
   89400     223.7851      312.852     126594.2   -40076.879     2784.312   -42861.191     272.0827   0.98656569 
   89500    220.52605     341.1926    126590.47    -40134.78    2743.7633   -42878.543    272.47986    0.9865947 
   89600    222.07475    279.44405    126456.03   -40193.481     2763.032   -42956.513    272.77837    0.9876436 
   89700     220.2757    413.32809     126585.9   -40167.715    2740.6484   -42908.364    272.66052   0.98663032 
   89800    223.47679    363.87165    126828.46   -40136.275    2780.4761   -42916.751    273.49828   0.98474344 
   89900    218.16557    335.51462    126861.54   -40183.622    2714.3944   -42898.016     274.3886   0.98448665 
   90000    226.49337     285.4639    126981.67   -40095.116    2818.0081   -42913.124    274.65221   0.98355527 
   90100    218.05565    209.30903    126860.82   -40096.671    2713.0269   -42809.697    275.18111   0.98449224 
   90200    223.63089    450.35688    126599.37   -40139.179    2782.3935   -42921.573    274.55522    0.9865254 
   90300    222.10056    382.96269    126655.97   -40150.295    2763.3532   -42913.648    274.75639   0.98608455 
   90400    222.21196    203.27137    126521.62   -40134.434    2764.7393   -42899.174    275.02761   0.98713162 
   90500    222.04001    294.06914    126421.93   -40093.356    2762.5999   -42855.956    275.16288   0.98791001 
   90600    228.85596    364.33981     126433.8    -40009.76    2847.4033   -42857.163    275.33726   0.98781724 
   90700    229.39107    279.09906    126549.45   -40009.801    2854.0611   -42863.862    276.14858   0.98691455 
   90800    225.40797    307.45328    126387.98   -40049.038    2804.5037   -42853.541    276.32091   0.98817541 
   90900    220.61502    254.55145    126449.62   -40137.642    2744.8702   -42882.512    276.96723   0.98769372 
   91000    217.51593    302.03189    126394.93   -40128.473    2706.3116   -42834.784    277.01335   0.98812107 
   91100    220.16272    440.24258    126463.22   -40113.268    2739.2428   -42852.511     276.8793   0.98758749 
   91200    219.41803    391.47212    126353.59   -40043.368    2729.9775   -42773.346    277.02872   0.98844436 
   91300    225.68915    443.19973    126198.64   -39934.902    2808.0021   -42742.904    276.98502     0.989658 
   91400    228.82117    328.14318    126004.92   -39893.947    2846.9704   -42740.918    278.13898   0.99117947 
   91500    229.58815    250.66371    126125.96   -39906.339     2856.513   -42762.852    278.29154   0.99022828 
   91600    224.61321    266.81161    126025.35   -39940.356    2794.6153   -42734.971    278.74749   0.99101882 
   91700     222.2394    279.51349    126063.84   -40024.011    2765.0807   -42789.092    278.80475   0.99071622 
   91800    224.53418    343.12727    126252.62   -39999.186    2793.6321   -42792.818    279.19319   0.98923486 
   91900    227.52077    548.17504    126111.31   -39988.648    2830.7909   -42819.438    279.19665   0.99034332 
   92000    223.52346    433.93998    126244.68   -39983.167    2781.0568   -42764.223    279.19008   0.98929704 
   92100    220.80371    460.46526     126194.3   -40029.954    2747.2179   -42777.172    279.39881   0.98969205 
   92200     225.1635    511.57567    126063.35   -39954.171    2801.4621   -42755.633    279.40317   0.99072006 
   92300    230.47248    401.34836    126319.41   -39865.554    2867.5158   -42733.069    280.36701   0.98871182 
   92400    228.49466    285.32685    126413.08   -39894.475     2842.908   -42737.383    280.54463   0.98797919 
   92500    224.95592    425.44213    126150.51   -39940.971    2798.8793    -42739.85    279.96994   0.99003557 
   92600    226.95563    251.14858    126232.05   -39910.623    2823.7595   -42734.382    280.11548   0.98939603 
   92700    227.27497    438.11398    126240.53   -39903.829    2827.7328   -42731.562    280.55316   0.98932957 
   92800    223.89947    391.06277    126333.23    -39957.02    2785.7351   -42742.755    280.53492   0.98860366 
   92900    230.66742    255.83182    126235.27   -39926.333    2869.9412   -42796.274    280.73185   0.98937079 
   93000    222.97055    256.01877    126139.38   -39949.147    2774.1776   -42723.325    280.64897   0.99012288 
   93100    222.67565    443.04489    125939.92   -39874.202    2770.5084   -42644.711    280.30721   0.99169103 
   93200     226.2281    430.74538    126045.59   -39887.385    2814.7076   -42702.092    280.99694   0.99085963 
   93300    225.99116    205.46804    126074.93   -39893.951    2811.7597    -42705.71    281.64437   0.99062911 
   93400    224.38485    379.19312    126080.51   -39939.739    2791.7741   -42731.513     282.0676   0.99058523 
   93500    222.85308    140.50083    125667.53   -39984.708     2772.716   -42757.424    281.46311   0.99384062 
   93600    222.25208    293.25991    125702.54   -40060.046    2765.2384   -42825.285    281.60108   0.99356379 
   93700     221.9537    122.82588     125731.6   -40019.811     2761.526   -42781.337    281.90256   0.99333414 
   93800    226.30709    262.10695    125704.57   -39993.338    2815.6905   -42809.028    282.13577   0.99354776 
   93900     223.5776    284.32209    125762.16   -39967.327    2781.7305   -42749.057    282.16359   0.99309278 
   94000    225.43159    467.62487     125643.6   -39982.265    2804.7976   -42787.063    282.04596   0.99402985 
   94100    226.41286    482.40969    125682.12   -39999.301    2817.0064   -42816.307    282.12432   0.99372517 
   94200    220.22487    184.96786     125577.9    -39982.83    2740.0161   -42722.846     281.8252   0.99454991 
   94300    226.39199     358.7041    125365.87   -39916.936    2816.7468   -42733.683    281.98565   0.99623198 
   94400    229.01463    248.10918    125531.01   -39889.625    2849.3774   -42739.002    282.21572   0.99492144 
   94500    225.97969     210.5723    125732.39   -39805.722     2811.617   -42617.339    282.89448   0.99332793 
   94600    226.61768    321.49853    125817.04   -39834.284    2819.5547   -42653.839    283.60867   0.99265956 
   94700    223.38681    103.41383    125614.58   -39864.888    2779.3566   -42644.244    282.99104   0.99425953 
   94800    220.91109    424.79243    125803.81   -39860.864    2748.5539   -42609.418     283.4381   0.99276401 
   94900    222.16693     269.1522    125757.08   -39835.389     2764.179   -42599.568    284.06332   0.99313291 
   95000    226.29999    176.75134    125687.86   -39817.262    2815.6021   -42632.864    284.35899   0.99367981 
   95100    233.75254    187.14281     125803.3   -39831.479     2908.326   -42739.805    284.68027   0.99276801 
   95200    230.13146    443.56491    125883.86    -39860.02    2863.2729   -42723.293    284.61804    0.9921327 
   95300    225.57121    490.92119     126047.2   -39757.261    2806.5347   -42563.796    285.51318   0.99084698 
   95400    225.79364    309.51442    125808.58   -39818.923    2809.3021   -42628.225    286.00135   0.99272631 
   95500    221.91361    73.476013    125700.23   -39826.447    2761.0272   -42587.475    286.35474   0.99358201 
   95600    230.59458     158.1558    125416.08   -39817.592    2869.0349   -42686.627    286.60286   0.99583314 
   95700    225.37322     304.3951    125596.88   -39867.391    2804.0713   -42671.462    287.21533   0.99439964 
   95800    222.49053    362.15492    125545.37    -39901.44    2768.2052   -42669.645    287.20529    0.9948076 
   95900    226.74375    586.28743    125595.15   -39846.386    2821.1234   -42667.509    287.58423   0.99441334 
   96000    223.92054    284.86264    125458.96   -39921.477    2785.9973   -42707.474    287.85133    0.9954928 
   96100    222.37181    68.442706    125318.27   -39869.555    2766.7281   -42636.283    287.61577   0.99661038 
   96200    223.64022      518.484    125383.48   -39912.857    2782.5095   -42695.367    287.84981   0.99609211 
   96300    228.82092     378.3776    125370.55   -39868.331    2846.9672   -42715.298     288.3509   0.99619481 
   96400    228.80058    43.886044    125411.89   -39880.271    2846.7142   -42726.985     288.6331    0.9958664 
   96500     224.1386    221.40145    125317.02    -39928.15    2788.7103   -42716.861    288.95744   0.99662032 
   96600    227.46181    279.01184       125281   -39923.329    2830.0574   -42753.387    289.21872   0.99690685 
   96700    219.54028    311.65073     125242.5    -39998.66    2731.4985   -42730.158    289.99354   0.99721334 
   96800    220.39317    354.88553    125157.74   -40052.614    2742.1101   -42794.724    289.96642   0.99788866 
   96900    222.91773     345.7624    125413.07   -40003.372    2773.5204   -42776.893    290.63182   0.99585706 
   97000    224.62701    228.21856    125313.83   -40007.532     2794.787   -42802.319    291.25319   0.99664574 
   97100    219.63784    227.20761    125170.16   -39990.394    2732.7123   -42723.106    291.45417   0.99778964 
   97200    223.67254    284.49782    125094.21   -39990.933    2782.9117   -42773.845    291.85133   0.99839543 
   97300    221.26793    364.41839    125066.58   -40003.421    2752.9937   -42756.415    292.47782   0.99861602 
   97400     223.0742    150.02005    125084.44   -40005.633    2775.4672     -42781.1    293.27568   0.99847342 
   97500    228.10209    407.52959    125037.68   -39906.392    2838.0237   -42744.415     293.1523   0.99884682 
   97600    223.39045    375.29649    125215.46   -39968.712    2779.4018   -42748.114    294.15401   0.99742866 
   97700     228.1422    448.94344    125291.59   -39885.688    2838.5227   -42724.211    294.66063   0.99682264 
   97800    225.49106    269.52471    125261.55   -39851.855    2805.5375   -42657.392    294.92275    0.9970617 
   97900    224.19341    337.14693    125083.77   -39802.052    2789.3922   -42591.444    294.84967   0.99847882 
   98000    228.09883    190.39012    125210.48   -39815.594    2837.9831   -42653.577     295.8432   0.99746835 
   98100    221.60151      410.423    125173.55   -39881.236    2757.1441    -42638.38    295.65771   0.99776265 
   98200    227.37012    241.67185    125289.17   -39850.671    2828.9166   -42679.587    296.04541   0.99684187 
   98300    226.50785     547.6998    125303.69   -39883.909    2818.1882   -42702.097    297.08525   0.99672638 
   98400    226.39704    420.05074    125167.03   -39901.223    2816.8096   -42718.032    297.40214   0.99781463 
   98500    221.39241    519.26274    125568.41   -39915.065    2754.5424   -42669.608    298.52693   0.99462509 
   98600     224.9298    290.11123    125599.02   -39949.888    2798.5543   -42748.442    299.47176   0.99438268 
   98700     220.7741    268.76291    125796.32   -40006.752    2746.8495   -42753.601      299.934   0.99282307 
   98800    220.95133    347.39802    125770.56   -39977.825    2749.0547    -42726.88    299.50351   0.99302641 
   98900    221.69401    314.94452    125782.21   -39980.419    2758.2949   -42738.714    299.54325   0.99293449 
   99000    216.32195    375.51103    125977.31    -40020.01    2691.4564   -42711.466     300.4491   0.99139675 
   99100    226.13956    275.26458     126073.5   -39940.375     2813.606   -42753.981    301.23273   0.99064031 
   99200     224.7139    240.71795    125922.11   -39941.574    2795.8682   -42737.442    301.20751   0.99183128 
   99300    227.98421    468.59623    125973.96   -39901.698     2836.557   -42738.255    301.65049   0.99142311 
   99400    229.34674    558.83327    125885.36   -39874.591    2853.5094   -42728.101    302.17031   0.99212087 
   99500    231.87818    293.28826     125873.6   -39767.562    2885.0054   -42652.567    302.70646   0.99221353 
   99600    226.97217    445.64939    125882.29   -39786.388    2823.9653   -42610.354    303.51131   0.99214504 
   99700    229.09191    335.05594    125804.86   -39798.927    2850.3388   -42649.266    303.83554    0.9927557 
   99800    225.40828    434.28715    126014.74   -39828.518    2804.5075   -42633.026    304.76779   0.99110226 
   99900    225.79042     241.2799    126239.02   -39901.028    2809.2621    -42710.29    305.38541   0.98934139 
  100000    227.10086    388.61683    126194.12   -39918.694    2825.5665    -42744.26    305.58342   0.98969345 
  100100    226.28468     385.6164    126244.27   -39852.623    2815.4117   -42668.035    306.14328   0.98930028 
  100200    227.49995     448.6685    126373.11   -39872.064    2830.5319   -42702.596    306.70655   0.98829167 
  100300    232.25707     295.6921    126506.73   -39861.209    2889.7195   -42750.929     307.2342   0.98724778 
  100400    226.39784    199.61753    126377.42   -39901.742    2816.8196   -42718.562    306.59053   0.98825793 
  100500    230.02305    402.75197    126099.72   -39821.792    2861.9241   -42683.716    306.57913   0.99043434 
  100600    228.47494    250.10411     126214.4   -39903.213    2842.6627   -42745.875    306.63042   0.98953442 
  100630    226.46847     324.6856     126140.6   -39892.779    2817.6983   -42710.477    306.52941   0.99011335 
Loop time of 97.4824 on 6 procs for 100000 steps with 4175 atoms

Performance: 443.157 ns/day, 0.054 hours/ns, 1025.826 timesteps/s
98.6% CPU use with 6 MPI tasks x no OpenMP threads

MPI task timing breakdown:
Section |  min time  |  avg time  |  max time  |%varavg| %total
---------------------------------------------------------------
Pair    | 80.058     | 81.482     | 82.854     |  10.1 | 83.59
Neigh   | 5.2488     | 5.2655     | 5.3009     |   0.8 |  5.40
Comm    | 6.729      | 8.1481     | 9.5774     |  32.5 |  8.36
Output  | 0.15888    | 0.15961    | 0.16321    |   0.4 |  0.16
Modify  | 1.7646     | 1.7841     | 1.8        |   1.0 |  1.83
Other   |            | 0.6428     |            |       |  0.66

Nlocal:        695.833 ave         711 max         683 min
Histogram: 1 1 1 0 0 1 0 0 1 1
Nghost:        1502.83 ave        1519 max        1478 min
Histogram: 1 0 0 0 1 1 0 1 1 1
Neighs:        0.00000 ave           0 max           0 min
Histogram: 6 0 0 0 0 0 0 0 0 0
FullNghs:      20006.7 ave       20652 max       19426 min
Histogram: 1 0 2 0 0 1 0 0 1 1

Total # of neighbors = 120040
Ave neighs/atom = 28.752096
Neighbor list builds = 5716
Dangerous builds = 0

undump              1
unfix               2
unfix               3
unfix               4


################################################
#######         Run Simulation         #########
################################################

reset_timestep      0
log                 log.run_${NAME}
log                 log.run_liquid_density_MLmW
