LAMMPS data file via write_data, version 29 Oct 2020, timestep = 800000

4175 atoms
1 atom types

-0.6015790875215146 50.60157908751886 xlo xhi
-0.6015790875215146 50.60157908751886 ylo yhi
-0.6015790875215146 50.60157908751886 zlo zhi

Masses

1 18.015

Atoms # atomic

1132 1 0.12428118518258902 2.089870677302811 1.124653996439081 0 0 0
2062 1 2.697988985884786 1.6726220577286224 1.0502728552781124 1 0 1
1906 1 6.323639416710601 1.9926083238244447 2.3322876413583176 1 0 1
254 1 8.024550296626112 1.1727070250415377 -0.036099309175411265 0 0 0
1949 1 10.691754886720787 0.8772659054843857 0.5894244647100784 0 0 1
427 1 16.667500084967575 2.214409726640397 0.604146223586719 0 0 0
2624 1 45.32947061275154 21.965091588570367 14.721382053888947 0 0 0
3840 1 20.681402338045817 1.1479369276905367 1.6876476251853432 0 1 1
2466 1 21.237427666805747 -0.09831226483051148 11.01666414904509 0 1 0
1426 1 27.412954417656177 1.030126865229498 -0.01259525561183561 0 0 1
220 1 29.044440397935695 1.6478855131572092 2.1215864657913257 0 0 0
1842 1 34.24828137884344 1.2638318415426026 1.362809943110502 0 0 1
2450 1 19.950758570593283 -0.4239204692890139 5.934013222945833 0 1 0
2052 1 0.898242439945528 14.023876886020956 -0.32690770127138474 0 0 1
451 1 44.5969003361509 -0.3146574999691319 0.5000990034249422 0 0 0
340 1 50.16721353877273 24.64003462213352 1.3274463143963264 -1 0 0
162 1 46.797515372156575 1.1764860161367958 1.3444781676234032 0 0 0
219 1 49.389001104160414 0.07712638222705981 2.0940378720835175 -1 0 0
578 1 4.6201028855982225 3.5545439237937284 0.6246270280180752 0 0 0
80 1 10.040461473186514 5.298608087759619 1.2996652794797794 0 0 0
13 1 14.225860747732106 3.7401554579259635 0.9016699354722073 0 0 0
90 1 9.615704919103283 11.286649610759268 -0.3635196184664956 0 0 0
195 1 19.112889174583437 3.381841224580644 1.2751395477818392 0 0 0
1972 1 22.428406554612444 5.621331684786548 1.644117880582323 0 0 1
247 1 24.04839095552468 3.463233308513596 2.0099302786808617 0 0 0
1468 1 30.55938096101244 3.719991927533891 0.972171263872422 0 0 1
3750 1 32.8738806543574 5.051243456173303 2.0516740272977616 0 1 1
1967 1 40.074684023743245 5.3644674948287445 1.1829806376363683 0 0 1
1805 1 42.540987902648865 4.186989051233931 0.5585830634377953 0 0 1
581 1 -0.1974153031945035 4.70163883711331 2.2063357968482205 1 0 0
1764 1 48.36738664496114 5.582886572622073 1.8591856334704082 0 0 1
2129 1 1.4497832502318317 6.723568942038426 1.2905165010627893 1 1 0
2063 1 0.9321089361773232 8.782817913121091 3.0121861937592436 1 0 1
193 1 3.900334360240614 5.648795085005234 1.9405978095952423 0 0 0
473 1 6.08603066635011 7.474619364915885 1.5272569680750556 0 0 0
59 1 8.013223866326745 6.279075593729027 -0.28864325081448505 0 0 0
687 1 11.25035275507298 7.1009782408670015 2.9986926578827955 0 0 0
627 1 12.759159369813975 7.751983349274406 0.583683487779804 0 0 0
1918 1 15.152423774753517 6.350483242344842 0.6496019425078929 0 0 1
354 1 17.14591135946102 6.912923410596584 2.7255545081822774 0 0 0
670 1 18.994590379920457 8.764085467767016 2.167011187055829 0 0 0
682 1 20.247578724114902 8.409225624272041 -0.12196937318077483 0 0 0
1707 1 24.84322438896767 7.298523190571567 0.9965198320532049 0 0 1
3605 1 29.785228041081034 6.505676069090438 1.4392543365288555 0 1 1
1398 1 2.838775857996701 16.670485896666396 15.845332974227091 1 0 0
49 1 7.133817321481702 20.508649909029398 -0.3444985487513972 0 0 0
2814 1 36.69845507827251 6.234563013073736 0.7777793179355632 0 1 0
461 1 40.26713500876939 8.099719708519663 1.6887007294961687 0 0 0
1898 1 2.59658623876977 10.570333244736242 1.870044716888212 1 0 1
2094 1 5.184188609107061 9.868251490668179 0.18703443830292454 1 0 1
2078 1 6.8613587667442655 12.329890474501338 -0.2662042408423055 1 0 1
344 1 10.301482301971363 11.200502622884265 2.277532889328908 0 0 0
2436 1 -0.5928795909307771 -0.35576968936353315 12.274805545916543 0 1 0
607 1 13.028792657001405 11.396880088109919 2.274847287357285 0 0 0
1987 1 46.50361672961074 24.937923986640385 5.61226100904652 0 0 1
176 1 33.07032152171289 24.59764782092193 9.591891587500507 0 0 0
1783 1 18.10048302509577 11.392158240482152 2.0725894246288235 0 0 1
1858 1 23.84890111831132 9.948346018691982 1.4355772783483407 0 0 1
1531 1 25.81643411342987 12.110092258883409 0.8125736710172586 0 0 1
1608 1 28.453637043289824 11.782060966495722 1.7227754379000548 0 0 1
653 1 30.996001462274663 10.622896706063397 1.0637244123286587 0 0 0
101 1 34.8997824289551 10.79753770526455 2.5520510233942866 0 0 0
866 1 6.07551725047466 9.78366204414941 16.216307829771775 0 0 0
1619 1 37.81613707967728 8.79617489758122 1.0561123028766186 0 0 1
1934 1 42.53573734275743 9.43741408732314 0.5005933310616648 0 0 1
139 1 45.28227101384662 9.88664793675815 1.497793833459752 -1 0 0
359 1 49.60632826033731 10.347705534034477 2.43293624554889 0 0 0
536 1 0.2158464378055711 14.548889558778688 2.320411669511575 1 0 0
631 1 7.75741761226589 13.276458692650445 2.248246317869351 1 0 0
32 1 13.263905519293585 14.171291956191356 2.285371593134882 0 0 0
678 1 19.86906357072443 13.7329007004455 1.991824531463156 0 0 0
1631 1 25.27381248649958 14.604421170608669 1.2073592528419483 0 0 1
1485 1 29.187643732782085 14.367576337220576 1.728207087921922 0 0 1
152 1 38.17916738496486 12.192749778711168 1.7614918898667828 0 0 0
382 1 40.039967412728835 13.535315719372193 0.45915344100298294 0 0 0
519 1 41.72551923387945 14.929739527067053 2.108741893905458 0 0 0
1567 1 43.968511649165045 13.785525296283646 3.177080163156198 0 0 1
1473 1 45.402599492626535 12.645035475853371 1.196005220055301 0 0 1
47 1 47.62481654914106 14.122021573836818 0.4306742915721613 0 0 0
43 1 49.11929861905284 13.218911719368691 2.4407130769449426 0 0 0
1685 1 0.7167974860998942 17.325349309063714 2.6331157980525766 0 0 1
325 1 3.041121923138919 17.513426975527988 1.0636135688753177 0 0 0
1540 1 4.961863421259158 16.616738158979878 3.08702851309331 1 0 1
392 1 6.8148032766664945 15.753474166831051 1.4226645516092713 0 0 0
218 1 9.288736427644611 17.310090208221983 1.685821562914359 1 0 0
1905 1 13.686834213273759 16.100849425144443 0.16595399817342282 0 0 1
1823 1 16.65185619566025 16.010495254656455 0.08907602386101388 0 0 1
533 1 18.469616919313044 15.90439201551376 2.0628819209484335 0 0 0
350 1 20.541160353069372 17.611680501771218 1.4004952398228911 0 0 0
104 1 26.786548197841356 18.197297459476715 3.157704887420524 0 0 0
2071 1 27.19030788317963 16.38715259673509 1.215174953938043 0 0 1
2059 1 29.491353443680712 -0.38842013701811806 10.109145420872228 0 0 1
89 1 33.30141555187589 17.61493544497618 1.9966406980015372 0 0 0
338 1 36.73642927821495 14.41353526967378 1.121700452558294 0 0 0
418 1 38.24141399850912 16.922577607975207 1.3158821562176164 0 0 0
102 1 40.954660699815534 17.527413530046523 1.730633105651548 0 0 0
63 1 43.31210077984571 17.18750479231797 0.018621552530253882 0 0 0
1644 1 45.74366526393483 17.285381663160955 1.5030825245663362 0 0 1
1729 1 47.96110423528018 16.98641951364506 -0.08690209609141963 0 0 1
7 1 49.894957917723545 18.405981257911545 1.2085257639694882 0 0 0
2002 1 1.5181571116912553 21.767039922128607 1.0294712572993987 0 0 1
1649 1 4.0556698692970565 20.336169374748486 0.5444116104096286 1 0 1
2089 1 6.050445480926116 21.202344781465115 2.4254771486106548 0 0 1
4146 1 10.716929755367158 19.052302362312687 -0.04926483581338592 0 0 1
1773 1 13.377317551093668 18.783299420469827 0.5842861535542545 0 0 1
349 1 46.885389560211294 6.416316363400197 -0.4898519655285943 0 0 0
442 1 18.31394758424696 19.661510898441065 1.3337709510683233 0 0 0
1886 1 22.816464633619063 21.48628789515866 0.9697459600196978 0 0 1
587 1 28.930616191119892 19.284118687102797 2.3805956932737993 0 0 0
266 1 37.00674184807511 19.822291955913297 1.1531494295345615 0 0 0
3564 1 44.70772093125388 21.577376621662484 0.7495691904037036 -1 0 1
490 1 46.090744494896455 19.8600217302155 2.4954691448723714 0 0 0
500 1 48.75496909238483 20.65591102646019 2.462617575087346 0 0 0
356 1 2.850139139356944 24.352562817614395 0.47691016040765755 0 0 0
3992 1 36.50182955458992 0.5473473997949863 -0.14573506477054687 0 1 1
33 1 6.977100881170967 24.113815347343518 1.7789503066467058 0 0 0
513 1 9.562797518416401 22.972382488564886 1.8670568599161879 0 0 0
694 1 30.91037411027143 14.552460458529119 -0.5939478747023718 0 0 0
656 1 13.48423958210958 23.739786492415295 1.8151776230122572 0 0 0
2027 1 19.860201188224607 21.792463876173677 1.723420056673632 0 0 1
530 1 18.915605792452105 24.345463091530732 0.7940814076010918 0 0 0
3635 1 26.447732078080282 23.70387925421711 0.4168076036171431 0 0 1
2432 1 23.867737407847347 23.64148903935528 -0.43577523806634805 0 0 0
2729 1 31.416946246466388 22.547095321085553 1.589257986986115 0 0 0
299 1 38.08424443861453 22.438609278813498 1.954399859930016 0 0 0
2522 1 39.42933810642076 23.655720142232546 0.04480923087907429 0 0 0
175 1 41.61480498686134 23.41654535552491 1.8636200554776567 0 0 0
681 1 44.36521103896656 23.703911661161765 2.4566161399002127 0 0 0
209 1 49.26640318139585 22.398532047288022 0.4042363527106283 -1 0 0
1733 1 39.83403860368494 19.736447657354727 -0.4666136364112735 0 0 1
330 1 0.5810965391692675 1.560219433979615 5.858106936475761 0 0 0
150 1 2.930246053713069 0.6410995049886132 5.137851597712239 0 0 0
632 1 4.649932075073563 2.725519909573134 4.702018224223473 0 0 0
2507 1 9.8358893104493 1.5676265040051582 3.4598928075773374 0 1 0
454 1 16.625534252468682 11.250330626433108 -0.3062363452976422 0 0 0
2211 1 32.04611895838507 -0.02668208013474116 13.79556678404283 0 1 0
1841 1 12.13473309168628 1.6114315414400515 4.9631509709344614 0 0 1
412 1 16.48549986615416 0.2790486475921349 3.2643003268351327 0 0 0
3725 1 32.54904883203854 16.708899456201085 -0.42153026917918024 0 0 1
3687 1 29.052895243634584 19.782138544363992 -0.2762266924912962 0 0 1
2313 1 22.67792584903909 1.6350804605015452 3.336613364948043 0 1 0
2057 1 21.44680776089337 1.8470497333731664 5.800901086888653 0 0 1
315 1 25.861189281810955 0.5877576828637943 5.64320277533743 0 0 0
2467 1 5.279971717694018 24.803673442750313 -0.4047336933057942 0 0 0
304 1 41.497375383492866 22.170383948137147 13.580125186620903 0 0 0
308 1 35.33743719846031 0.07552622072050053 5.95685532726139 0 0 0
389 1 38.15384686795302 0.7918470113791749 5.8651403884262185 0 0 0
600 1 39.395302550592675 1.022991578921652 3.5249228882489447 0 0 0
456 1 41.82306154651587 0.02367896216351495 4.291840651450467 0 0 0
83 1 49.82753186452418 0.022341537682391444 4.879357745128923 0 0 0
468 1 0.0774044740488179 4.00593838185094 4.941542714417193 0 0 0
187 1 1.9030584910673989 5.43317844864014 6.096559221654361 1 0 0
1861 1 4.249387314708316 5.42364685304879 4.631680399305172 0 0 1
1969 1 7.9490735990090045 4.527396253588283 5.717256264123458 0 0 1
380 1 8.371249847920565 3.8759272213432956 3.170939012049337 0 0 0
2003 1 13.672495377701278 3.7376227494527576 3.679288253610835 0 0 1
1607 1 16.23050755860646 2.805532287676593 4.630690415338704 0 0 1
1742 1 18.094646053985983 4.393625920744927 3.4127030576127577 0 0 1
1667 1 20.122612300655135 4.423280056065717 5.298489143031972 0 0 1
1115 1 25.88055306530146 4.638810223305758 3.5570658176814183 0 0 0
586 1 27.355790873136442 2.522267862798072 4.483405585146639 0 0 0
436 1 33.79038263410338 2.4588905904473806 5.454459951919577 0 0 0
2705 1 34.4016705884448 3.3081146462246243 3.1737829280332743 0 1 0
2069 1 36.61562076703476 4.926896704426751 3.255542720919987 0 0 1
2379 1 39.05359963986954 3.848312522076844 2.9487696645149204 0 1 0
539 1 40.27065943894376 4.167021826258716 5.485425554830544 0 0 0
3595 1 43.94489615244451 4.576473522193782 3.0622528640387765 0 1 1
1657 1 42.46611072820771 2.852690884297816 4.51814512113866 0 0 1
167 1 46.623148060211825 3.4989699415087587 2.678243618152654 -1 0 0
1997 1 47.16383046148576 2.8602906181814425 5.186893034600303 0 0 1
268 1 49.04530187414884 4.420428083026819 6.628567894719268 0 0 0
366 1 1.308507871794635 8.160311601498396 5.779080737827598 1 0 0
257 1 6.617734618417887 6.727656665654295 5.4635431229947296 0 0 0
1767 1 7.1036333738578925 8.592177334455144 3.6405562459720198 0 0 1
109 1 13.383495095101148 6.270065848406829 4.545194966876442 0 0 0
172 1 15.519733545565 7.808730141016346 4.682870274869732 0 0 0
1479 1 21.674850017849128 6.258470637291324 4.381856602166834 0 0 1
153 1 20.7892973389431 8.868731779798566 4.131786879482095 0 0 0
2665 1 24.115940602916066 6.002281891383411 5.497343689382052 0 1 0
2068 1 27.184494438783073 6.735233768961295 2.157542339387911 0 0 1
495 1 27.91649437148567 8.037125627169193 4.769479318083428 0 0 0
474 1 29.93430035570572 6.566507935025273 5.403397750709867 0 0 0
4058 1 32.13856344723849 7.046690561728823 3.795048770062463 0 1 1
126 1 34.315870171870586 6.95233683444661 5.720280176290206 0 0 0
2182 1 36.732359694236905 7.122750620274935 4.905673618912231 0 1 0
705 1 39.505099734182274 6.960233735584686 5.945447220577359 0 0 0
281 1 41.21717115390097 8.538879457097917 4.104849437966676 0 0 0
1832 1 43.85187824180278 7.094363192993932 4.036265429115045 0 0 1
494 1 48.52771364868271 7.908684075752868 3.6466810386537896 -1 0 0
123 1 48.61724578674485 7.2218232442776005 6.288751636938418 0 0 0
78 1 1.3031881097994882 11.91854717973509 5.809604915994333 0 0 0
8 1 4.830555143781352 10.200933035718325 3.7652589591521215 1 0 0
950 1 3.387157051480695 9.805311396067642 5.981551616023441 0 0 0
134 1 9.890440843307147 9.093794639172362 3.90581465733397 0 0 0
903 1 11.035179959689193 9.085820364872509 6.462719639725593 0 0 0
239 1 14.133416413066339 10.345133207420654 4.5634319450318905 0 0 0
440 1 16.23369625765731 12.044868032320496 4.0556238397273665 0 0 0
876 1 22.70167447660445 11.056583965931688 3.9865594455476323 0 0 0
424 1 24.336432135362596 10.720596873898453 6.517578187971437 0 0 0
233 1 26.572745760138233 12.144240414536766 6.124801383831422 0 0 0
317 1 28.35316887336188 10.783013622148166 4.273747925976749 0 0 0
58 1 30.924900269127747 11.038061466718595 5.05620932585945 0 0 0
51 1 32.46199482571761 9.728500281640908 3.0865616344530094 0 0 0
2630 1 37.07517057377677 9.900496001249929 3.971359108596359 0 1 0
319 1 40.76295702694513 11.005947759186276 5.183173872155827 0 0 0
1703 1 45.88872551129631 8.907417065831853 3.89733171736054 0 0 1
1760 1 45.596656666610244 10.705241254920121 6.219289975827581 0 0 1
671 1 49.714028352761886 11.211572937692662 5.222409222558773 0 0 0
263 1 2.2306578537621027 12.83344583204964 3.5275002947684095 0 0 0
1595 1 4.284473907055551 14.294916424702079 4.541422914561979 1 0 1
301 1 6.4669519533049025 12.456493252574809 4.363158360084169 0 0 0
365 1 10.482657026199073 14.751779962487124 2.5759051125835506 0 0 0
1877 1 9.646514946764247 14.418737466393278 5.268620859974851 0 0 1
178 1 13.903787551061463 15.371583049313106 6.217803398096108 0 0 0
1597 1 15.602526634696325 14.66234379745112 4.065724039958392 0 0 1
976 1 19.932184896497816 13.859344543554533 5.856256353387674 0 0 0
363 1 21.725448724483243 13.705569370638349 3.892243742107379 0 0 0
95 1 25.78550982246447 14.681556690445495 5.404769507019872 0 0 0
177 1 23.842322206893613 15.6162632022071 3.4357033024099852 0 0 0
516 1 31.783511418013823 13.640302421211585 5.213886298327822 0 0 0
253 1 29.90046646165082 15.219541350678847 4.164062961883042 0 0 0
489 1 34.224175839048826 13.052127361246756 4.158932759625662 0 0 0
1726 1 36.362873728485695 13.307477807231047 5.837288180151304 0 0 1
3650 1 38.77225324291846 12.912340930259074 4.420777947657252 0 1 1
434 1 40.45047085560129 14.869481889738843 4.461271751704192 0 0 0
1506 1 43.29943125489128 12.506588232017888 5.215912304364853 0 0 1
463 1 48.05434689336364 14.523085089883399 4.5152601617084525 0 0 0
191 1 -0.08306019467162573 17.921502378595083 5.108038281660226 0 0 0
302 1 10.16704508109301 17.19446234359174 5.9183133684443785 0 0 0
370 1 12.899043058688152 17.92961352365422 5.883199173595129 0 0 0
527 1 17.1858004469032 16.793880002690162 4.046170182768055 0 0 0
15 1 19.12540434243102 16.525574335283004 5.983636031896772 0 0 0
512 1 22.438327866540373 18.08309187916859 3.2703928037371246 0 0 0
138 1 21.10668778486407 18.153855101133985 5.597085951703182 0 0 0
378 1 27.76588858953643 16.511770611288835 5.185094823523929 0 0 0
2257 1 30.992845290473255 17.97509875226176 3.4930842724370654 0 0 0
1835 1 34.97288101983672 15.421773107155683 2.901491893533499 0 0 1
438 1 36.48009864307984 16.298705917756706 5.116169426568112 0 0 0
71 1 38.83415049371584 17.196450644910733 4.531362000082133 0 0 0
652 1 45.59492353822813 15.724028248336406 3.9381002896280908 0 0 0
637 1 49.037027917802384 16.43163021858938 6.293466291635484 0 0 0
684 1 1.4358637601881057 21.9890470761492 3.7835930968364364 0 0 0
526 1 2.8428013026231587 21.3095625760152 6.166036816254591 0 0 0
2140 1 5.691660821796002 20.514726119890717 6.454293925861081 1 0 0
575 1 6.287832219574032 19.076221003826234 3.951200140699484 1 0 0
2311 1 9.05670077458393 18.875078099201758 4.0437848933664755 0 0 0
1869 1 9.985451800394765 21.37768787927336 4.1624502711152935 0 0 1
62 1 13.980443820870896 19.07694931768898 3.3519097495393826 0 0 0
2107 1 16.64284547783424 19.3717541187916 3.5003117749371135 0 0 0
6 1 24.611143452270337 19.99527465495285 2.839755374540259 0 0 0
1853 1 25.115668728737063 22.00294411379932 4.66537797745092 0 0 1
523 1 31.099532455999434 19.348372774365497 5.93617751344969 0 0 0
2461 1 34.89859661035084 20.02164876268263 2.715776533538942 0 0 0
273 1 35.6548752436489 18.763727708454184 5.317598063439886 0 0 0
1459 1 41.247101280643115 18.916738495344106 3.9823595669197287 0 0 1
2636 1 42.93153830967852 18.83894180523825 6.050415275021556 0 0 0
661 1 44.787457481324765 20.52066193199641 5.047866538803481 0 0 0
1985 1 50.433548548654564 20.64265105158285 4.533359720840382 -1 0 1
168 1 -0.3041112402915572 24.129366111487446 4.15110075676226 1 0 0
170 1 4.47360569528071 23.021338241208515 4.013114040562463 0 0 0
343 1 6.459476988711035 23.25125162737255 6.28968443709258 0 0 0
19 1 9.02845606261999 22.997656937072467 6.245122898336051 0 0 0
549 1 12.787310813789047 21.77671168360384 3.481531818811013 0 0 0
2504 1 18.386102553389016 24.25176604458312 5.109030845329396 0 0 0
668 1 20.43548308947128 22.77754111200907 4.2645511027233365 0 0 0
298 1 22.976961164782125 23.774430026958054 5.299248339912129 0 0 0
2445 1 26.936856436668887 23.02404970084239 2.886536749681086 0 0 0
2410 1 29.447170753607736 21.876963954524413 3.262610024392589 0 0 0
577 1 30.22217486385956 21.782504899509945 5.873857572336752 0 0 0
270 1 32.40525213484869 23.768802292694303 5.549832933918749 0 0 0
1140 1 33.705422170710335 22.648832965399166 3.1872480546974162 0 0 0
2231 1 35.680528694356 24.235976800486448 2.3888505888713305 0 0 0
2575 1 40.16725046321781 21.654646989166515 3.662679356491883 0 0 0
261 1 41.97517832722065 24.43594588027354 6.050909024302693 0 0 0
120 1 44.393008284661065 23.245888976828628 4.9334875678862025 0 0 0
3916 1 24.439271640324442 -0.40198474059252676 3.528863395109653 0 1 1
65 1 48.94844421567932 23.855352560337128 6.320183487935021 0 0 0
2195 1 0.22719481021006882 1.5880469571085447 8.541383247135364 1 1 0
92 1 7.6380442477759924 0.10240308361886086 7.132797229980983 0 0 0
5 1 9.556469181577917 0.42016807046444415 8.95908021314316 0 0 0
133 1 11.179438665573837 2.2133789424863775 7.5120127344297885 0 0 0
2081 1 34.37505577372162 -0.4855684028458707 8.547677984946299 0 0 1
283 1 17.89646318218423 0.20539868476196543 7.755127556553891 0 0 0
179 1 23.824801644771448 1.5222629475300908 7.436270778006355 0 0 0
293 1 31.609736547843966 0.8762333326052547 8.607784750161851 0 0 0
1945 1 31.049099773622398 1.7791619366184532 6.16262904097349 0 0 1
1778 1 11.771855868277289 3.3454979344381846 -0.5545768341691089 0 0 1
624 1 42.844786619436526 1.813866035852758 7.4286738869971245 0 0 0
911 1 39.551878746236795 23.88270913580718 14.69586842186621 0 0 0
1577 1 47.732179625988266 0.8658435976676526 6.529450840135034 -1 0 1
141 1 48.68656660567409 1.0879976569815208 8.964321745284657 0 0 0
2203 1 2.4611983070244254 5.1213239680215805 8.691562334886697 0 1 0
2505 1 4.754678959628716 3.387781017270683 8.995044116728169 1 1 0
1915 1 6.397715316305621 2.535460346350713 6.772634016978338 0 0 1
595 1 10.359961729124565 4.823969249459298 7.235007997038882 0 0 0
2644 1 16.83556750959066 2.622653468356971 7.296907452376843 0 1 0
2502 1 15.16403449459345 3.633443347180589 9.28454038271645 0 1 0
265 1 18.365656262346427 4.783006748957283 7.302875166723499 0 0 0
1786 1 19.404548187515598 5.3027145573016865 9.885696203305487 0 0 1
563 1 21.382187172471657 3.372272691789005 8.635542157751448 0 0 0
225 1 23.61109424377215 5.024583170461501 7.851454437827412 0 0 0
160 1 25.36907764758232 3.1221398027123417 9.246113611229076 0 0 0
1222 1 29.151978688680575 3.8353431277158085 5.906389950869012 0 0 0
355 1 27.9232706769785 3.5876036043780726 8.673374745333293 0 0 0
241 1 34.13414146069039 4.6503132355243135 6.9437564321758245 0 0 0
2029 1 36.24215300474697 4.08858887554446 8.385189418181058 0 0 1
2807 1 38.60534734156347 3.030698828853541 7.388305811509001 0 1 0
2174 1 41.23516104114421 3.585213510547983 8.754494702545633 0 1 0
3497 1 44.82810570415305 3.4160902444107872 6.480377063605278 0 1 1
289 1 49.36657920216507 5.419293393279997 9.193136000024737 -1 0 0
2110 1 2.9000655457019047 7.543804585849838 9.894656844478517 0 1 0
395 1 8.614053621651973 5.753158454482871 9.288378428887844 1 0 0
666 1 6.972492675383564 7.740052757461811 7.916550740768672 1 0 0
466 1 13.998178419223954 6.263130743373254 8.95387892908261 0 0 0
610 1 12.296139783455846 6.496183933142177 6.827618729213693 0 0 0
599 1 17.181861318389696 7.499923957241098 6.900525050120108 0 0 0
568 1 25.3871111234357 8.275803465658562 6.337675933611841 0 0 0
94 1 30.405272793331438 7.112535454660527 8.12228182642789 0 0 0
1854 1 32.479511564740235 5.348684582880376 8.839514042675038 0 0 1
129 1 34.12682158267492 8.837543307869502 7.644533563063808 0 0 0
654 1 39.54434938087196 7.578418577646431 8.644494218198794 0 0 0
2424 1 41.866787460560175 5.910378056765932 8.023057541982148 0 1 0
322 1 44.32991191994836 6.12273679273227 6.606245320680059 0 0 0
1954 1 43.01173846420837 7.773653914476212 9.764931219839369 0 0 1
701 1 46.471700121685664 8.183708294249202 7.2180087097142085 -1 0 0
267 1 50.43400563595908 9.153660315830116 7.030913226439324 0 0 0
326 1 4.512958582906801 9.080044512389062 8.313571774791923 0 0 0
1819 1 5.0657598651713585 11.526482334846175 9.585185576183925 0 0 1
2053 1 8.606304503818274 10.002032922220199 7.631800187125872 0 0 1
426 1 12.906507958310655 11.059193008513965 6.680347146861374 0 0 0
44 1 14.467290049336686 10.396161266924501 8.922368415579824 0 0 0
1770 1 17.948019797662347 11.873169976389429 6.283434074139981 0 0 1
22 1 19.348806952892375 9.463120420487508 6.487029243282499 0 0 0
449 1 20.619544731448556 9.952653321875902 8.870416321068015 0 0 0
135 1 22.825015004554658 11.099050875622467 8.824612754716453 0 0 0
271 1 31.477519772571334 9.57173477338274 7.639183895376245 0 0 0
342 1 32.92230095189496 11.765265252347541 9.017834027909156 0 0 0
144 1 36.387372302548755 10.610715968852041 6.69388314267556 0 0 0
1011 1 38.47939495374984 10.206893908604306 8.550673962142685 0 0 0
312 1 41.07223613737675 11.603157747732679 7.974077075056565 0 0 0
73 1 43.444624639792515 10.201324793893335 8.099627308118352 0 0 0
332 1 49.985278930468155 10.014243726585386 9.538377831513868 0 0 0
398 1 1.6418319730376294 13.900566446224511 7.730944863500662 0 0 0
514 1 50.34892057442767 14.956637339635183 8.241474261364985 0 0 0
38 1 7.978205376891324 12.519214914259846 6.773420116944522 0 0 0
1429 1 6.711854781339115 13.653991283366858 8.909924635078267 0 0 1
476 1 11.968436547609466 13.544557591859082 6.785913660846265 0 0 0
234 1 16.580272061150257 12.248280056960615 8.530380033418266 0 0 0
251 1 15.513457017228312 14.769830089128872 8.303918978734409 0 0 0
679 1 21.75506223526658 13.48493779215483 7.694467284969704 0 0 0
483 1 23.89601303774146 15.310585100822212 7.285943473510913 0 0 0
351 1 27.603810288176348 12.74729467404455 8.64634103624641 0 0 0
188 1 29.72048048791631 14.683955929634312 9.04085315064311 0 0 0
1 1 32.04874778896516 14.256772794147386 7.877067753433151 0 0 0
201 1 36.38237920999351 15.174824608317474 8.13246400627916 0 0 0
339 1 35.800150644998865 12.744480725853746 9.22804850555443 0 0 0
294 1 42.467561295641275 14.471720976266562 9.460413513939644 0 0 0
381 1 42.16842718623015 14.551788997193915 6.472072275458927 0 0 0
37 1 47.67332658041766 12.830387857190656 6.575995312010561 0 0 0
471 1 48.97761199390688 12.87284876545106 9.07608493332604 0 0 0
2455 1 2.255002059216514 18.459955365424438 6.641843031035495 1 0 0
295 1 0.8679492533290878 18.751895011352186 9.18208161970748 1 0 0
579 1 3.3949221807419994 15.877041395469664 6.7612928587512755 1 0 0
601 1 5.6490887655042 16.203153937378683 8.669589749089173 0 0 0
53 1 17.591459133920942 16.56833185679131 8.158594309964524 0 0 0
417 1 22.906023178240368 17.97016104728895 7.61474260652199 0 0 0
503 1 28.82412666042009 17.233069881909703 9.402496788636267 0 0 0
11 1 28.612418831012157 18.433070094397998 6.90228382233033 0 0 0
663 1 33.9869756186693 16.419026325103566 7.8970081225227435 0 0 0
562 1 38.670394516670754 16.325443069994684 9.411050216789725 0 0 0
361 1 39.92703441950721 18.20035902260232 7.166518090155822 0 0 0
252 1 44.28424270628936 16.430774577905936 6.2938287818311895 0 0 0
485 1 46.56532295826708 17.391875800542927 7.51321854595794 0 0 0
30 1 -0.2324377783598608 21.31710388508639 8.956095188300624 1 0 0
648 1 6.441552294542614 18.965780219046685 8.39771995206009 0 0 0
112 1 9.124241820926482 18.39933381615448 8.21370919717557 0 0 0
367 1 9.95082805607769 21.10545189138084 8.045881756394092 0 0 0
390 1 13.626144929695208 19.439620131154427 8.130071019933746 0 0 0
2762 1 12.698027315621083 21.708194488708624 8.174106520832217 0 0 0
376 1 17.37445296603929 20.587294767342563 5.96538627956662 0 0 0
561 1 16.409855438150046 19.257344697895956 8.149159988797246 0 0 0
697 1 20.18153999778497 20.596073926474222 6.055649769048026 0 0 0
2361 1 20.899376432643606 21.004555239263297 8.949934370589538 0 0 0
3086 1 24.81692691524719 20.04379262482168 8.304275531988644 0 0 0
560 1 26.76397338217935 20.587513282022687 6.550478180851857 0 0 0
10 1 33.65660319369802 19.002576790828787 7.056143202935344 0 0 0
52 1 34.33791792004368 20.816799471355914 8.876955765640338 0 0 0
192 1 37.656949747251794 19.857450929117977 6.8645608134895255 0 0 0
40 1 36.93440273492161 19.98075999041513 9.489692478796226 0 0 0
559 1 42.29392713798335 20.23588281381858 8.46547958080775 0 0 0
498 1 44.956910521710675 21.10209827093538 9.10523875247169 0 0 0
199 1 46.51156816955844 20.381158723080706 7.0605552435636785 0 0 0
2747 1 49.161498145291375 21.245112018691586 6.8171879451653625 -1 0 0
1188 1 37.05771951901127 23.140001705071896 13.671929107274762 0 0 0
2728 1 1.9640160211570246 23.017355893593074 8.221608273088323 0 0 0
2373 1 22.72091546752412 24.62305703526361 7.775896365348899 0 0 0
3958 1 13.394157212103355 23.179114860574053 5.795816288500067 0 0 1
2632 1 16.75659653809785 23.559490309484133 9.060845427053321 0 0 0
542 1 16.02788737946048 23.01974596334772 6.29142938799069 0 0 0
2307 1 33.107809147180056 24.7047252452179 14.55802774688041 0 0 0
2383 1 23.194372405762216 22.270493212431106 9.223856966415363 0 0 0
2457 1 28.245440855592033 22.527947042638655 7.518601691113888 0 0 0
576 1 25.05867593728935 2.6499118539721387 -0.3935632696969909 0 0 0
2217 1 34.201024244070766 23.28496530862407 7.414376743295966 0 0 0
2248 1 36.74724321285325 24.07343228747651 6.728460117356461 0 0 0
2452 1 38.63674808761766 22.21328887118586 5.958594195322027 0 0 0
700 1 40.826298991645004 22.317039970428155 7.756242603519954 0 0 0
2521 1 8.479540551698403 -0.561046526381969 4.475937798268139 0 1 0
2430 1 1.325540421333751 0.06099016787706035 10.188423760802927 1 1 0
2789 1 4.238959519440824 0.8032503515418528 10.07746131542789 0 1 0
2483 1 4.841798314218806 0.6843372538883137 12.699892925014364 0 1 0
2201 1 8.724921896756262 2.034868666251201 11.078428251961238 0 1 0
1982 1 13.184473251767013 2.038431202146146 9.783662158679626 0 0 1
1033 1 31.36973014138175 22.84205222342769 13.835146241909001 0 0 0
2233 1 17.45876275127219 0.45459326629981334 12.204345311384014 0 1 0
1256 1 22.12988582946808 2.5293535020128823 11.34671376090444 0 0 0
82 1 24.871449734309763 3.140371448670778 11.714498352804737 0 0 0
1476 1 42.03648872245323 1.2545844225950715 0.2827477393884701 0 0 1
2332 1 27.800915459610003 1.6166359433784998 11.062813443045721 0 1 0
441 1 35.01796710533687 1.9777759327701872 9.630390634309402 0 0 0
875 1 36.038230597708264 1.1580508865310841 12.202607562289067 0 0 0
2621 1 38.85591646825609 1.6935123611306282 12.76277023465556 0 1 0
371 1 44.29035491037518 1.156894668581737 11.076248708572935 0 0 0
2295 1 46.61430014218049 0.3909909230622036 12.383967829315639 0 1 0
35 1 47.85777692659663 2.916986562634161 12.539594661661795 0 0 0
1180 1 0.31877570806580235 3.9896505227912407 10.146756381635335 1 0 0
464 1 1.3074990123613617 4.009388886159034 12.762450541462885 1 0 0
169 1 7.128067632898448 4.114233874976624 10.616544850689907 0 0 0
614 1 5.955534766545896 5.53943829814617 12.876191905393155 1 0 0
211 1 11.418897326258783 3.1526354925135776 11.603867309263043 0 0 0
625 1 16.957170641812137 4.937472532249541 11.08552972716948 0 0 0
452 1 24.409185932145174 5.621595177343721 12.524858226923778 0 0 0
620 1 29.565845951809575 3.525710029552023 12.056515315491907 0 0 0
545 1 30.787979206263437 3.247559349762849 9.595863583900966 0 0 0
410 1 33.487888522147216 3.703133744836883 11.263863849761579 0 0 0
425 1 40.74010706787241 3.4838400171319623 11.51055566343236 0 0 0
3395 1 45.10908997226168 3.607137455058761 9.40669612797476 0 1 0
478 1 47.63213648402711 3.5351402127262785 9.81363521048303 -1 0 0
922 1 4.255940723877042 7.8006817475616455 12.101213140460818 0 0 0