
# Create simulation box of size 50 x 50 x 50 Angstrom
#
lattice	            sc 1
Lattice spacing in x,y,z = 1.0000000 1.0000000 1.0000000
region 	            all block 0 50 0 50 0 50 units box
create_box          1 all
Created orthogonal box = (0.0000000 0.0000000 0.0000000) to (50.000000 50.000000 50.000000)
  1 by 2 by 3 MPI processor grid

# fill box with 4175 randomly distributed atoms
#
create_atoms        1 random 4175 63782 all
Created 4175 atoms
  create_atoms CPU = 0.001 seconds
mass                1 18.015

# Define potential
#
pair_style          sw
pair_coeff          * * ML_mW.sw mW
Reading sw potential file ML_mW.sw with DATE: 2019-02-27

# Run minimization
#
minimize            1.0e-8 1.0e-8 10000 1000
WARNING: Using 'neigh_modify every 1 delay 0 check yes' setting during minimization (../min.cpp:187)
Neighbor list info ...
  update every 1 steps, delay 0 steps, check yes
  max neighbors/atom: 2000, page size: 100000
  master list distance cutoff = 6.0032907
  ghost atom cutoff = 6.0032907
  binsize = 3.0016454, bins = 17 17 17
  1 neighbor lists, perpetual/occasional/extra = 1 0 0
  (1) pair sw, perpetual
      attributes: full, newton on
      pair build: full/bin/atomonly
      stencil: full/bin/3d
      bin: standard
Per MPI rank memory allocation (min/avg/max) = 4.255 | 4.258 | 4.261 Mbytes
Step Temp E_pair E_mol TotEng Press 
       0            0    7792709.3            0    7792709.3    5898794.3 
     630            0   -45180.336            0   -45180.336   -154.07449 
Loop time of 1.11294 on 6 procs for 630 steps with 4175 atoms

98.6% CPU use with 6 MPI tasks x no OpenMP threads

Minimization stats:
  Stopping criterion = max force evaluations
  Energy initial, next-to-last, final = 
      7792709.32924461  -45180.0188663597   -45180.336116598
  Force two-norm initial, final = 2.0191930e+08 4.9721331
  Force max component initial, final = 1.0948746e+08 0.73126211
  Final line search alpha, max atom move = 0.053306038 0.038980685
  Iterations, force evaluations = 630 1000

MPI task timing breakdown:
Section |  min time  |  avg time  |  max time  |%varavg| %total
---------------------------------------------------------------
Pair    | 0.86878    | 0.97166    | 1.0336     |   5.7 | 87.31
Neigh   | 0.023788   | 0.024346   | 0.024719   |   0.2 |  2.19
Comm    | 0.035413   | 0.097371   | 0.20122    |  18.2 |  8.75
Output  | 0          | 0          | 0          |   0.0 |  0.00
Modify  | 0          | 0          | 0          |   0.0 |  0.00
Other   |            | 0.01956    |            |       |  1.76

Nlocal:        695.833 ave         704 max         685 min
Histogram: 1 1 0 0 1 0 0 1 0 2
Nghost:        1494.17 ave        1515 max        1468 min
Histogram: 1 1 0 0 0 0 1 1 1 1
Neighs:        0.00000 ave           0 max           0 min
Histogram: 6 0 0 0 0 0 0 0 0 0
FullNghs:      19997.0 ave       20462 max       19320 min
Histogram: 1 1 0 0 0 0 0 2 0 2

Total # of neighbors = 119982
Ave neighs/atom = 28.738204
Neighbor list builds = 26
Dangerous builds = 0

# Add velocity/set timestep
#
velocity            all create ${TEMP} 120598 rot yes dist gaussian
velocity            all create 205 120598 rot yes dist gaussian
timestep            5.0

# Define output
#
compute	            1 all msd
thermo	            100
thermo_style        custom step temp press vol etotal ke pe c_1[4] density

# Neighbor lists
#
neigh_modify        delay 0 every 1 check yes

# Set fixes
#
fix                 1 all momentum 10 linear 1 1 1 rescale
fix                 2 all nve
fix                 3 all temp/csvr ${TEMP} ${TEMP} 500.0 928347
fix                 3 all temp/csvr 205 ${TEMP} 500.0 928347
fix                 3 all temp/csvr 205 205 500.0 928347
fix                 4 all press/berendsen iso ${PRES} ${PRES} 1000.0 modulus 20000
fix                 4 all press/berendsen iso 350 ${PRES} 1000.0 modulus 20000
fix                 4 all press/berendsen iso 350 350 1000.0 modulus 20000

# Run 0.5 ns equilibration
#
dump                1 all custom 1000 eq.${NAME}.dump id type x y z vx vy vz
dump                1 all custom 1000 eq.liquid_density_MLmW.dump id type x y z vx vy vz
run                 100000
Per MPI rank memory allocation (min/avg/max) = 3.506 | 3.508 | 3.511 Mbytes
Step Temp Press Volume TotEng KinEng PotEng c_1[4] Density 
     630          205    778.67162       125000   -42629.746    2550.5897   -45180.336 2.7295415e-33   0.99914793 
     700     131.3094    272.90068    125144.16   -41848.814    1633.7386   -43482.552    0.2350112     0.997997 
     800    164.26284    164.92845    125036.07   -41148.651     2043.742   -43192.393   0.55409883    0.9988597 
     900    183.47915    526.86071    124809.09   -40761.752    2282.8294   -43044.581   0.93524742    1.0006763 
    1000    192.11197    359.79966    124968.27   -40528.369    2390.2381   -42918.607    1.2987685   0.99940165 
    1100    199.19851    211.57106    124880.69   -40377.491    2478.4082   -42855.899    1.6858755    1.0001025 
    1200    199.45549    232.34101    124888.65   -40435.964    2481.6055   -42917.569    2.0627807    1.0000388 
    1300     202.2669    447.38785    125017.56   -40435.263    2516.5848   -42951.848    2.3493468   0.99900762 
    1400    204.72898    277.60396    125059.35   -40456.497    2547.2177   -43003.714    2.5863043   0.99867375 
    1500    199.68365    394.51887    125073.25   -40419.737    2484.4443   -42904.181    2.8872661   0.99856275 
    1600    209.24248    318.24361    125000.68   -40345.972    2603.3743   -42949.346      3.20029   0.99914251 
    1700    206.29664    429.22985    125126.97   -40380.686    2566.7224   -42947.408    3.4541919   0.99813407 
    1800    203.52743    283.62912    125200.83   -40481.252    2532.2682    -43013.52    3.7158907    0.9975452 
    1900    200.62066    458.08845    125469.33   -40485.881    2496.1024   -42981.983    3.9319772   0.99541054 
    2000    207.30937    269.19811    125557.11   -40453.492    2579.3227   -43032.815    4.1984273   0.99471463 
    2100    208.75139    365.90564    125722.05   -40410.668    2597.2642   -43007.933    4.4490083   0.99340957 
    2200    202.80572    255.94347    126041.28   -40461.879    2523.2888   -42985.168    4.7851958   0.99089358 
    2300    209.61719    284.10124    125681.48    -40466.66    2608.0364   -43074.697    4.9533128   0.99373026 
    2400    207.37543    348.47814    125929.97    -40490.45    2580.1446   -43070.594    5.1917503   0.99176938 
    2500    206.41035    385.64333    125826.71   -40444.067    2568.1372   -43012.204    5.3907332   0.99258329 
    2600    213.63725    338.86536    125773.66    -40396.91    2658.0535   -43054.963     5.623661   0.99300192 
    2700     208.5258    219.12806    125614.23   -40432.492    2594.4574   -43026.949    5.8773137   0.99426228 
    2800    209.51474    362.24916    125664.34   -40420.091    2606.7616   -43026.853    6.1242829   0.99386581 
    2900    208.33985    499.45528    125543.09   -40495.692    2592.1438   -43087.836    6.3037274    0.9948257 
    3000    204.51625    626.64227    125621.73   -40537.559     2544.571    -43082.13    6.5175156   0.99420292 
    3100    205.57184    338.65915    125592.62   -40524.131    2557.7046   -43081.836    6.6654535   0.99443339 
    3200    204.31632    280.42309     125770.2   -40574.211    2542.0834   -43116.294    6.8499886    0.9930293 
    3300    205.17126    365.12736    125708.39   -40561.164    2552.7205   -43113.884    7.0081718   0.99351757 
    3400    206.19067    515.90425    125656.28   -40610.273    2565.4039   -43175.677    7.2709793   0.99392956 
    3500    204.94337    246.93287    125514.24   -40651.593    2549.8851   -43201.478    7.4927397   0.99505439 
    3600      202.192    520.47446    125586.26   -40702.282    2515.6529   -43217.935    7.6505664   0.99448369 
    3700    199.66766    200.41967    125926.28   -40774.293    2484.2453   -43258.538    7.8929325   0.99179849 
    3800    204.68255    472.46418    125948.85   -40736.222    2546.6401   -43282.862    8.0561199   0.99162071 
    3900    203.97029    258.47541    126251.58   -40772.512    2537.7782    -43310.29    8.2129978   0.98924302 
    4000    204.76308    490.67532    126446.93   -40770.956     2547.642   -43318.598    8.3179109   0.98771467 
    4100     204.5696    344.93274    126633.41   -40778.657    2545.2347   -43323.892    8.5331538   0.98626015 
    4200    206.66017    248.44077    126636.75   -40790.205    2571.2454   -43361.451    8.7547767   0.98623415 
    4300    203.45998    380.36334    126617.84   -40790.408     2531.429   -43321.837      8.86765    0.9863815 
    4400    203.12454      425.583       126657   -40788.701    2527.2554   -43315.956    9.0245029   0.98607647 
    4500    205.48677    312.79209    126521.26   -40788.339    2556.6461   -43344.985     9.166321   0.98713445 
    4600     201.4619    634.75869     126578.1   -40840.635     2506.569   -43347.204    9.2816089   0.98669113 
    4700    207.91701     248.6003     126729.2   -40762.174    2586.8828   -43349.057    9.4071526   0.98551474 
    4800    201.53611     458.4345    126742.14   -40832.834    2507.4923   -43340.326     9.587042   0.98541406 
    4900    209.39666    392.82721    126754.03   -40720.111    2605.2925   -43325.404    9.8430115   0.98532163 
    5000    210.83427    235.15546    126673.59   -40693.839    2623.1791   -43317.018    9.8853115   0.98594737 
    5100    208.25737    504.38283    126526.07   -40751.743    2591.1176   -43342.861    10.122331    0.9870969 
    5200    208.29038     243.4437    126517.03   -40811.822    2591.5283    -43403.35    10.264587   0.98716745 
    5300    207.79803    394.41231    126573.67   -40785.625    2585.4025   -43371.027     10.47025   0.98672571 
    5400    200.85336     334.4542    126735.52   -40827.051    2498.9976   -43326.048    10.578112   0.98546557 
    5500    203.94984    317.08524     126529.1   -40829.885    2537.5237   -43367.408    10.757638   0.98707326 
    5600    202.54462    171.07726    126669.93    -40836.09    2520.0401    -43356.13    10.876236   0.98597586 
    5700    204.65528    428.99007    126847.16   -40838.255    2546.3008   -43384.555     11.01981   0.98459825 
    5800    203.05391    412.23592    127026.26   -40864.177    2526.3767   -43390.553    11.128868   0.98321005 
    5900     203.3612    260.31619    127165.89   -40891.226       2530.2   -43421.426    11.251967   0.98213045 
    6000    206.89382    291.40061    127253.33    -40902.74    2574.1525   -43476.892    11.358611   0.98145556 
    6100    209.04255    272.08288    127219.99   -40848.923    2600.8868    -43449.81    11.531092   0.98171282 
    6200    202.86924     247.7242    127121.09   -40912.365     2524.079   -43436.444     11.80083   0.98247653 
    6300    204.99131    295.55277       127165   -40863.238    2550.4817    -43413.72     11.97333   0.98213735 
    6400    211.17252    329.80775    127196.07   -40855.052    2627.3876   -43482.439    12.095964   0.98189739 
    6500    205.47257    416.95716    127236.37   -40829.494    2556.4695   -43385.964    12.258504   0.98158643 
    6600     202.0104    259.13992    127218.16   -40896.496    2513.3935   -43409.889    12.331553   0.98172692 
    6700    202.33263    378.77813    127205.09   -40949.524    2517.4025   -43466.926    12.476441   0.98182775 
    6800    203.63597    273.36428    127294.91   -40881.716    2533.6186   -43415.335    12.725973   0.98113502 
    6900    208.20988    392.97601    127483.35     -40832.2    2590.5267   -43422.727    12.913404   0.97968474 
    7000     207.8284     257.5339    127396.97    -40829.75    2585.7804   -43415.531    13.064618   0.98034896 
    7100    207.40963    460.36567     127329.5   -40848.932    2580.5701   -43429.502    13.208951   0.98086845 
    7200    208.20485    247.19019    127340.96   -40917.328    2590.4641   -43507.793    13.327623   0.98078022 
    7300    204.58162    324.33646    127251.33   -40978.598    2545.3843   -43523.983    13.387912     0.981471 
    7400    204.20767    429.62723    127447.97   -41012.377    2540.7316   -43553.108    13.617299   0.97995667 
    7500    205.45795    286.01076    127567.35   -40985.678    2556.2875   -43541.965    13.892879   0.97903962 
    7600    201.15722    306.45304    127844.41   -41069.199    2502.7782   -43571.977     13.90813   0.97691789 
    7700    201.91005    397.41486    127774.01    -40973.67    2512.1449   -43485.815    13.925305   0.97745612 
    7800    206.59623    367.26004    127699.58   -40946.962    2570.4498   -43517.411    14.147038   0.97802588 
    7900    204.28661    457.65187    127898.02   -41027.128    2541.7138   -43568.842    14.021361   0.97650843 
    8000    205.02535    331.34283    127972.17   -41004.917    2550.9051   -43555.822     14.13015   0.97594261 
    8100    204.73792    304.84189    127899.73   -41081.411    2547.3289   -43628.739    14.209212   0.97649538 
    8200    198.98503    423.35699    127890.52   -41098.396     2475.752   -43574.148    14.267266   0.97656565 
    8300    204.21497    330.57538    127990.45   -41091.133    2540.8225   -43631.956    14.566552   0.97580317 
    8400    205.28528    240.01857    127985.58   -41062.887    2554.1392   -43617.026      14.8049    0.9758403 
    8500    206.61122    313.27663    128040.77   -40987.098    2570.6364   -43557.735    14.812608   0.97541969 
    8600    199.32998    338.48167    127872.54   -40984.704    2480.0439   -43464.748    15.040769   0.97670295 
    8700    206.15143    462.21667    128059.75   -40970.443    2564.9157   -43535.359    15.140384   0.97527512 
    8800    202.85416    328.27288    128154.27   -41011.429    2523.8914   -43535.321    15.357867   0.97455584 
    8900    199.56954     170.8816    128253.07   -41085.285    2483.0245   -43568.309    15.513962   0.97380505 
    9000    207.09102     407.9163    128187.57   -41038.877     2576.606   -43615.483    15.644733   0.97430266 
    9100    201.68834     284.2707    128228.25   -41103.272    2509.3864   -43612.658    15.699399   0.97399359 
    9200    202.90296      461.161    128195.18   -41025.374    2524.4986   -43549.872    15.810275   0.97424484 
    9300    200.02982    290.06768    128188.35   -41070.622    2488.7513   -43559.373    15.984359   0.97429674 
    9400    202.77853    367.89474    128311.71   -41027.693    2522.9504   -43550.643    16.081672   0.97336001 
    9500    203.81923    269.00196    128373.73   -41056.488    2535.8988   -43592.386    16.167027   0.97288976 
    9600    204.63114    149.00121     128297.8   -41029.326    2546.0004   -43575.326    16.263509    0.9734656 
    9700    209.63936    456.19576    128364.05   -40979.666    2608.3122   -43587.979    16.276007   0.97296316 
    9800    201.62178     497.0902    128294.68    -41063.21    2508.5583   -43571.768    16.358867   0.97348928 
    9900    200.10156    181.05833    128217.44    -41131.81    2489.6438   -43621.453    16.529599   0.97407571 
   10000    203.12908    382.27801     128320.3   -41129.355    2527.3119   -43656.667    16.566495   0.97329485 
   10100    204.22142    461.10279    128534.79   -41110.143    2540.9027   -43651.045    16.575658    0.9716707 
   10200    200.35759    151.70323    128679.56   -41156.883    2492.8293   -43649.712    16.632243   0.97057757 
   10300    203.18796    190.05796    128626.47   -41155.237    2528.0445   -43683.282    16.842471   0.97097815 
   10400    205.45524    403.72492    128673.82   -41094.096    2556.2538    -43650.35    17.049844   0.97062087 
   10500    199.62542    213.50774    128666.56   -41082.006    2483.7197   -43565.726    17.210968   0.97067563 
   10600    206.53906    388.44359    128719.89   -41016.453    2569.7385   -43586.192    17.201554   0.97027341 
   10700    207.54029     313.3451       128639   -41014.919    2582.1957   -43597.114    17.147912   0.97088359 
   10800    209.40217    391.47584    128605.29   -41004.864    2605.3612   -43610.225    17.168438   0.97113806 
   10900    204.51966    265.65741    128489.87   -41035.981    2544.6133   -43580.595    17.479032   0.97201038 
   11000    205.04815    389.30498    128624.11   -41033.462    2551.1888   -43584.651    17.595784   0.97099593 
   11100    201.79418     436.1794    128543.46   -41063.008    2510.7032   -43573.711     17.71458   0.97160518 
   11200    207.16638     331.6529    128705.13   -41060.463    2577.5436   -43638.007    17.860286   0.97038472 
   11300    204.44479     308.8833    128780.92   -41069.332    2543.6819   -43613.014    17.952775   0.96981364 
   11400    206.89339     293.9026    128664.73   -41076.937    2574.1472   -43651.084     17.98441   0.97068943 
   11500    202.49139    495.04062    128725.86   -41107.871    2519.3779   -43627.249    18.182015   0.97022842 
   11600    201.96047    341.55743    128699.98   -41122.873    2512.7722   -43635.645    18.129085   0.97042354 
   11700    208.16964    333.73086    128708.62   -41034.477    2590.0261   -43624.504    18.296908   0.97035843 
   11800    208.93549    417.45794    128889.26   -41114.924    2599.5547   -43714.479    18.493377   0.96899844 
   11900    204.38269    371.65107    129013.32   -41133.405    2542.9092   -43676.314    18.543985   0.96806663 
   12000    202.74962    311.58753    128849.12   -41142.238    2522.5907   -43664.829    18.584005   0.96930028 
   12100    206.51344    368.91206    128968.07   -41107.129    2569.4198   -43676.549    18.596726   0.96840633 
   12200    202.71705     476.0887    128829.57   -41103.756    2522.1856   -43625.942    18.783392   0.96944741 
   12300    203.46417    450.54258    128851.32   -41128.483    2531.4811   -43659.965    18.812222   0.96928372 
   12400    205.42012    281.52427    128857.93   -41109.045    2555.8168   -43664.862    19.006879   0.96923405 
   12500    202.05527    434.88191    128700.23   -41204.398    2513.9517    -43718.35    19.093891   0.97042163 
   12600    205.59434    463.82602    128854.34   -41119.165    2557.9844   -43677.149    19.297575   0.96926102 
   12700    203.49276    382.39132    128929.74   -41088.785    2531.8367   -43620.621    19.286382   0.96869418 
   12800    206.87503    272.32854    129011.19   -41063.632    2573.9187   -43637.551    19.484902   0.96808263 
   12900    208.48148    426.77028    129193.41    -41128.23     2593.906   -43722.136    19.643906   0.96671721 
   13000    205.79935    393.41911    129106.38   -41087.502    2560.5352   -43648.037    19.652638   0.96736888 
   13100    205.52602     311.7927    129138.78   -41078.926    2557.1344   -43636.061    19.791916   0.96712616 
   13200    210.63481    439.06245    129364.72   -41000.649    2620.6974   -43621.346    19.774028     0.965437 
   13300    207.32045    376.18859       129323   -41045.239    2579.4605   -43624.699    19.844798    0.9657485 
   13400     204.6568     455.5653    129468.63   -41121.459    2546.3197   -43667.778    19.848752   0.96466217 
   13500    203.69194    357.07328    129427.57    -41144.18     2534.315   -43678.495    19.857402   0.96496821 
   13600       206.27    428.25446    129417.38   -41170.484     2566.391   -43736.875    20.006437   0.96504416 
   13700     202.5884    370.22087    129346.77   -41180.751    2520.5849   -43701.336    19.992787   0.96557101 
   13800    207.56888     184.3384    129287.04   -41106.126    2582.5515   -43688.678    20.134046   0.96601708 
   13900    203.07138    233.12644    129182.22   -41149.266     2526.594    -43675.86    20.376308   0.96680094 
   14000    207.09862    325.38927    129093.43     -41142.1    2576.7005     -43718.8    20.433487   0.96746588 
   14100    204.70879    226.10949    128992.78   -41150.059    2546.9666   -43697.026    20.417995   0.96822076 
   14200    206.92895    212.20697    129077.47   -41192.611    2574.5896     -43767.2    20.389904   0.96758551 
   14300    204.62606    242.77231     129033.1   -41236.404    2545.9372   -43782.341    20.484008   0.96791825 
   14400    199.53648    387.17804    129124.47   -41200.976    2482.6131   -43683.589    20.561366   0.96723333 
   14500    202.59281    417.26972    129015.81   -41150.658    2520.6397   -43671.297    20.613408   0.96804798 
   14600    206.20058    255.72415    128935.09   -41161.854    2565.5273   -43727.382    20.724991   0.96865401 
   14700    201.94707    254.25094    128963.64   -41223.156    2512.6055   -43735.762    20.812061   0.96843954 
   14800    203.54973    227.66531    129079.68   -41258.735    2532.5457    -43791.28    20.809307   0.96756896 
   14900    198.58287    419.97244    129079.18   -41313.461    2470.7484   -43784.209    20.956084   0.96757272 
   15000    198.75142    341.31952    129119.59   -41311.646    2472.8455   -43784.491    21.088063   0.96726989 
   15100    197.60267    325.45489       128929   -41340.461    2458.5529   -43799.014    21.143308   0.96869978 
   15200    201.53751    265.50627    129063.99   -41276.359    2507.5098   -43783.869    21.208349   0.96768657 
   15300    204.23943     576.1737    129230.88   -41289.584    2541.1268   -43830.711     21.48656   0.96643693 
   15400    204.16119    154.79395    129318.38   -41293.214    2540.1533   -43833.367    21.521406   0.96578302 
   15500    206.64335    519.40932    129360.13   -41276.869    2571.0361   -43847.905    21.592887    0.9654713 
   15600    204.48477    517.71404    129431.32   -41225.709    2544.1792   -43769.888    21.623931   0.96494023 
   15700    200.82774    321.75488    129407.33   -41317.812    2498.6789   -43816.491    21.471397   0.96511911 
   15800    204.59394    511.31326    129560.28   -41308.411    2545.5376   -43853.949    21.647726   0.96397982 
   15900    203.97445    450.52501    129677.65   -41344.204      2537.83   -43882.034    21.721403    0.9631073 
   16000    203.66901    400.36757    129609.36   -41286.768    2534.0297   -43820.798    21.956379   0.96361474 
   16100    206.97939    266.97042    129522.97   -41240.136    2575.2171   -43815.353    22.130571   0.96425747 
   16200    205.81769    453.17734    129406.33   -41294.188    2560.7633   -43854.952    22.101887   0.96512663 
   16300    205.84345    364.88158    129406.14   -41313.805    2561.0839   -43874.889    22.131908   0.96512801 
   16400     206.9163    366.03414     129546.3   -41234.594    2574.4321   -43809.026    22.329799   0.96408379 
   16500    205.61587    409.95648    129582.02   -41233.225    2558.2524   -43791.478    22.250775   0.96381806 
   16600    207.33922    309.52556    129468.61   -41229.325     2579.694   -43809.019    22.249488   0.96466231 
   16700    202.40141    458.99951    129622.46   -41252.466    2518.2584   -43770.724    22.326429   0.96351738 
   16800    206.48766    312.56902    129423.84   -41248.755    2569.0991   -43817.855    22.423397     0.964996 
   16900    209.57689    294.72468    129474.42   -41231.864     2607.535   -43839.399    22.571835   0.96461907 
   17000    205.74905    367.48729    129409.19   -41253.444    2559.9093   -43813.353    22.571826   0.96510524 
   17100    209.06536    321.12458    129505.19   -41178.856    2601.1706   -43780.027     22.77685   0.96438986 
   17200    208.55447    321.01143    129710.92   -41208.946    2594.8141    -43803.76    22.746683   0.96286027 
   17300    206.39926    304.63209    129712.88   -41267.715    2567.9992   -43835.715    22.763221   0.96284574 
   17400    206.90201    265.70932    129849.99   -41296.123    2574.2543   -43870.377    22.916419   0.96182906 
   17500    208.55105    303.78199    129450.02   -41290.857    2594.7716   -43885.628    22.850711   0.96480089 
   17600    204.98573    370.25779    129347.66   -41282.651    2550.4122   -43833.064    22.969917   0.96556434 
   17700    205.34372    355.41692     129366.2    -41307.56    2554.8662   -43862.426     22.92363   0.96542597 
   17800    205.40334    453.91602    129385.24   -41317.894    2555.6081   -43873.502    22.928007   0.96528392 
   17900     208.0184     237.9555    129522.57   -41282.528    2588.1444   -43870.672    22.981862   0.96426047 
   18000      207.043    390.37052    129468.06   -41238.733    2576.0085   -43814.741    23.067663   0.96466641 
   18100    205.28763    248.80346    129461.62   -41343.796    2554.1684   -43897.964    23.015232   0.96471444 
   18200    205.01484    250.83936    129365.36   -41353.607    2550.7744   -43904.381    23.102389   0.96543228 
   18300    207.76746    400.93182    129333.78   -41269.348    2585.0222    -43854.37    23.254229   0.96566799 
   18400    204.91074    324.12933    129370.09    -41323.44    2549.4792   -43872.919    23.333626   0.96539698 
   18500    206.27589    434.30296    129333.62   -41277.155    2566.4642   -43843.619    23.261345   0.96566919 
   18600    204.54028    455.69158    129588.97    -41329.23      2544.87     -43874.1    23.495566   0.96376638 
   18700    208.46765    244.60594    129738.94   -41310.973    2593.7339   -43904.707    23.593951   0.96265229 
   18800    207.64927     389.1449    129824.07   -41283.719    2583.5517    -43867.27    23.644952   0.96202106 
   18900    208.17031    373.70254    129878.88    -41320.64    2590.0345   -43910.674    23.817246   0.96161508 
   19000    208.31042    400.06227    129907.43   -41301.773    2591.7777    -43893.55    23.741961   0.96140376 
   19100    206.07356    434.33491     129937.9   -41351.356    2563.9468   -43915.302    23.884804   0.96117834 
   19200    209.15689    371.60516    130037.07   -41328.625    2602.3093   -43930.935     23.88871   0.96044525 
   19300    209.25177    428.21413    130075.56   -41277.876    2603.4899   -43881.366    23.926511   0.96016112 
   19400    206.01939    366.17474    130043.89   -41292.078    2563.2729   -43855.351     24.04712   0.96039489 
   19500     207.2571    376.77475    129843.55   -41283.642    2578.6724   -43862.314    24.100312   0.96187675 
   19600    208.50652    363.31965    129743.99   -41313.974    2594.2176   -43908.191    24.226429   0.96261481 
   19700    209.02071    354.12912    129832.39   -41296.177     2600.615   -43896.792    24.268541   0.96195941 
   19800    204.62303    316.32901     129980.4   -41344.463    2545.8995   -43890.363     24.38107   0.96086404 
   19900    204.83226    291.16025    130021.22   -41347.373    2548.5027   -43895.876    24.254116   0.96056237 
   20000    203.73187    511.05873    129848.41   -41397.883    2534.8117   -43932.694    24.289444   0.96184074 
   20100    205.45786    243.63507    129957.29   -41361.349    2556.2864   -43917.636     24.48428   0.96103487 
   20200    204.32843    330.98036    129919.27   -41419.241    2542.2341   -43961.475    24.620799   0.96131613 
   20300    205.33291    271.41623    130145.38   -41453.637    2554.7318   -44008.369    24.546673     0.959646 
   20400    205.26301    316.65134    130168.21   -41464.209     2553.862   -44018.071    24.720742    0.9594777 
   20500    205.59978    446.54843    130174.69    -41423.76    2558.0521   -43981.812    24.580865   0.95942993 
   20600    207.81012    418.29121    130332.02   -41468.823     2585.553   -44054.376    24.801103   0.95827171 
   20700     206.8098    450.71779    130491.11   -41411.328    2573.1071   -43984.435    24.862216   0.95710344 
   20800    203.33255    297.03751    130484.87   -41405.155    2529.8435   -43934.998    24.812145    0.9571492 
   20900    201.24704    386.36888    130476.86   -41447.599    2503.8957   -43951.495    25.053998   0.95720801 
   21000    199.39254    374.94399     130534.9   -41528.718    2480.8223    -44009.54    25.119539    0.9567824 
   21100    202.66563    276.33532    130526.17    -41533.24    2521.5457   -44054.785    25.156118    0.9568464 
   21200     201.1587    354.59198    130441.74   -41499.445    2502.7966   -44002.241    25.320589   0.95746566 
   21300    204.37582    279.84798    130404.95   -41512.741    2542.8238   -44055.565    25.241913   0.95773582 
   21400    203.61889    143.03598    130431.66   -41489.933    2533.4061   -44023.339    25.339152   0.95753969 
   21500      205.395    492.11725    130434.45   -41478.456    2555.5043    -44033.96    25.215781   0.95751922 
   21600    204.58402    210.46465    130263.11   -41443.256    2545.4142   -43988.671    25.372494   0.95877866 
   21700    208.75217    368.43325    130190.88   -41429.144    2597.2738   -44026.418    25.351551   0.95931058 
   21800    206.66615    236.86359     130160.7    -41414.17    2571.3198    -43985.49    25.464181   0.95953307 
   21900    206.82032    314.78494    130269.64   -41436.452     2573.238    -44009.69    25.534182   0.95873058 
   22000    207.59081    273.36105    130198.79   -41472.834    2582.8243   -44055.658     25.50232   0.95925232 
   22100    203.61624    319.79944    130182.92   -41428.333    2533.3731   -43961.706     25.60428   0.95936923 
   22200    203.91288     478.7348    130201.45   -41460.027    2537.0639   -43997.091    25.674474   0.95923273 
   22300    207.34686    496.94559    130266.51   -41439.795    2579.7892   -44019.584    25.878673   0.95875367 
   22400    204.74584    354.48781    130331.01   -41426.723    2547.4275   -43974.151    25.957064   0.95827916 
   22500    206.21307    387.48748    130297.48   -41429.347    2565.6826   -43995.029    25.851229   0.95852579 
   22600    208.72388    472.53817    130233.42   -41398.998    2596.9219    -43995.92    25.819323   0.95899721 
   22700    207.30539    385.25687    130480.44   -41413.432    2579.2732   -43992.705    25.855843   0.95718175 
   22800    209.44556    353.55898    130329.98   -41393.756     2605.901   -43999.657     25.98486   0.95828674 
   22900    207.93718    416.26458    130402.15   -41457.363    2587.1339   -44044.497    25.955289   0.95775636 
   23000    205.92379    260.56118    130411.02   -41441.371    2562.0835   -44003.455    25.903832   0.95769124 
   23100    204.26781    351.99374    130426.86   -41543.104    2541.4799   -44084.584    25.975283   0.95757493 
   23200    204.14932    377.15823    130484.64   -41489.571    2540.0056   -44029.577    25.965389   0.95715087 
   23300     205.3201    476.34919    130556.99   -41532.337    2554.5724   -44086.909    25.988642   0.95662049 
   23400    206.88505    391.44422    130777.64   -41476.697    2574.0434    -44050.74    26.219886   0.95500645 
   23500    205.41714    212.23214    130801.51   -41508.875    2555.7798   -44064.655    26.367622   0.95483218 
   23600     207.6446    359.44032    130584.62   -41496.586    2583.4936    -44080.08    26.332922   0.95641807 
   23700    206.31355    311.24801    130729.92   -41525.651    2566.9328   -44092.584    26.364113   0.95535508 
   23800    199.41211    336.14978    130777.21   -41565.701    2481.0658   -44046.767    26.305914   0.95500963 
   23900    203.13441    368.55165    130776.02   -41571.423    2527.3783   -44098.801    26.324882   0.95501827 
   24000    208.61212    227.15454    130754.76   -41501.134    2595.5314   -44096.666    26.414098   0.95517354 
   24100    203.39409    448.74496    130785.46   -41505.247    2530.6092   -44035.856    26.456714   0.95494933 
   24200    206.38135    305.89765    130702.98   -41557.126    2567.7764   -44124.903     26.56155   0.95555197 
   24300    203.63675    300.69873    130836.51    -41527.88    2533.6283   -44061.509    26.739189   0.95457673 
   24400    202.96981    259.41392    130730.15    -41575.64    2525.3303   -44100.971    26.484222   0.95535337 
   24500    209.48125    490.59563    130895.68   -41531.652    2606.3449   -44137.997    26.538781   0.95414527 
   24600    206.02273    319.13368    130688.01   -41522.218    2563.3145   -44085.532    26.524688   0.95566142 
   24700    203.46209    401.41363    130894.85   -41541.518    2531.4552   -44072.973    26.531779   0.95415129 
   24800    202.51644    314.59427    130875.99   -41533.407    2519.6896   -44053.097    26.654254    0.9542888 
   24900    205.81498    364.88545       130827   -41488.856    2560.7297   -44049.586    26.683352   0.95464614 
   25000    204.73962    353.69858    130915.13   -41469.751    2547.3502   -44017.102    26.690573   0.95400346 
   25100    203.70439    197.15019    130977.33   -41481.586    2534.4698   -44016.056    26.806457   0.95355042 
   25200    205.04023    296.42235    130963.25    -41523.23    2551.0902    -44074.32    26.801381   0.95365293 
   25300    206.25934    365.76386    130840.15   -41524.959    2566.2583   -44091.217    26.804404   0.95455018 
   25400    206.66815    302.45145    130818.43   -41516.898    2571.3446   -44088.243    26.865859    0.9547087 
   25500    207.52733     343.1131    130737.28   -41483.672    2582.0345   -44065.707    26.782489   0.95530127 
   25600    206.61312    285.16268    130792.45   -41561.153      2570.66   -44131.813    26.842127   0.95489833 
   25700    202.74775    420.95271    130699.96   -41592.514    2522.5675   -44115.081    26.892477   0.95557406 
   25800    206.46084    406.41386    130680.36   -41578.359    2568.7653   -44147.125     27.10341   0.95571738 
   25900    203.85576    215.05084    130683.88   -41525.048    2536.3533   -44061.401    27.007437   0.95569164 
   26000    209.09811    237.56871    130826.89   -41468.263     2601.578   -44069.841    27.024815   0.95464691 
   26100    206.36038    368.74214    130650.01   -41552.277    2567.5155   -44119.792    27.082521    0.9559394 
   26200    208.43964    281.70942    130659.77   -41561.622    2593.3854   -44155.008    26.940222   0.95586801 
   26300    206.42055    348.28483    130827.99   -41533.705     2568.264   -44101.969    27.224887   0.95463893 
   26400    204.86649    338.46716    130797.69   -41526.489    2548.9286   -44075.418    27.196482   0.95486006 
   26500    206.60323    257.44039    130912.45   -41577.423    2570.5369    -44147.96    27.296344   0.95402304 
   26600    202.96974    325.59283    130790.26   -41620.716    2525.3294   -44146.046    27.292943   0.95491433 
   26700    201.65932    454.37605    130764.34   -41644.281    2509.0253   -44153.307    27.406038   0.95510358 
   26800    203.67385    457.62134     130850.9   -41581.477    2534.0899   -44115.567    27.428677   0.95447179 
   26900    200.36994    392.13431    130854.42   -41584.218     2492.983   -44077.201    27.492767   0.95444611 
   27000    207.29921    444.93889    130915.86   -41627.864    2579.1963   -44207.061    27.472266   0.95399816 
   27100    205.20575    405.64756    130887.96   -41635.592    2553.1497   -44188.741      27.5891   0.95420156 
   27200    203.61124     277.6528    130771.67   -41642.549     2533.311    -44175.86    27.438578    0.9550501 
   27300    204.19295    504.92471    130766.64   -41664.971    2540.5486   -44205.519    27.505324   0.95508682 
   27400    206.37082    320.42244    130823.69   -41614.919    2567.6453   -44182.565     27.69984   0.95467032 
   27500    203.98585    254.33165    130925.89   -41553.808    2537.9718    -44091.78    27.695477   0.95392509 
   27600    205.15432    317.99499    130977.03   -41588.614    2552.5098   -44141.123    27.748082   0.95355265 
   27700    205.19508    461.64546    130954.46   -41595.058    2553.0169   -44148.075    27.811384   0.95371699 
   27800    205.17162    435.98634    131075.16   -41533.781     2552.725   -44086.506    27.732234   0.95283871 
   27900    208.64383    363.89167     131031.5   -41570.369    2595.9259   -44166.295    27.734766   0.95315624 
   28000    203.51809    445.14481    131099.33   -41619.455    2532.1519   -44151.607    27.967196   0.95266311 
   28100    205.24385    345.05882    131169.51   -41613.827    2553.6237    -44167.45    27.828427   0.95215337 
   28200    204.37359    337.46536    131110.64   -41658.156     2542.796   -44200.952    27.809507   0.95258088 
   28300    201.70994    400.61372    131105.91   -41664.296    2509.6551   -44173.951    27.833116   0.95261524 
   28400     201.4687    361.08881    131036.82   -41698.359    2506.6537   -44205.013    27.952504   0.95311755 
   28500    206.81481    396.76314    131009.21   -41716.513    2573.1694   -44289.683     28.11181   0.95331838 
   28600     203.7383    444.68329    130970.55   -41677.142    2534.8918   -44212.034    28.101457   0.95359978 
   28700    202.04874    353.06179    130837.02   -41671.222    2513.8704   -44185.093    28.235822   0.95457304 
   28800    203.86804    384.64191    130921.51   -41629.663     2536.506   -44166.169    28.162828   0.95395703 
   28900    204.80903    486.64363    131064.01   -41588.571    2548.2137   -44136.785    28.162636   0.95291984 
   29000    203.15081    343.11726    131123.34   -41665.009    2527.5823   -44192.592    28.300214   0.95248866 
   29100    205.84396    262.05478    131045.74    -41605.88    2561.0902    -44166.97    28.384487   0.95305263 
   29200    204.40386    175.90928    130954.67   -41563.503    2543.1726   -44106.676     28.53296   0.95371546 
   29300    205.59781    413.88318    131017.76   -41621.908    2558.0276   -44179.936    28.449797    0.9532562 
   29400    205.12323    406.66437    131091.95   -41674.178    2552.1229   -44226.301    28.466791   0.95271674 
   29500    198.85143    339.86168    131163.12   -41711.658    2474.0899   -44185.748    28.604628   0.95219973 
   29600    207.23066    376.21734    131196.77   -41638.416    2578.3434    -44216.76    28.653407    0.9519555 
   29700    204.73736    332.31803    131126.84   -41686.336     2547.322   -44233.658    28.698193    0.9524632 
   29800    205.87066     457.2049    131147.12   -41675.459    2561.4224   -44236.881      28.6788   0.95231593 
   29900    202.93094    302.47746    131138.44    -41706.65    2524.8467   -44231.497    28.774296   0.95237898 
   30000    205.93793    354.03429    130932.91    -41682.84    2562.2594   -44245.099     28.70846   0.95387398 
   30100    205.16423    338.94712    131173.23   -41687.529     2552.633   -44240.162    28.852136    0.9521264 
   30200    203.55343    564.61669    131021.25   -41697.995    2532.5916   -44230.586    28.861299   0.95323081 
   30300    209.79406    419.26334    131024.17   -41667.534    2610.2369   -44277.771    28.869048   0.95320959 
   30400    207.18229    297.39503    131221.77   -41653.417    2577.7416   -44231.158    29.042927   0.95177418 
   30500    205.95023    384.33614    131124.47   -41661.275    2562.4124   -44223.687    29.202921   0.95248042 
   30600    207.15832    362.52558    131188.51   -41648.253    2577.4434   -44225.696    29.115646   0.95201549 
   30700    204.70422    284.29742     131229.1   -41661.146    2546.9097   -44208.055    29.057527   0.95172101 
   30800    205.50564    341.21815    131188.39   -41601.598    2556.8809   -44158.479    29.167947   0.95201636 
   30900    203.30815    304.62632    131250.51   -41724.668    2529.5399   -44254.208    29.053387   0.95156573 
   31000    204.41751    420.03223    131237.04   -41755.598    2543.3424    -44298.94     29.20089   0.95166344 
   31100    204.01335    478.13067     131395.6   -41756.054     2538.314   -44294.368    29.161186   0.95051504 
   31200    204.31595    378.38371    131542.98   -41775.063    2542.0788   -44317.142    29.245184   0.94945005 
   31300     203.4543    270.35486    131437.23   -41729.589    2531.3583   -44260.947    29.221294   0.95021395 
   31400    203.98945    310.28595    131408.39   -41687.932    2538.0166   -44225.949    29.299008   0.95042249 
   31500    205.26181    252.18159    131430.37   -41736.065    2553.8472   -44289.912    29.220922   0.95026353 
   31600    207.32615    385.10098    131317.42   -41664.404    2579.5314   -44243.935    29.363364    0.9510809 
   31700     204.5192    271.83027     131240.8   -41692.694    2544.6077   -44237.302    29.240559   0.95163618 
   31800    208.01293    337.90474    131333.21   -41629.079    2588.0763   -44217.155    29.201042   0.95096656 
   31900    207.62715    483.59036    131445.32   -41625.673    2583.2765    -44208.95    29.372682   0.95015548 
   32000    205.43839    342.79063    131397.47   -41631.501    2556.0442   -44187.545     29.21981   0.95050146 
   32100    208.83598    428.54153    131403.29    -41655.33    2598.3166   -44253.647    29.335813   0.95045941 
   32200    210.59841    443.20733    131509.02   -41648.614    2620.2447   -44268.858     29.43558   0.94969528 
   32300    204.04152     374.8047     131370.2   -41626.551    2538.6645   -44165.215    29.389009    0.9506988 
   32400    209.55398    214.86756    131334.74   -41681.536    2607.2498   -44288.786    29.477513   0.95095546 
   32500    200.88709    336.66881    131271.38   -41676.484    2499.4173   -44175.901    29.516977   0.95141448 
   32600    204.30364    365.08848    131293.39   -41624.748    2541.9257   -44166.674    29.446106   0.95125497 
   32700    203.08252    382.00925    131390.98   -41686.747    2526.7326    -44213.48    29.476612   0.95054848 
   32800    200.41691    248.86769    131441.44   -41720.971    2493.5673   -44214.538     29.54917   0.95018351 
   32900    203.59896    368.09424    131480.77   -41714.005    2533.1581   -44247.163    29.643164   0.94989928 
   33000    203.32196    179.86794    131370.36   -41771.449    2529.7117   -44301.161    29.602411   0.95069761 
   33100    200.67507    328.86369    131324.88   -41705.855    2496.7793   -44202.634    29.689155    0.9510269 
   33200    202.80519    221.59868    131122.28   -41741.423    2523.2821   -44264.706    29.690411   0.95249631 
   33300    205.25496    394.80803    130991.74   -41673.764    2553.7619   -44227.526    29.635676   0.95344557 
   33400    203.42205    344.45937    131181.14    -41752.63    2530.9571   -44283.587    29.577487   0.95206893 
   33500    206.53776    461.21019    131294.26   -41730.582    2569.7224   -44300.304    29.695691   0.95124864 
   33600    204.33396    278.59186     131387.9   -41706.847     2542.303    -44249.15     29.68362   0.95057071 
   33700    204.30406    325.50752    131388.57   -41695.908    2541.9309   -44237.839    29.733865   0.95056588 
   33800     207.1343    368.21819    131595.72   -41693.146    2577.1444   -44270.291    29.777474   0.94906957 
   33900    205.91581    301.71432    131559.72   -41715.308    2561.9842   -44277.292     29.87998   0.94932927 
   34000     207.5309    377.17657    131484.54    -41677.28    2582.0789   -44259.359    29.873137   0.94987204 
   34100    205.66824    314.36247    131538.63    -41710.68    2558.9039   -44269.584     29.89642   0.94948145 
   34200    203.25624    254.74974    131426.55   -41716.037     2528.894   -44244.931    29.943817   0.95029117 
   34300    200.87137    231.44971    131328.11   -41763.151    2499.2218   -44262.373    30.004383   0.95100351 
   34400    205.50705    320.08968    131374.49    -41686.57    2556.8984   -44243.468    30.049452   0.95066775 
   34500      204.318      452.807     131454.1   -41710.219    2542.1044   -44252.324    30.065827   0.95009202 
   34600    203.89589    278.31329    131359.27   -41696.778    2536.8525   -44233.631    30.111603    0.9507779 
   34700    202.48068    357.64445    131480.01   -41767.386    2519.2447   -44286.631    29.927116   0.94990477 
   34800    204.11939    351.25583    131468.84   -41751.586    2539.6333   -44291.219    29.934528   0.94998551 
   34900    201.70326    432.23841    131513.34   -41757.061     2509.572   -44266.633    30.060424   0.94966402 
   35000    203.39605    417.96551     131620.4    -41825.06    2530.6335   -44355.694    30.151763    0.9488916 
   35100    202.19493    289.02991    131573.61   -41770.383    2515.6893   -44286.072     30.31987   0.94922905 
   35200    202.46188    333.43259    131533.32   -41770.569    2519.0107    -44289.58     30.30305   0.94951978 
   35300    201.62051    391.36329    131615.89   -41761.459    2508.5424   -44270.002    30.193667   0.94892411 
   35400    202.70287    338.77977     131711.9   -41784.608    2522.0091   -44306.618    30.221977   0.94823237 
   35500    206.38243     338.1672    131646.84   -41692.796    2567.7898   -44260.586    30.237106   0.94870103 
   35600    204.64103    324.80481    131671.85   -41731.455    2546.1235   -44277.579    30.386919   0.94852081 
   35700    205.34838    401.41706    131769.35   -41708.146    2554.9243   -44263.071     30.28429   0.94781895 
   35800    202.93758    354.24416    131726.83   -41749.084    2524.9294   -44274.013    30.323384   0.94812494 
   35900    205.13502    270.42365    131721.34   -41706.712    2552.2697   -44258.981    30.344976   0.94816446 
   36000    206.00042    350.42935    131505.61   -41672.716    2563.0369   -44235.753    30.308097   0.94971989 
   36100    209.26505    354.09282    131530.17   -41697.118     2603.655   -44300.773    30.316164   0.94954257 
   36200    202.86511    318.71446    131468.04   -41734.535    2524.0276   -44258.563    30.367449   0.94999124 
   36300    202.06205    198.85205    131409.21   -41793.913     2514.036   -44307.949    30.351515   0.95041658 
   36400    207.25625    496.05759    131423.38   -41742.028    2578.6617    -44320.69    30.368628   0.95031407 
   36500    207.06203    270.47406    131561.04   -41725.538    2576.2452   -44301.783    30.457473   0.94931975 
   36600    202.59638    380.09759    131580.09   -41835.746    2520.6841    -44356.43    30.573307   0.94918232 
   36700    199.21095    309.39438     131465.1   -41785.513     2478.563   -44264.076    30.529172   0.95001253 
   36800    203.64894    294.85356    131535.44   -41767.967      2533.78   -44301.747    30.415719   0.94950449 
   36900    201.63677    327.10201    131634.48   -41793.502    2508.7448   -44302.247    30.295201   0.94879011 
   37000    207.49823     391.2295    131681.11   -41743.662    2581.6724   -44325.335     30.36761   0.94845413 
   37100    207.33779    221.84355       131615   -41731.039    2579.6763   -44310.715    30.282345   0.94893052 
   37200    203.96872    343.25619    131600.15   -41784.081    2537.7586    -44321.84    30.490496   0.94903764 
   37300     204.4651     504.3757    131630.41   -41792.555    2543.9346   -44336.489    30.390259   0.94881941 
   37400    205.52821    418.91118    131588.15   -41820.465    2557.1617   -44377.627    30.570981   0.94912414 
   37500    199.55161    409.71129    131613.88   -41817.796    2482.8014   -44300.598    30.590244   0.94893858 
   37600    205.72385    346.28122    131732.72   -41767.991    2559.5958   -44327.587    30.634301   0.94808254 
   37700     204.3538    441.83143    131681.95   -41778.169    2542.5497   -44320.719    30.553315    0.9484481 
   37800    199.22201    326.39471    131647.67   -41863.917    2478.7006   -44342.617    30.410745   0.94869502 
   37900    203.80187    334.57795    131721.97    -41835.31    2535.6827   -44370.993    30.366132   0.94815991 
   38000    203.40838    287.73249    131707.91   -41814.377     2530.787   -44345.164    30.594009   0.94826115 
   38100    206.97405    460.34915    131672.33   -41765.499    2575.1507    -44340.65    30.621336   0.94851733 
   38200    202.75616    358.62781    131675.59   -41774.492     2522.672   -44297.164    30.738182   0.94849391 
   38300    203.69032    201.40622    131686.17   -41716.762    2534.2949   -44251.056    30.518313   0.94841765 
   38400    202.31008    335.33131    131558.41   -41766.648     2517.122    -44283.77    30.773358   0.94933868 
   38500    200.20931    439.32853    131412.85    -41767.37    2490.9844   -44258.354    30.789138   0.95039027 
   38600    205.23994     196.8835    131517.64   -41719.161    2553.5751   -44272.736    30.842983   0.94963298 
   38700    206.03914    325.77996    131435.15   -41723.854    2563.5186   -44287.372    30.623171   0.95022903 
   38800    203.07366    352.31808    131387.57   -41741.144    2526.6224   -44267.767    30.737657   0.95057312 
   38900    207.23739    284.19798    131308.02    -41697.09    2578.4271   -44275.517    30.716911   0.95114902 
   39000    204.38697    393.70684    131355.14   -41735.495    2542.9624   -44278.457    30.670303   0.95080777 
   39100     204.4242    444.24726    131483.53    -41699.81    2543.4257   -44243.236    30.741924   0.94987933 
   39200    202.56166    344.54304     131483.7   -41718.361    2520.2522   -44238.613    30.849962   0.94987813 
   39300    204.08012     360.6962    131523.37   -41707.259    2539.1447   -44246.404    31.022538   0.94959164 
   39400    206.86021    407.22183    131565.89   -41670.735    2573.7343   -44244.469    30.995293   0.94928477 
   39500     207.2543    265.96759    131459.38   -41651.468    2578.6375   -44230.105    31.081954   0.95005384 
   39600    205.29186     220.1398     131395.1    -41693.61    2554.2211   -44247.831    31.031164   0.95051864 
   39700    205.61275    382.11383    131293.35   -41636.435    2558.2135   -44194.649    30.840408   0.95125525 
   39800    202.22787    355.50459    131279.21   -41701.458    2516.0991   -44217.557    30.958809   0.95135772 
   39900    205.60215    450.46561    131397.95   -41737.248    2558.0816   -44295.329    31.255485   0.95049803 
   40000    202.62308    492.10182    131520.22    -41769.44    2521.0164   -44290.457    31.201152   0.94961435 
   40100    203.23126     306.8257    131634.45   -41676.726    2528.5833   -44205.309    31.083136   0.94879029 
   40200    206.56633    276.04461    131689.85   -41712.174    2570.0779   -44282.252    31.153831    0.9483912 
   40300    202.94454     384.0303    131598.29   -41697.519    2525.0159   -44222.535    31.295611   0.94905102 
   40400    209.24851    316.06384    131682.38   -41627.043    2603.4493   -44230.493    31.425641   0.94844495 
   40500    210.58119    267.15537    131560.28   -41641.841    2620.0304   -44261.871    31.327425   0.94932522 
   40600    206.73323    454.19495    131448.39   -41682.307    2572.1544   -44254.461     31.33144   0.95013329 
   40700    203.60256    277.32645    131454.73   -41730.145     2533.203   -44263.348    31.089508   0.95008745 
   40800    202.85633    267.84753    131615.49   -41775.406    2523.9185   -44299.324    31.302249   0.94892701 
   40900    200.00948    242.58883    131575.85   -41799.978    2488.4982   -44288.476    31.170098   0.94921291 
   41000     204.8907    222.49701    131594.23   -41709.618    2549.2299   -44258.848    31.166152   0.94908031 
   41100    206.77908    481.73661    131588.83   -41689.831    2572.7249   -44262.556     31.24269   0.94911922 
   41200    203.07694    439.82991    131538.82   -41701.181    2526.6632   -44227.845    31.321842   0.94948011 
   41300    201.75879    542.56391     131530.1   -41843.433    2510.2629   -44353.696     31.35943   0.94954306 
   41400    203.90792    440.81736     131522.7   -41794.584    2537.0022   -44331.586    31.436127   0.94959649 
   41500    204.94303    332.50206     131537.1    -41792.02    2549.8809   -44341.901    31.409076   0.94949249 
   41600    202.95883    302.06732    131453.02   -41764.372    2525.1937   -44289.566    31.382024   0.95009984 
   41700    203.42101    388.86647    131494.96   -41736.906    2530.9441    -44267.85    31.225807   0.94979677 
   41800      200.967    484.98936     131433.8   -41742.019    2500.4115    -44242.43    31.308452   0.95023874 
   41900    204.79442    418.96628    131502.84   -41716.949     2548.032   -44264.981    31.461521   0.94973986 
   42000    206.76643    245.75788    131443.16   -41721.787    2572.5675   -44294.355    31.495896    0.9501711 
   42100    206.62846     197.1695    131312.85    -41715.97    2570.8509    -44286.82    31.616601   0.95111397 
   42200    205.02969    367.16756    131238.86   -41673.326    2550.9591   -44224.285     31.53606   0.95165025 
   42300    202.64983    303.54219    131184.75   -41650.783    2521.3492   -44172.133    31.390083   0.95204279 
   42400    208.81523    572.14269     131375.9   -41684.255    2598.0585   -44282.313    31.482114   0.95065754 
   42500    203.48009    319.85964    131475.24   -41692.408    2531.6792   -44224.088    31.502691   0.94993927 
   42600    206.53327    329.96954    131420.57   -41702.927    2569.6666   -44272.594    31.609326   0.95033442 
   42700    205.20259    437.54655    131691.74   -41717.294    2553.1104   -44270.404    31.728986   0.94837754 
   42800    210.41767    402.82205    131665.54   -41670.857    2617.9958   -44288.853    31.779701   0.94856625 
   42900    205.70325    462.87332    131636.97    -41744.15    2559.3395    -44303.49    31.797467   0.94877214 
   43000    204.88803    261.64401    131622.83   -41767.956    2549.1967   -44317.153    31.633219   0.94887409 
   43100    204.81814    215.05165    131504.15   -41744.954     2548.327   -44293.281    31.768329   0.94973042 
   43200    207.90452    414.56619    131477.56   -41713.701    2586.7274   -44300.429    31.859757   0.94992251 
   43300    203.03996    339.16153    131565.45   -41718.492    2526.2031   -44244.695    31.902297   0.94928789 
   43400    207.59726    422.44684    131511.26   -41680.156    2582.9046   -44263.061    31.994567    0.9496791 
   43500    205.36382    255.77087    131551.75   -41688.668    2555.1163   -44243.785    31.972591   0.94938675 
   43600    210.85295    363.29689    131317.03   -41596.832    2623.4115   -44220.243    31.848613   0.95108372 
   43700    207.57675    238.02765    131447.62   -41628.756    2582.6495   -44211.405    32.025918   0.95013882 
   43800    206.08855    262.91468    131531.77   -41631.165    2564.1334   -44195.299    31.961881   0.94953099 
   43900    204.80008    357.49846    131592.17   -41679.979    2548.1024   -44228.081    32.107423   0.94909519 
   44000    206.25791    215.38779    131543.81   -41721.455    2566.2405   -44287.695    32.015334   0.94944407 
   44100     204.8944     387.4971    131576.85   -41744.303    2549.2759   -44293.579    31.994077   0.94920563 
   44200    202.95329    276.71537    131651.49   -41787.302    2525.1247   -44312.427    32.055193   0.94866749 
   44300    204.27937    321.28321    131600.02   -41784.626    2541.6238   -44326.249    32.026589   0.94903854 
   44400    205.38582     356.1954    131624.36   -41753.708    2555.3901   -44309.098    31.996895   0.94886302 
   44500    203.61344     378.4057    131561.62   -41781.007    2533.3383   -44314.346    32.058191   0.94931554 
   44600    201.62698    213.80205     131521.2   -41853.429    2508.6229   -44362.052    32.076427   0.94960732 
   44700    204.69452    457.57682    131564.82   -41820.718     2546.789   -44367.507     32.06168   0.94929243 
   44800    201.21846    302.77475     131587.6   -41783.833    2503.5402   -44287.373    31.973895   0.94912809 
   44900    206.05898    419.44765    131629.83   -41738.834    2563.7655   -44302.599    32.040262   0.94882364 
   45000    207.85828    343.43485    131603.38   -41742.538    2586.1522    -44328.69     32.12244   0.94901434 
   45100    209.72858     371.0974    131591.64   -41687.359    2609.4223   -44296.782    32.168502   0.94909895 
   45200    205.09534    511.06357    131710.36   -41734.853    2551.7759   -44286.629    32.021199   0.94824351 
   45300    204.56037    430.55692    131711.23   -41751.255    2545.1199   -44296.375    32.063883   0.94823723 
   45400    207.90214    429.56501    131753.72    -41730.56    2586.6979   -44317.258    32.281162   0.94793139 
   45500    203.73766    275.24121    131733.43   -41745.519    2534.8838   -44280.403    32.224774   0.94807742 
   45600    206.57267      254.079    131643.13    -41729.13    2570.1567   -44299.286    32.208607   0.94872777 
   45700      203.585    421.68276    131751.99   -41747.551    2532.9844   -44280.536    32.216837    0.9479439 
   45800    205.60686    297.07731    131861.15   -41700.019    2558.1402   -44258.159    32.160976    0.9471591 
   45900    207.17387    241.83252    131891.65   -41645.084    2577.6368   -44222.721    32.398891    0.9469401 
   46000    209.45733    312.46624    131884.63    -41628.14    2606.0474   -44234.188    32.345453   0.94699046 
   46100     211.5157    311.11079    131863.06   -41595.002    2631.6575   -44226.659    32.393822   0.94714537 
   46200    211.86639    342.00318    131867.91   -41598.272    2636.0207   -44234.293    32.399973    0.9471106 
   46300    207.99305    375.09136    131802.18   -41618.215    2587.8289   -44206.044    32.389041   0.94758291 
   46400    208.97202    262.08799    131785.99    -41654.05    2600.0092   -44254.059    32.411094    0.9476993 
   46500    208.92087    243.99721     131808.8   -41664.013    2599.3728   -44263.386    32.312033   0.94753531 
   46600    209.78699    272.32886    131776.88   -41647.398     2610.149   -44257.547    32.351806   0.94776481 
   46700    204.47506    286.65691     131714.4   -41724.728    2544.0585   -44268.787    32.185468   0.94821439 
   46800    201.92318    335.78399    131717.93   -41772.113    2512.3083   -44284.421    32.373805   0.94818902 
   46900    206.24547    402.23133    131684.83    -41705.16    2566.0858   -44271.246    32.514806   0.94842735 
   47000    206.37464    316.74195    131609.29   -41692.399    2567.6928   -44260.092    32.453262   0.94897167 
   47100    210.07533    323.17055    131772.89   -41667.646    2613.7365   -44281.383    32.567259   0.94779353 
   47200    208.32881     487.1737    131741.66   -41728.777    2592.0065   -44320.783    32.470235    0.9480182 
   47300    203.57921    511.78933    131707.03   -41757.971    2532.9124   -44290.884    32.475946   0.94826744 
   47400    205.12392    429.81264    131875.59   -41725.659    2552.1316   -44277.791     32.70442   0.94705539 
   47500    207.91775    504.83757    131772.57   -41675.757     2586.892    -44262.65    32.791522   0.94779583 
   47600    208.95616    432.25853    131872.12   -41637.633    2599.8118   -44237.445    32.913618   0.94708036 
   47700    206.61494    258.54344    131702.64   -41691.443    2570.6827   -44262.126    32.798974   0.94829904 
   47800    207.02146      496.004    131701.82   -41707.235    2575.7405   -44282.976    32.689222   0.94830501 
   47900    206.16552    375.77485    131672.23   -41792.997     2565.091   -44358.088    32.766775    0.9485181 
   48000    204.25568    287.76388    131724.86   -41817.165     2541.329   -44358.494    32.817173   0.94813909 
   48100    207.45062    306.26211    131678.38   -41789.911    2581.0801   -44370.991    32.937579   0.94847377 
   48200    203.48556    355.53946    131732.91   -41821.615    2531.7473   -44353.362    32.786043    0.9480812 
   48300    206.43626    373.23244    131699.15   -41807.427    2568.4595   -44375.887    32.873171   0.94832421 
   48400    208.33816    495.53684    131645.52   -41723.354    2592.1228   -44315.477    32.973153   0.94871054 
   48500    207.28215    347.38923    131706.79   -41771.028     2578.984   -44350.012    32.865173    0.9482692 
   48600    206.42268    323.25275    131836.39   -41775.779    2568.2906   -44344.069    32.870618   0.94733704 
   48700    203.92684    343.82428     131786.6   -41746.501    2537.2375   -44283.739    32.885719   0.94769491 
   48800    202.74279    331.56235    131853.42   -41776.349    2522.5057   -44298.854    32.968037   0.94721464 
   48900    207.34844    522.89976    131712.76   -41767.426    2579.8088   -44347.235     32.96954    0.9482262 
   49000    203.50972    402.29804     131776.7   -41795.261    2532.0478   -44327.309    33.120534   0.94776611 
   49100    203.60421    272.82422    131683.56   -41783.581    2533.2235   -44316.805    33.110972   0.94843651 
   49200    205.81888    390.21105    131749.76   -41798.353    2560.7782   -44359.131    33.154466    0.9479599 
   49300    207.12918    473.47027    131802.42   -41741.679    2577.0807    -44318.76    33.243283   0.94758114 
   49400    203.74192     480.3315    131732.89   -41716.957    2534.9369   -44251.894     33.09991   0.94808133 
   49500    206.14567    426.40344    131751.95   -41717.037     2564.844   -44281.881    33.157282   0.94794418 
   49600    204.97471    245.93229    131674.47   -41714.565    2550.2751    -44264.84    33.201777   0.94850192 
   49700    206.33032    392.20174    131615.31   -41724.789    2567.1415   -44291.931    33.100626   0.94892831 
   49800    203.54034    356.01319    131678.44   -41774.275    2532.4287   -44306.704    33.332932   0.94847332 
   49900    205.87688    336.79424    131796.93   -41669.752    2561.4998   -44231.252    33.337016   0.94762065 
   50000    205.57983     209.6175    131709.85   -41704.082     2557.804   -44261.886    33.345736   0.94824719 
   50100    207.64161    478.66191    131688.21   -41712.892    2583.4563   -44296.348    33.257236   0.94840299 
   50200    206.59527     253.0521    131628.18   -41750.768     2570.438   -44321.206    33.323196   0.94883551 
   50300    205.39122    376.33478    131553.51   -41725.751    2555.4572   -44281.209    33.262152   0.94937408 
   50400    207.07758    261.96767    131492.49   -41757.759    2576.4387   -44334.198    33.082864    0.9498146 
   50500    204.47927    388.67151    131513.77   -41800.023    2544.1109   -44344.134    33.132251   0.94966098 
   50600    202.95141    251.41205    131646.63   -41821.865    2525.1014   -44346.966     33.36708   0.94870253 
   50700     199.5815    198.62124    131500.83   -41827.761    2483.1733   -44310.934    33.412337    0.9497544 
   50800    200.39906    464.64442    131457.54   -41814.104    2493.3452   -44307.449    33.324457   0.95006718 
   50900    206.10734    359.90104    131534.45   -41729.143    2564.3672    -44293.51    33.484497   0.94951162 
   51000    204.14236    314.55986     131566.9   -41756.203    2539.9191   -44296.122    33.578652   0.94927747 
   51100    204.06957    374.64116       131668   -41788.034    2539.0134   -44327.048    33.652123   0.94854857 
   51200    203.31795    419.11398    131725.32   -41773.336    2529.6619   -44302.997    33.721416   0.94813582 
   51300     202.5195    261.05085    131659.36   -41827.133    2519.7276    -44346.86    33.721752   0.94861082 
   51400    200.23817    266.35426    131697.93    -41815.18    2491.3435   -44306.523    33.740143   0.94833297 
   51500    203.50508    302.52472       131631   -41806.026    2531.9901   -44338.016    33.744939   0.94881519 
   51600    202.70518    357.70406    131720.69   -41758.134    2522.0379   -44280.172    33.734559   0.94816916 
   51700    205.48502    350.36202    131758.46   -41738.589    2556.6243   -44295.214    33.854505   0.94789735 
   51800    201.70684    329.63333    131532.43   -41782.952    2509.6165   -44292.569     33.87315   0.94952624 
   51900     203.2681     303.2861    131595.03   -41814.659    2529.0417     -44343.7    34.065851    0.9490745 
   52000    201.33344    394.57938    131744.58   -41835.828    2504.9708   -44340.799    34.096885   0.94799719 
   52100    201.31434    305.60525    131742.12   -41782.604    2504.7331   -44287.337    34.144408   0.94801487 
   52200    201.55263    384.61797    131766.89    -41800.88    2507.6979   -44308.577    34.333918   0.94783664 
   52300      201.342    399.07066    131860.14   -41783.764    2505.0773   -44288.842    34.305092   0.94716641 
   52400    209.64757    429.37508    131903.19   -41748.936    2608.4143    -44357.35    34.206421   0.94685723 
   52500     203.1413    400.79925    131963.37   -41749.912    2527.4639   -44277.375    34.291963   0.94642545 
   52600    204.79402    358.42379    132033.72   -41762.738    2548.0269   -44310.765    34.187148   0.94592117 
   52700    202.60525    356.64415    132001.16   -41797.098    2520.7945   -44317.893    34.283056   0.94615451 
   52800    204.49047    302.34422    131960.62   -41761.212    2544.2502   -44305.462    34.351529   0.94644519 
   52900    203.68629    496.96297    132089.88     -41765.1    2534.2447   -44299.345    34.386302   0.94551901 
   53000    208.86554    272.28448    132062.79   -41763.568    2598.6844   -44362.252    34.527044   0.94571295 
   53100    207.28779    335.31326    131985.25   -41804.782    2579.0542   -44383.836    34.395939   0.94626858 
   53200     202.8369    243.22064     131845.8   -41794.384    2523.6767   -44318.061    34.390534   0.94726938 
   53300    203.89907    360.85779    131810.04   -41791.122    2536.8921   -44328.014    34.437772   0.94752639 
   53400    204.19441    285.69134    131765.46    -41866.96    2540.5667   -44407.527     34.49147   0.94784697 
   53500    202.51729     404.9911    131811.36    -41865.49    2519.7002   -44385.191     34.52588   0.94751691 
   53600    201.18668     363.1066    131781.74   -41869.828    2503.1448   -44372.973    34.553647   0.94772984 
   53700    200.46021    314.49772    131613.13   -41897.386    2494.1061   -44391.492    34.509175     0.948944 
   53800    204.20941    356.02779    131755.28   -41785.769    2540.7533   -44326.523    34.543004   0.94792019 
   53900    201.17794    415.69057    131802.48   -41829.039     2503.036   -44332.075    34.616694   0.94758073 
   54000    207.59896    385.21073    131764.81   -41811.651    2582.9257   -44394.577    34.611908   0.94785162 
   54100    205.01517    372.36482    131689.44   -41838.478    2550.7785   -44389.256    34.633771   0.94839414 
   54200    207.84234     218.4272    131727.34   -41823.745    2585.9538   -44409.699    34.559532   0.94812129 
   54300    204.88568    428.97208     131764.2   -41799.585    2549.1674   -44348.752    34.565219     0.947856 
   54400    203.46872    385.19731    131870.71   -41828.247    2531.5378   -44359.784    34.654291   0.94709044 
   54500    209.00473    376.22388     131941.9   -41819.246    2600.4162   -44419.662    34.802533   0.94657947 
   54600    208.72034    415.42564    131886.93   -41737.597    2596.8778   -44334.474    34.682601   0.94697399 
   54700    209.90293    291.92166    131928.84   -41752.784    2611.5916   -44364.376    34.658222   0.94667312 
   54800    207.23033     343.9281    131981.51   -41829.151    2578.3393    -44407.49    34.827186   0.94629535 
   54900    202.37886    341.64538     132003.3   -41879.768    2517.9778   -44397.746    34.743749   0.94613917 
   55000     201.4435    372.60568    131891.71   -41935.959    2506.3402   -44442.299    34.751086   0.94693969 
   55100    199.73232    449.63027    131916.68   -41902.748    2485.0498   -44387.798    34.730351   0.94676041 
   55200    205.72749    325.66774    131949.74   -41909.743    2559.6411   -44469.384    34.724761   0.94652318 
   55300     205.4862    362.43457    132019.08   -41874.661     2556.639     -44431.3     34.94938   0.94602607 
   55400    206.03036    338.27942    131960.54   -41851.905    2563.4094   -44415.314    34.894848   0.94644574 
   55500     204.5638    247.46987    131840.69   -41795.373    2545.1626   -44340.536    34.711279   0.94730613 
   55600     203.5676    354.95416    131686.03   -41825.469     2532.768   -44358.237    34.790143   0.94841866 
   55700    202.56608    449.36071    131799.19   -41803.315    2520.3071   -44323.622    34.820952   0.94760439 
   55800    204.97331    348.81634    131736.95   -41810.905    2550.2576   -44361.163    34.720596   0.94805212 
   55900    205.96909     474.1646    131803.73   -41777.317    2562.6471   -44339.964    34.868376   0.94757174 
   56000    208.16916    267.65972    131728.99   -41774.288    2590.0201   -44364.308    34.860627   0.94810941 
   56100    207.37403    196.59192    131843.67   -41751.225    2580.1272   -44331.352    35.011837   0.94728467 
   56200      204.157    339.05224    131772.34   -41756.945    2540.1012   -44297.046     34.93463   0.94779751 
   56300    207.49603     337.4223    131603.31   -41788.769    2581.6451   -44370.414    34.935597   0.94901484 
   56400    208.01458    343.42177    131600.58   -41771.327    2588.0969   -44359.424    34.835086   0.94903451 
   56500    202.58531    261.57022    131642.32   -41853.877    2520.5464   -44374.423    34.900919   0.94873362 
   56600    199.98423    217.59265    131769.59    -41865.21     2488.184   -44353.394    34.951979   0.94781726 
   56700    202.18121    300.16172    131777.75   -41884.129    2515.5186   -44399.647    35.105954   0.94775855 
   56800     206.6637    297.93996    131784.07   -41821.517    2571.2893   -44392.807    35.080249   0.94771315 
   56900    207.49361    491.02083     131827.1   -41804.156     2581.615   -44385.771    35.059537   0.94740374 
   57000      205.357    380.97126    131723.88   -41741.316    2555.0315   -44296.348    35.128905   0.94814616 
   57100    204.44971    279.27819    131683.17   -41793.164     2543.743   -44336.907    35.101149   0.94843926 
   57200    205.33927    372.76015    131544.01   -41820.338    2554.8109   -44375.149    35.026029   0.94944261 
   57300    199.55866    293.33097    131571.32   -41868.079    2482.8891   -44350.968    35.096557   0.94924555 
   57400    199.01761    343.56276    131528.13   -41874.487    2476.1575   -44350.645    35.100073   0.94955729 
   57500    200.39931    280.48331    131621.92   -41908.833    2493.3484   -44402.181    35.322642   0.94888062 
   57600    201.02388     282.8182    131604.32   -41860.909    2501.1192   -44362.028    35.330179   0.94900756 
   57700    201.88087    508.00637    131680.81   -41899.126    2511.7818   -44410.908    35.327899    0.9484563 
   57800    200.59824    268.11967    131639.34   -41931.135    2495.8235   -44426.959    35.351249   0.94875506 
   57900    200.18279     320.5059    131438.02   -41889.405    2490.6545    -44380.06    35.338973   0.95020827 
   58000    202.61997    343.67202    131465.03   -41892.462    2520.9777    -44413.44    35.362702   0.95001306 
   58100    207.67518    311.63858    131575.44   -41820.067    2583.8741   -44403.941    35.476531    0.9492158 
   58200    202.78427    307.70493    131455.94    -41774.12    2523.0219   -44297.141     35.45181   0.95007869 
   58300    208.79424    417.93092    131563.53   -41712.987    2597.7973   -44310.784    35.390337   0.94930177 
   58400    204.27873    424.54562    131584.95   -41709.408    2541.6158   -44251.024    35.459371   0.94914725 
   58500    210.40702    413.54956    131678.01   -41720.225    2617.8633   -44338.088    35.460181   0.94847645 
   58600    210.55808    205.65275     131621.2   -41697.283    2619.7428   -44317.026    35.598097   0.94888584 
   58700     209.0937    412.90042    131591.11   -41697.577    2601.5232   -44299.101    35.825928    0.9491028 
   58800    204.80768    398.75699     131613.1   -41745.453    2548.1969    -44293.65    35.828661   0.94894419 
   58900    204.46685    314.41451    131695.26   -41792.164    2543.9563    -44336.12    35.653436   0.94835219 
   59000    205.72629    431.70026    131735.96   -41788.711    2559.6261   -44348.337    35.725779   0.94805925 
   59100     207.6158    420.26633    131769.31   -41790.657    2583.1353   -44373.792    35.933509   0.94781927 
   59200    204.38756    344.05414    131694.03   -41798.366    2542.9699   -44341.336    36.010026   0.94836105 
   59300    203.93806    399.16946    131860.25   -41792.381    2537.3772   -44329.758    36.103259   0.94716556 
   59400    203.65318    399.27643    131909.13   -41831.725    2533.8328   -44365.558    36.162722    0.9468146 
   59500    205.44422    301.64922    131990.53   -41798.806    2556.1167   -44354.923    36.200367    0.9462307 
   59600    206.92366    301.64875    131746.73   -41784.128    2574.5238   -44358.652    36.254353   0.94798171 
   59700    202.55452    395.19537    131824.76   -41818.324    2520.1634   -44338.487    36.197421   0.94742058 
   59800    201.76323    303.39444    131715.83   -41803.439    2510.3181   -44313.757    35.966362   0.94820413 
   59900    203.36499    409.29566    131848.32   -41784.218    2530.2471   -44314.465    35.961798    0.9472513 
   60000    202.75532    430.75288    132114.64    -41825.21    2522.6617   -44347.872    36.184778   0.94534181 
   60100    206.37966    268.63969    132076.49   -41799.134    2567.7553   -44366.889    36.359286   0.94561488 
   60200     205.9335    353.22066    131964.78   -41780.929    2562.2042   -44343.133    36.430492   0.94641535 
   60300    206.56629    428.26479    131948.78   -41747.734    2570.0774   -44317.811    36.400671   0.94653009 
   60400    210.43364    317.63741    132011.71    -41709.93    2618.1945   -44328.125     36.41581   0.94607892 
   60500    201.61353    422.78208    131944.95   -41732.262    2508.4557   -44240.718    36.313255    0.9465576 
   60600    209.29365    256.88532    131879.29    -41789.82    2604.0109   -44393.831    36.336463   0.94702888 
   60700    207.30048    416.52652    131876.34   -41815.932    2579.2121   -44395.144    36.318189   0.94705001 
   60800    205.14628    318.28104    131935.46   -41784.707    2552.4097   -44337.117     36.20829   0.94662562 
   60900    208.48022    390.17951    131881.06   -41782.042    2593.8903   -44375.932    36.357596    0.9470161 
   61000    206.62863    481.13187    131944.35   -41818.301     2570.853   -44389.154    36.519218   0.94656189 
   61100    202.83979    238.42566    131845.77   -41857.743    2523.7126   -44381.456    36.606436   0.94726962 
   61200    203.16027    349.02861    131974.01   -41855.643       2527.7   -44383.343    36.432227   0.94634915 
   61300    198.98377    247.65066    132049.03   -41843.093    2475.7364   -44318.829    36.329577   0.94581148 
   61400    203.27119    407.80252    131953.56    -41876.14    2529.0801    -44405.22    36.428093   0.94649579 
   61500     202.4813    392.54945    131905.15   -41867.624    2519.2524   -44386.877     36.51753   0.94684319 
   61600    203.53832    352.98959    132083.13   -41824.228    2532.4037   -44356.632     36.49498   0.94556732 
   61700    200.29754     325.0351    131960.06   -41893.668    2492.0821    -44385.75    36.595594   0.94644918 
   61800    201.53648    386.90971    131831.16   -41949.803    2507.4969     -44457.3    36.557102   0.94737458 
   61900    202.21362     379.3572    131772.03    -41890.71    2515.9219   -44406.631    36.529893   0.94779968 
   62000    206.69107    429.20119    131819.98   -41842.567    2571.6298   -44414.197    36.566766   0.94745494 
   62100    201.48187    418.38436    131800.04   -41857.426    2506.8175   -44364.244    36.679547   0.94759827 
   62200    208.56809    359.05512    131889.14    -41813.52    2594.9836   -44408.503    36.638489   0.94695809 
   62300    203.12232    227.31207    131784.49   -41843.705    2527.2278   -44370.932    36.463005   0.94771012 
   62400    208.01863    353.80823    131789.65   -41797.422    2588.1472   -44385.569    36.557565   0.94767297 
   62500    204.47898    343.14208    131844.05   -41805.729    2544.1072   -44349.836    36.850423   0.94728196 
   62600    205.20898    345.04897    131883.77   -41819.639    2553.1898   -44372.829    36.750217   0.94699666 
   62700    202.47773    422.81242    131853.84   -41845.741    2519.2079   -44364.949    36.612968   0.94721163 
   62800     205.3816    376.01431    131895.66   -41829.989    2555.3376   -44385.326    36.731498   0.94691133 
   62900    206.71777    417.52398     131959.8   -41787.424    2571.9621   -44359.386     36.71473   0.94645105 
   63000    206.82746    253.19523    132027.85   -41748.678    2573.3268   -44322.004     36.70888   0.94596324 
   63100    212.12305    235.16378    131893.24   -41730.973     2639.214   -44370.187    36.655304    0.9469287 
   63200    204.37058    391.94528    131886.15   -41763.715    2542.7586   -44306.473    36.629659   0.94697961 
   63300    205.60935    226.77634    131830.18   -41796.294    2558.1713   -44354.465     36.55222   0.94738163 
   63400    206.76469    540.23648    131661.94   -41720.047    2572.5458   -44292.593     36.55755   0.94859225 
   63500    206.17625    316.32251    131809.78   -41807.529    2565.2245   -44372.753    36.694073   0.94752825 
   63600    204.18616    416.92366    131749.65   -41803.877     2540.464   -44344.341    36.767433   0.94796068 
   63700    204.18362    305.76085    131829.45   -41811.427    2540.4324   -44351.859    36.779787   0.94738686 
   63800    203.54559    367.19505    131766.63   -41911.944    2532.4942   -44444.438    36.871807   0.94783858 
   63900    199.36546    479.32804    131856.16   -41900.338    2480.4853   -44380.823    36.754248   0.94719495 
   64000     203.9287    456.81669    131744.12   -41889.466    2537.2607   -44426.726    36.857875   0.94800051 
   64100    206.39713    356.28194    131905.59   -41812.928    2567.9727   -44380.901    36.820606   0.94683998 
   64200    208.48952    269.98587    131803.09   -41809.366     2594.006   -44403.372    36.684369   0.94757639 
   64300    205.13807    262.64472     131814.7   -41733.717    2552.3076   -44286.025    36.767898   0.94749292 
   64400    206.39335    309.76543     131845.3   -41754.044    2567.9256   -44321.969    36.947135   0.94727298 
   64500    210.06711    365.83036    131909.14   -41739.481    2613.6342   -44353.115    37.042524   0.94681456 
   64600    207.77305    264.63285    131965.37   -41801.937    2585.0918   -44387.029    37.019121   0.94641107 
   64700    205.13734    445.95383    132007.77   -41822.432    2552.2986    -44374.73    36.756946   0.94610709 
   64800    206.87268    424.65484    132074.93   -41829.187    2573.8894   -44403.076    36.963961   0.94562601 
   64900    202.60934    352.22981    131899.54   -41812.185    2520.8454    -44333.03    37.262067   0.94688345 
   65000    205.43088    420.17861    131965.32   -41780.867    2555.9507   -44336.818    37.282346   0.94641149 
   65100    206.51702    363.64678    132073.37   -41805.971    2569.4643   -44375.436    37.336035   0.94563721 
   65200    207.08993    354.24147    131936.94   -41807.179    2576.5924   -44383.772     37.18179   0.94661504 
   65300    206.57379    303.91732    131883.73   -41809.366    2570.1706   -44379.536       37.038   0.94699695 
   65400    206.29918    292.16586     131909.4   -41753.294     2566.754   -44320.048    37.216921   0.94681265 
   65500    204.30474    334.31914     131952.4   -41814.965    2541.9393   -44356.904    37.169104   0.94650409 
   65600    204.10992    330.73347    131967.11   -41845.575    2539.5154   -44385.091    37.193401   0.94639865 
   65700    205.38142    280.84402    132087.35   -41877.558    2555.3353   -44432.894    37.335671   0.94553709 
   65800    201.19093    215.80459    132002.47   -41880.419    2503.1977   -44383.617    37.335483   0.94614513 
   65900    202.19056    286.96508    131829.98   -41850.526     2515.635    -44366.16    37.422468   0.94738309 
   66000     204.4591    337.85062    131939.22   -41751.883    2543.8599   -44295.743    37.423584   0.94659868 
   66100    207.24559     417.9421    132117.78    -41707.88    2578.5292   -44286.409    37.330923   0.94531934 
   66200    206.42862    347.58709    132254.82   -41689.699    2568.3644   -44258.063    37.531373   0.94433979 
   66300    203.80369    450.88281    132094.92   -41731.867    2535.7053   -44267.573    37.673065   0.94548295 
   66400    204.18685    384.28071    132005.54   -41771.274    2540.4726   -44311.747    37.704952   0.94612312 
   66500    205.70964    279.58411    132005.42   -41793.039    2559.4191   -44352.459    37.666336   0.94612395 
   66600    206.86039    392.67406    131904.27   -41810.355    2573.7365   -44384.091    37.680582   0.94684951 
   66700    203.95899     353.3239    132062.99   -41841.404    2537.6376   -44379.042    37.775236   0.94571155 
   66800    202.01976    366.41448     132088.2   -41786.989    2513.5098   -44300.499    37.732129   0.94553103 
[...]
   84600    201.41165    365.91406     132730.6    -42092.35    2505.9439   -44598.294    41.371384   0.94095476 
   84700    202.01937    416.48993    132727.77   -42096.875     2513.505    -44610.38    41.384536   0.94097483 
   84800    202.77664    252.65251    132666.54   -42067.329    2522.9269   -44590.256    41.314989   0.94140915 
   84900    201.37113    282.93865    132688.69   -42043.017    2505.4397   -44548.457     41.27837   0.94125194 
   85000    205.76807    361.60043    132890.86   -41999.991     2560.146   -44560.137    41.300087   0.93982005 
   85100    203.97138    393.07839    132880.21   -42006.961    2537.7917   -44544.753    41.321228   0.93989536 
   85200     202.6645    236.36751    132844.28   -42018.626    2521.5317   -44540.158    41.415185   0.94014959 
   85300    203.77247    351.87118    132936.93   -42052.194    2535.3169   -44587.511    41.419048   0.93949431 
   85400    201.36902    439.32959     133057.2   -42030.398    2505.4134   -44535.811    41.371461   0.93864512 
   85500    204.59974    365.00603    133068.96   -42015.153    2545.6098   -44560.763    41.451946   0.93856216 
   85600    203.81353    256.11452    132998.78   -41990.376    2535.8277   -44526.204    41.362298   0.93905744 
   85700    204.69943    426.81757    132960.69   -42024.898    2546.8501   -44571.748    41.276874   0.93932645 
   85800    205.88943    275.07969    132648.96   -42026.216     2561.656   -44587.872    41.330441   0.94153388 
   85900    208.91841    296.22372    132728.75   -41933.629    2599.3422   -44532.971    41.629078   0.94096791 
   86000    205.39933    236.46941     132674.4   -41988.606    2555.5582   -44544.164    41.323234   0.94135333 
   86100    201.42501     264.0006    132684.73   -41984.596    2506.1101   -44490.707    41.401884   0.94128009 
   86200    204.34223    308.76709    132723.86   -41951.622    2542.4059   -44494.028    41.435441   0.94100257 
   86300    205.67771    443.69923    132747.44   -41982.111    2559.0218   -44541.133    41.550855   0.94083542 
   86400    204.64641    534.86418    132742.04   -41997.147    2546.1904   -44543.338    41.667413   0.94087369 
   86500    204.50551    269.97984    132748.08   -41984.498    2544.4373   -44528.935    41.586663   0.94083085 
   86600    205.12061    365.95582    132581.92   -41926.097    2552.0903   -44478.187    41.403036   0.94201001 
   86700    214.49942    365.21009    132573.96   -41922.204    2668.7806   -44590.985    41.532183   0.94206655 
   86800    205.17498    366.76517    132557.82   -41987.111    2552.7669   -44539.878    41.404814   0.94218124 
   86900    208.60095    414.89691    132551.93   -41949.709    2595.3924   -44545.102    41.401536   0.94222311 
   87000    205.49193    418.72286     132555.6   -41953.828    2556.7103   -44510.538    41.379098   0.94219704 
   87100    207.72343    334.53804    132598.07   -41989.118    2584.4744   -44573.592    41.537352   0.94189522 
   87200    207.25439    331.82966    132477.92   -41985.236    2578.6386   -44563.875    41.513164   0.94274945 
   87300    207.67103    330.40761    132614.57   -41989.945    2583.8224   -44573.767    41.666071   0.94177801 
   87400    206.52788    284.09049    132691.13   -41992.921    2569.5994    -44562.52     41.48955   0.94123468 
   87500    199.34136    292.42835    132572.65   -41999.293    2480.1855   -44479.479    41.514588   0.94207584 
   87600    201.83945    373.25363    132549.14    -42015.23    2511.2665   -44526.496    41.443858   0.94224291 
   87700    201.61245    385.55019    132636.39    -42012.87    2508.4421   -44521.312    41.526314   0.94162311 
   87800    201.97477    305.72504    132752.57   -41992.484    2512.9501   -44505.434    41.761873   0.94079902 
   87900    202.37594    194.14407    132609.88   -41999.475    2517.9415   -44517.417    41.842669   0.94181133 
   88000    205.65792    325.16784    132497.11   -42018.506    2558.7755   -44577.281    41.574339   0.94261296 
   88100    205.81633    385.69769    132561.63   -41947.966    2560.7464   -44508.713    41.680516   0.94215418 
   88200    206.07058    392.80617    132494.12   -41913.735    2563.9098   -44477.644    41.709643   0.94263425 
   88300    208.47556     444.8595    132520.22   -41950.262    2593.8323   -44544.094    41.500656   0.94244854 
   88400    198.30858    374.40788    132515.75   -42058.881    2467.3357   -44526.216    41.799923   0.94248039 
   88500    205.83305    375.94983    132550.47   -41974.423    2560.9544   -44535.377    41.800304   0.94223349 
   88600    204.75094    377.89149     132642.1   -41940.746     2547.491   -44488.237     41.83055   0.94158256 
   88700    207.12933    480.32599     132592.8   -41925.635    2577.0826   -44502.717    41.821363   0.94193267 
   88800    210.19392    321.42511    132678.91   -41874.508     2615.212    -44489.72    41.766967   0.94132137 
   88900    204.89474    353.81456    132614.85   -41920.264    2549.2801   -44469.544    41.764596   0.94177607 
   89000     208.2683    298.25866    132598.05   -41912.614    2591.2537   -44503.868    41.757324   0.94189538 
   89100    204.02593    290.30411    132596.53   -42008.464    2538.4704   -44546.934    41.764913   0.94190615 
   89200    203.52849    327.79646    132714.83   -42044.411    2532.2813   -44576.692    41.983063   0.94106657 
   89300    201.13615    388.53789    132575.59   -42058.094    2502.5161   -44560.611    41.945144   0.94205492 
   89400    199.58748    341.47095    132687.09    -42085.63    2483.2477   -44568.878    41.973722    0.9412633 
   89500    199.49302    317.78282    132675.43   -42116.535    2482.0724   -44598.607    41.972202   0.94134601 
   89600    200.96897    466.19972    132792.26   -42150.383     2500.436   -44650.819    41.964127   0.94051787 
   89700    202.22441    278.26518    132742.01   -42102.165    2516.0561   -44618.221    42.031943   0.94087389 
   89800    206.00432    281.74114    132762.84    -42055.65    2563.0854   -44618.735    41.960111   0.94072624 
   89900    203.79187    142.32439     132695.6   -42103.584    2535.5583   -44639.142    42.196276   0.94120293 
   90000    205.10562    352.64246    132643.43   -42017.495    2551.9039   -44569.399    42.102807   0.94157313 
   90100    202.62258    278.48068    132595.84   -42017.753    2521.0101   -44538.764    42.175776   0.94191109 
   90200    200.53591    288.65881    132637.56   -42044.104     2495.048   -44539.152    42.063142    0.9416148 
   90300     203.8686    377.25451     132684.1   -42049.615     2536.513   -44586.128    42.042387   0.94128453 
   90400    201.92216    409.28048    132771.93   -42037.985    2512.2956   -44550.281     42.18462   0.94066184 
   90500    204.87937    267.36912     132787.2   -42010.426    2549.0889   -44559.515    42.118159   0.94055367 
   90600    208.16932    284.54299    132735.14   -41933.875    2590.0221   -44523.897    42.072114   0.94092257 
   90700    208.77526    282.21406    132734.82   -41940.302    2597.5611   -44537.863    42.051888   0.94092486 
   90800    208.07773    304.86342    132673.37   -41974.634    2588.8826   -44563.517    42.017741   0.94136067 
   90900    201.03984    272.21239    132628.43   -42067.166    2501.3178   -44568.484    42.078564    0.9416796 
   91000    201.55526    325.05427    132753.43   -42075.285    2507.7307   -44583.016    42.241465   0.94079295 
   91100    204.07392    450.89597    132752.13   -42068.137    2539.0676   -44607.205    42.069362   0.94080218 
   91200    201.34948     429.2178    132774.46   -42021.262    2505.1704   -44526.433    42.019317   0.94064391 
   91300    200.04961    296.58014    132790.62   -41929.761    2488.9975   -44418.758    42.208091   0.94052946 
   91400    206.51488    347.70935    132807.92   -41914.061    2569.4377   -44483.498    42.233339   0.94040692 
   91500    206.72007    338.87275     132674.1   -41922.785    2571.9906   -44494.776    42.182454   0.94135548 
   91600    203.16807    346.11701    132764.38   -41960.846     2527.797   -44488.643    42.270985   0.94071536 
   91700    200.52993     294.4738    132745.88   -42033.633    2494.9735   -44528.607    42.291624   0.94084646 
   91800    205.13384    426.79113    132690.68   -41998.369     2552.255   -44550.624     42.22279   0.94123785 
   91900    203.66463    310.75551     132578.2   -41996.625    2533.9751     -44530.6    42.280621   0.94203638 
   92000    202.81771    325.57757    132576.45   -41989.061    2523.4379   -44512.499     42.26275   0.94204883 
   92100     201.8736     527.8746    132587.93   -42024.898    2511.6914   -44536.589    42.258649   0.94196729 
   92200    207.91218    420.94263    132699.48   -41964.642    2586.8227   -44551.465    42.307503   0.94117543 
   92300    204.94937    257.83876    132700.24   -41885.785    2549.9598   -44435.745    42.239502   0.94117004 
   92400    207.00325    317.00636    132693.82   -41892.107     2575.514   -44467.621    42.192943   0.94121555 
   92500    203.14791     381.9002    132746.43   -41929.041    2527.5463   -44456.587    42.437082   0.94084256 
   92600    206.48714     354.8752    132781.56   -41904.225    2569.0926   -44473.317    42.411199   0.94059366 
   92700    210.42533    237.39886    132735.08   -41891.525    2618.0911   -44509.616    42.482349   0.94092298 
   92800    205.69402     494.4666    132805.48   -41929.572    2559.2246   -44488.797    42.489962   0.94042422 
   92900    209.27567    422.25364    132683.33   -41904.367    2603.7872   -44508.155    42.607682      0.94129 
   93000     206.6453    379.68348    132642.36   -41943.204    2571.0604   -44514.265      42.6726   0.94158071 
   93100    206.61349    382.81587    132688.01   -41882.182    2570.6646   -44452.846    42.429071    0.9412568 
   93200    209.76744    350.33985    132841.34   -41907.676    2609.9058   -44517.582    42.344452   0.94017038 
   93300    205.72165    418.68837    133023.62    -41936.67    2559.5684   -44496.238    42.525317   0.93888204 
   93400    204.15422    455.48927    132838.45   -41970.649    2540.0666   -44510.715    42.566896   0.94019079 
   93500    199.70867    234.36599    132800.57   -42022.611    2484.7555   -44507.366    42.492833   0.94045898 
   93600    201.59927    346.32278    132748.95   -42085.489    2508.2782   -44593.767    42.491369   0.94082469 
   93700      202.828    224.31329    132834.73   -42052.085     2523.566   -44575.651    42.563207   0.94021715 
   93800    202.66759    310.02854    132770.34   -42014.521    2521.5701   -44536.091    42.726121    0.9406731 
   93900    202.36914    249.47165    132800.73   -41994.523    2517.8569    -44512.38    42.535807   0.94045789 
   94000    204.27582    315.17462    132600.43   -41998.129    2541.5795   -44539.708    42.496125   0.94187848 
   94100    201.15556    529.74595    132720.26   -41996.802    2502.7576    -44499.56    42.531538   0.94102807 
   94200    204.47404    334.67076    132667.61   -41984.763    2544.0458   -44528.809    42.700157   0.94140153 
   94300    204.70256    425.21564    132628.86    -41937.02     2546.889   -44483.909    42.552067    0.9416766 
   94400    204.63436      296.665    132625.45   -41938.276    2546.0404   -44484.317    42.667047   0.94170081 
   94500    205.25616    320.78363     132530.1    -41878.38    2553.7769   -44432.157    42.549602   0.94237832 
   94600    210.36658    423.76767    132518.16   -41921.118    2617.3603   -44538.479    42.606952   0.94246325 
   94700    203.58379    459.24572    132515.25   -41963.233    2532.9694   -44496.202    42.636316    0.9424839 
   94800    204.37865    456.95666    132563.38   -41961.585     2542.859   -44504.444    42.843421   0.94214173 
   94900    205.03675    275.80101    132585.41   -41936.286     2551.047   -44487.333    42.978756   0.94198515 
   95000    204.63976     365.7034    132573.32   -41920.408    2546.1077   -44466.516    42.872587   0.94207106 
   95100    207.95251     362.4896    132480.32   -41920.208    2587.3245   -44507.533    42.842983    0.9427324 
   95200     203.7721     328.6717    132518.98   -41951.708    2535.3123    -44487.02    42.853754   0.94245742 
   95300    212.47181    300.60898    132468.98   -41862.687    2643.5533    -44506.24    42.854461   0.94281315 
   95400    205.88702    383.53569    132541.82   -41917.518    2561.6259   -44479.144    42.915698   0.94229497 
   95500    204.75576    200.82468    132593.71   -41921.543    2547.5509   -44469.093     42.98873   0.94192624 
   95600     208.4937    415.88769    132559.04   -41911.862     2594.058    -44505.92    42.921564   0.94217254 
   95700     203.8902    267.61041     132477.4   -41972.377    2536.7817   -44509.158    43.174438   0.94275318 
   95800    202.39099    281.54703    132554.88   -42022.368    2518.1287   -44540.497    43.130795   0.94220215 
   95900    204.48849     247.8979    132433.45   -41967.295    2544.2256   -44511.521    43.192757   0.94306604 
   96000    202.05398    386.33754    132476.63    -42034.26    2513.9356   -44548.196    43.198335   0.94275864 
   96100    204.40496    464.43377    132503.28   -41981.424    2543.1863   -44524.611    43.172304   0.94256903 
   96200    203.71153    350.65128    132431.72   -42025.701    2534.5587    -44560.26    43.137112   0.94307835 
   96300    204.23663    461.25195    132443.19   -41982.632     2541.092   -44523.724    43.141144   0.94299673 
   96400    208.29814    369.18511    132518.87   -41965.758    2591.6249   -44557.383    43.213499   0.94245817 
   96500    208.16763    267.03075    132549.14   -42014.025     2590.001   -44604.026    43.240045   0.94224294 
   96600    201.69743    360.75224    132473.94   -42011.113    2509.4995   -44520.612    42.957391   0.94277781 
   96700    202.06579    517.99567    132509.12   -42081.314    2514.0825   -44595.396    43.064383    0.9425275 
   96800    201.35903    342.22431     132564.3    -42125.61    2505.2892   -44630.899    43.108312    0.9421352 
   96900    203.54277    314.33179    132729.25   -42066.682     2532.459   -44599.141    43.087419   0.94096434 
   97000    202.04984    350.80697    132696.06   -42068.498    2513.8842   -44582.382    43.057203   0.94119971 
   97100    199.45889    382.73148    132689.97   -42067.326    2481.6478   -44548.974    42.939721   0.94124289 
   97200    202.75671    413.24171    132739.68   -42072.984    2522.6789   -44595.663    43.074848   0.94089041 
   97300     206.2693    468.00065    132802.63   -42073.007    2566.3823   -44639.389    43.041887    0.9404444 
   97400    204.69181    338.40932    132919.11   -42077.417    2546.7552   -44624.172    43.262298    0.9396203 
   97500    204.13083    415.29765    132809.51   -41984.219    2539.7757   -44523.994    43.240847   0.94039571 
   97600    202.24023     389.2748    132810.72   -42050.064     2516.253   -44566.317     43.21577   0.94038714 
   97700    204.22815    484.85081    132708.22    -41980.96    2540.9864   -44521.946    43.290009   0.94111347 
   97800    206.61796    448.08328    132695.02   -41959.009    2570.7202   -44529.729    43.290676   0.94120708 
   97900     209.1517    229.06546    132646.92   -41936.976    2602.2448    -44539.22    43.127193   0.94154837 
   98000    204.14294    406.72256    132604.05   -41952.613    2539.9263   -44492.539     43.28182   0.94185274 
   98100    206.26732    372.04652    132485.68    -42019.67    2566.3576   -44586.028    43.305198   0.94269426 
   98200    206.13077    476.57689    132582.48   -41994.428    2564.6587   -44559.087    43.506263   0.94200601 
   98300    205.80551    290.02159    132583.93   -42018.282    2560.6118   -44578.894    43.453272   0.94199566 
   98400    203.23679     365.2412    132680.89   -42032.376     2528.652   -44561.028    43.400048   0.94130729 
   98500    204.73295    461.08088    132763.31   -42037.692    2547.2671   -44584.959    43.420967   0.94072294 
   98600    206.67678    302.87533    132658.82   -42065.566    2571.4521   -44637.018    43.518788   0.94146389 
   98700    200.01243    418.94157    132661.34   -42112.398    2488.5349   -44600.933    43.386541   0.94144602 
   98800    203.89049    303.45122    132616.99   -42083.631    2536.7853   -44620.416      43.3856   0.94176084 
   98900    201.12651    299.14481    132550.75   -42089.518    2502.3962   -44591.914    43.400984   0.94223146 
   99000     200.2458    367.77973    132719.91   -42121.852    2491.4385    -44613.29    43.422556   0.94103057 
   99100    204.79405    179.77529    132631.46    -42053.52    2548.0273   -44601.547    43.385426    0.9416581 
   99200    199.97491    392.97803    132578.75   -42037.868    2488.0681   -44525.937    43.338038   0.94203247 
   99300    207.13215    408.54969    132641.76   -41997.716    2577.1178   -44574.834    43.233206   0.94158498 
   99400    209.05017    374.98545    132630.82   -41971.126    2600.9816   -44572.107    43.390669   0.94166269 
   99500    209.21554    400.40171    132711.55   -41863.532     2603.039   -44466.571    43.427955   0.94108983 
   99600    209.32669    426.98691    132780.33   -41886.068     2604.422    -44490.49    43.508153   0.94060234 
   99700    209.51095    312.02929    132709.79   -41904.677    2606.7146   -44511.392    43.480938   0.94110231 
   99800    208.21711    405.64879    132582.08   -41917.692    2590.6167   -44508.308    43.438152    0.9420088 
   99900    204.59351    402.67973    132524.15   -41990.661    2545.5323   -44536.193     43.35771   0.94242061 
  100000    204.74779    364.54793    132701.81   -42007.594    2547.4518   -44555.046    43.304855    0.9411589 
  100100    208.60748      443.038    132709.72   -41931.865    2595.4737   -44527.339    43.544307   0.94110283 
  100200    208.29781    391.19425     132662.9   -41948.407    2591.6208   -44540.028    43.475841   0.94143494 
  100300    208.75851    371.07426    132765.16    -41933.65    2597.3528   -44531.003    43.492342   0.94070986 
  100400    206.93085    348.81828    132757.25    -41983.82    2574.6131   -44558.433    43.493188   0.94076585 
  100500    210.39783    499.97036    132757.56   -41919.871    2617.7489    -44537.62     43.47935   0.94076365 
  100600     203.9754    293.90787    132832.22   -42002.567    2537.8418   -44540.409    43.699886   0.94023495 
  100630    207.25099    270.92927     132729.7   -41985.623    2578.5963   -44564.219    43.602642   0.94096113 
Loop time of 76.2201 on 6 procs for 100000 steps with 4175 atoms

Performance: 566.779 ns/day, 0.042 hours/ns, 1311.989 timesteps/s
98.4% CPU use with 6 MPI tasks x no OpenMP threads

MPI task timing breakdown:
Section |  min time  |  avg time  |  max time  |%varavg| %total
---------------------------------------------------------------
Pair    | 60.466     | 61.808     | 64.35      |  16.2 | 81.09
Neigh   | 4.7203     | 4.7477     | 4.7729     |   0.8 |  6.23
Comm    | 4.5763     | 7.1064     | 8.4832     |  48.0 |  9.32
Output  | 0.15929    | 0.16002    | 0.1634     |   0.4 |  0.21
Modify  | 1.7477     | 1.7693     | 1.7955     |   1.4 |  2.32
Other   |            | 0.6286     |            |       |  0.82

Nlocal:        695.833 ave         705 max         687 min
Histogram: 1 1 0 1 0 1 0 0 1 1
Nghost:        1461.00 ave        1478 max        1440 min
Histogram: 1 0 1 0 0 0 1 2 0 1
Neighs:        0.00000 ave           0 max           0 min
Histogram: 6 0 0 0 0 0 0 0 0 0
FullNghs:      19126.0 ave       19455 max       18925 min
Histogram: 3 0 1 0 0 0 0 0 1 1

Total # of neighbors = 114756
Ave neighs/atom = 27.486467
Neighbor list builds = 5093
Dangerous builds = 0

undump              1
unfix               2
unfix               3
unfix               4


################################################
#######         Run Simulation         #########
################################################

reset_timestep      0
log                 log.run_${NAME}
log                 log.run_liquid_density_MLmW
