
# Create simulation box of size 50 x 50 x 50 Angstrom
#
lattice	            sc 1
Lattice spacing in x,y,z = 1.0000000 1.0000000 1.0000000
region 	            all block 0 50 0 50 0 50 units box
create_box          1 all
Created orthogonal box = (0.0000000 0.0000000 0.0000000) to (50.000000 50.000000 50.000000)
  1 by 2 by 3 MPI processor grid

# fill box with 4175 randomly distributed atoms
#
create_atoms        1 random 4175 63782 all
Created 4175 atoms
  create_atoms CPU = 0.001 seconds
mass                1 18.015

# Define potential
#
pair_style          sw
pair_coeff          * * ML_mW.sw mW
Reading sw potential file ML_mW.sw with DATE: 2019-02-27

# Run minimization
#
minimize            1.0e-8 1.0e-8 10000 1000
WARNING: Using 'neigh_modify every 1 delay 0 check yes' setting during minimization (../min.cpp:187)
Neighbor list info ...
  update every 1 steps, delay 0 steps, check yes
  max neighbors/atom: 2000, page size: 100000
  master list distance cutoff = 6.0032907
  ghost atom cutoff = 6.0032907
  binsize = 3.0016454, bins = 17 17 17
  1 neighbor lists, perpetual/occasional/extra = 1 0 0
  (1) pair sw, perpetual
      attributes: full, newton on
      pair build: full/bin/atomonly
      stencil: full/bin/3d
      bin: standard
Per MPI rank memory allocation (min/avg/max) = 4.255 | 4.258 | 4.261 Mbytes
Step Temp E_pair E_mol TotEng Press 
       0            0    7792709.3            0    7792709.3    5898794.3 
     630            0   -45180.336            0   -45180.336   -154.07449 
Loop time of 1.14412 on 6 procs for 630 steps with 4175 atoms

99.6% CPU use with 6 MPI tasks x no OpenMP threads

Minimization stats:
  Stopping criterion = max force evaluations
  Energy initial, next-to-last, final = 
      7792709.32924461  -45180.0188663597   -45180.336116598
  Force two-norm initial, final = 2.0191930e+08 4.9721331
  Force max component initial, final = 1.0948746e+08 0.73126211
  Final line search alpha, max atom move = 0.053306038 0.038980685
  Iterations, force evaluations = 630 1000

MPI task timing breakdown:
Section |  min time  |  avg time  |  max time  |%varavg| %total
---------------------------------------------------------------
Pair    | 0.88669    | 0.9844     | 1.0644     |   5.7 | 86.04
Neigh   | 0.02407    | 0.024387   | 0.024702   |   0.2 |  2.13
Comm    | 0.035393   | 0.11548    | 0.21376    |  16.7 | 10.09
Output  | 0          | 0          | 0          |   0.0 |  0.00
Modify  | 0          | 0          | 0          |   0.0 |  0.00
Other   |            | 0.01985    |            |       |  1.74

Nlocal:        695.833 ave         704 max         685 min
Histogram: 1 1 0 0 1 0 0 1 0 2
Nghost:        1494.17 ave        1515 max        1468 min
Histogram: 1 1 0 0 0 0 1 1 1 1
Neighs:        0.00000 ave           0 max           0 min
Histogram: 6 0 0 0 0 0 0 0 0 0
FullNghs:      19997.0 ave       20462 max       19320 min
Histogram: 1 1 0 0 0 0 0 2 0 2

Total # of neighbors = 119982
Ave neighs/atom = 28.738204
Neighbor list builds = 26
Dangerous builds = 0

# Add velocity/set timestep
#
velocity            all create ${TEMP} 120598 rot yes dist gaussian
velocity            all create 210 120598 rot yes dist gaussian
timestep            5.0

# Define output
#
compute	            1 all msd
thermo	            100
thermo_style        custom step temp press vol etotal ke pe c_1[4] density

# Neighbor lists
#
neigh_modify        delay 0 every 1 check yes

# Set fixes
#
fix                 1 all momentum 10 linear 1 1 1 rescale
fix                 2 all nve
fix                 3 all temp/csvr ${TEMP} ${TEMP} 500.0 928347
fix                 3 all temp/csvr 210 ${TEMP} 500.0 928347
fix                 3 all temp/csvr 210 210 500.0 928347
fix                 4 all press/berendsen iso ${PRES} ${PRES} 1000.0 modulus 20000
fix                 4 all press/berendsen iso -400 ${PRES} 1000.0 modulus 20000
fix                 4 all press/berendsen iso -400 -400 1000.0 modulus 20000

# Run 0.5 ns equilibration
#
dump                1 all custom 1000 eq.${NAME}.dump id type x y z vx vy vz
dump                1 all custom 1000 eq.liquid_density_MLmW.dump id type x y z vx vy vz
run                 100000
Per MPI rank memory allocation (min/avg/max) = 3.506 | 3.508 | 3.511 Mbytes
Step Temp Press Volume TotEng KinEng PotEng c_1[4] Density 
     630          210    801.42152       125000   -42567.537    2612.7992   -45180.336 2.7295415e-33   0.99914793 
     700    134.13173   -308.96602    125819.47   -41762.352    1668.8538   -43431.206   0.24358165   0.99264039 
     800    163.76556   -601.35744    126057.05   -41032.588    2037.5549   -43070.143   0.55339164    0.9907696 
     900    182.88253   -135.00101    126020.14    -40625.72    2275.4063   -42901.127   0.93483233   0.99105978 
    1000    194.32165   -375.95991    126083.35   -40380.508    2417.7308   -42798.238    1.3513565   0.99056295 
    1100    203.17948   -184.23836     126132.6   -40216.823    2527.9391   -42744.762    1.7269796   0.99017614 
    1200    199.54559   -239.34869    126574.27   -40262.116    2482.7265   -42744.842    2.1232105     0.986721 
    1300    204.64961   -329.67091    126818.43   -40246.758    2546.2302   -42792.988    2.5212811   0.98482127 
    1400    203.56397    -247.3575    126913.05   -40255.206    2532.7228   -42787.929    2.8898862   0.98408708 
    1500     203.2941    -436.8914     126894.4   -40200.584    2529.3651   -42729.949    3.2423725   0.98423173 
    1600    217.90472   -378.63511    126754.55   -40127.161     2711.149    -42838.31    3.6536291   0.98531758 
    1700    208.54368   -351.75592    126891.07   -40176.719    2594.6798   -42771.399    3.9555989   0.98425757 
    1800    211.35193    -256.7215    126918.44   -40283.636    2629.6198   -42913.255     4.242248   0.98404524 
    1900    209.33195   -369.83637    126979.84   -40294.076    2604.4874   -42898.563    4.4384417   0.98356941 
    2000    209.93629   -188.46597    127406.63   -40258.515    2612.0065   -42870.521    4.7586105   0.98027463 
    2100    211.81619   -513.56474    127599.22   -40232.707     2635.396   -42868.103    5.0092159   0.97879513 
    2200    212.56651   -411.99822    127617.64   -40282.879    2644.7316    -42927.61    5.2991626   0.97865383 
    2300    212.47844   -262.50873     127645.3   -40287.349    2643.6358   -42930.985    5.5433613   0.97844172 
    2400    212.47186   -299.92766    127920.66   -40325.765    2643.5539   -42969.319    5.7436411   0.97633555 
    2500    214.04726   -495.76452    127990.21   -40309.918    2663.1549   -42973.072    6.0570247   0.97580506 
    2600    215.38965   -568.20485    127928.66   -40294.922    2679.8567   -42974.779    6.1922332   0.97627455 
    2700    212.88691   -373.10914     127890.5   -40335.843    2648.7179   -42984.561    6.3966533    0.9765658 
    2800    216.56316   -489.58445    127894.73   -40324.372    2694.4574   -43018.829    6.6083131   0.97653351 
    2900    213.35352   -156.19265    128015.12   -40396.975    2654.5234   -43051.498    6.9567821   0.97561513 
    3000    210.25009     -432.876    128175.19   -40451.347    2615.9108   -43067.258    7.2529913   0.97439674 
    3100    212.17267   -478.91549    128340.27   -40446.777    2639.8314   -43086.608    7.4313802   0.97314341 
    3200    209.91567    -440.5787     128429.9   -40508.035    2611.7501   -43119.785    7.4885342   0.97246427 
    3300    208.77746   -347.60957    128753.33   -40504.087    2597.5885   -43101.675    7.5990849   0.97002141 
    3400    210.69934    -377.9251    129011.67   -40543.349    2621.5003   -43164.849    7.8289795   0.96807903 
    3500    210.79813   -518.31114    129128.42   -40588.317    2622.7295   -43211.047    7.9893405   0.96720376 
    3600    205.84751   -379.89315    129086.24   -40641.427    2561.1344   -43202.562    8.1200654   0.96751977 
    3700    206.86999   -378.33963       129326   -40705.416     2573.856   -43279.272    8.4151219    0.9657261 
    3800    210.76843   -366.41407    129333.23   -40667.474    2622.3599   -43289.834    8.5593407   0.96567207 
    3900    208.43991   -370.63112     129512.9   -40710.709    2593.3887   -43304.098    8.6279951   0.96433245 
    4000    210.23474   -290.98432    129645.19   -40719.743    2615.7199   -43335.463    8.8322606   0.96334841 
    4100    210.92736   -369.44013    129872.03   -40717.838    2624.3374   -43342.175    8.8933948    0.9616658 
    4200    213.24974   -279.30801    130021.52   -40756.099    2653.2322   -43409.331    9.1366373   0.96056017 
    4300    208.03021   -422.69787     129828.9   -40766.913    2588.2913   -43355.204    9.3074529   0.96198525 
    4400    211.77548   -345.55504    130068.69   -40761.751    2634.8896   -43396.641    9.3689831   0.96021181 
    4500    210.46268   -432.28633    130274.72   -40774.008    2618.5559   -43392.564    9.5204132   0.95869323 
    4600    208.47767   -318.50843    130217.29    -40831.11    2593.8585   -43424.968    9.6860571   0.95911603 
    4700    211.51125   -379.21239    130180.72   -40772.703    2631.6021   -43404.305    9.8898003   0.95938547 
    4800    209.61511   -347.12504    130353.26   -40835.811    2608.0105   -43443.822    10.063749   0.95811558 
    4900     216.1999   -511.07946    130537.39    -40736.42    2689.9378   -43426.358    10.196422   0.95676416 
    5000    214.03623   -461.03968    130487.73   -40707.841    2663.0176   -43370.859    10.283149   0.95712827 
    5100    213.10912    -317.1403    130598.13    -40769.77    2651.4826   -43421.252    10.390356   0.95631911 
    5200     208.6604   -487.31358    130591.31   -40818.295    2596.1321   -43414.427    10.392199   0.95636904 
    5300    208.66809   -423.83388    130717.71   -40792.752    2596.2278    -43388.98    10.572918   0.95544432 
    5400    205.51966   -404.20969    130688.65   -40836.199    2557.0553   -43393.254    10.704556   0.95565674 
    5500     204.3335   -419.02478     130655.9   -40846.822    2542.2972   -43389.119    10.843884   0.95589631 
    5600    211.44748   -340.73482     130596.8   -40871.699    2630.8086   -43502.508    10.994903    0.9563289 
    5700    209.44061   -242.09746    130800.24   -40882.541    2605.8393   -43488.381    11.143633   0.95484143 
    5800    210.84735   -372.14709    130813.47    -40920.03    2623.3419   -43543.372    11.116194   0.95474487 
    5900      209.757   -461.18369    130904.25    -40965.49    2609.7759   -43575.266    11.214464    0.9540828 
    6000    210.78965   -243.23608    131027.53    -40980.62     2622.624   -43603.244    11.106502   0.95318512 
    6100    210.70586   -321.93559    130972.39   -40928.365    2621.5815   -43549.947    11.117462   0.95358642 
    6200    206.56985   -371.50982    130955.37   -40994.421    2570.1216   -43564.542    11.239349   0.95371031 
    6300    211.21236   -278.52985    131065.79   -40978.776    2627.8833   -43606.659    11.344643   0.95290688 
    6400    214.19549   -301.81805    131075.63   -40966.837    2664.9991   -43631.836    11.538078   0.95283531 
    6500    211.14601   -461.48342    131293.62    -40920.23    2627.0578   -43547.288     11.69691   0.95125333 
    6600     206.8644   -428.95756    131242.73   -40999.932    2573.7864   -43573.719    11.635669   0.95162217 
    6700    204.14203   -575.63617    131072.49   -41058.472     2539.915   -43598.387    11.616457   0.95285815 
    6800    208.90559   -336.64948    131055.96   -40992.884    2599.1827   -43592.067    11.627865   0.95297834 
    6900    214.97012   -399.06674    131186.97   -40940.731    2674.6369   -43615.368    11.544325   0.95202664 
    7000    210.27886   -486.57387    131337.07   -40930.892    2616.2687   -43547.161    11.909867   0.95093862 
    7100     213.7075   -279.03915     131312.5    -40961.71    2658.9276   -43620.638    11.928574   0.95111654 
    7200    209.81189   -425.89558    131446.79   -41012.682    2610.4588   -43623.141    12.122859   0.95014482 
    7300    208.38924   -488.93949    131407.61   -41070.157    2592.7584   -43662.915    12.217056   0.95042816 
    7400    201.39925   -542.61927    131277.28    -41091.83    2505.7896   -43597.619    12.518538   0.95137172 
    7500    208.81728   -336.05498    131242.34   -41052.489    2598.0839   -43650.573    12.479697     0.951625 
    7600    206.15714   -308.99256    131463.58   -41134.913    2564.9867     -43699.9    12.441077   0.95002347 
    7700    213.28718   -298.66538    131458.87   -41055.859     2653.698   -43709.557    12.475317   0.95005756 
    7800    210.92121   -376.35319    131368.88   -41041.133    2624.2608   -43665.394    12.545818   0.95070835 
    7900    208.53831    -524.0998    131393.58   -41121.658    2594.6131   -43716.271    12.630741   0.95052966 
    8000    211.64684   -349.98569     131494.2   -41102.561    2633.2891    -43735.85    12.920171   0.94980228 
    8100    209.20786   -332.10556    131482.02   -41185.341    2602.9435   -43788.285      13.0044    0.9498903 
    8200    205.41863   -534.36244    131610.38   -41199.757    2555.7983   -43755.556    13.221444   0.94896386 
    8300    208.84737   -329.78483    131622.75    -41174.01    2598.4583   -43772.468     13.28217   0.94887467 
    8400    208.53404   -552.35219    131597.58   -41117.918    2594.5599   -43712.478    13.329345   0.94905616 
    8500    212.63029   -248.41629    131827.28   -41038.492    2645.5251   -43684.017    13.452192   0.94740245 
    8600    211.09001   -344.13491    132077.06   -41062.103    2626.3611   -43688.464     13.55927    0.9456108 
    8700    212.37817   -396.73738    132118.23   -41049.532    2642.3882   -43691.921    13.530686    0.9453161 
    8800    208.65614   -500.46445    131783.14   -41093.051     2596.079    -43689.13    13.520926   0.94771979 
    8900    210.10722    -397.3488    131746.88   -41187.484    2614.1332   -43801.617    13.474422   0.94798064 
    9000     211.4369    -410.4569    131879.98   -41142.126     2630.677   -43772.803    13.576957   0.94702386 
    9100     202.9345   -327.29407    131785.93   -41208.171    2524.8909   -43733.062    13.646082   0.94769974 
    9200    208.94673   -411.19993    131793.74   -41109.222    2599.6945   -43708.917     13.87036   0.94764358 
    9300    211.57404   -312.82148    132148.44   -41155.247    2632.3832    -43787.63    13.965301   0.94509999 
    9400     206.9919   -464.76509    132071.52   -41116.145    2575.3728   -43691.518     14.00108   0.94565047 
    9500    208.33663   -575.78194    131996.06   -41123.946    2592.1037    -43716.05     13.90386   0.94619106 
    9600    212.39147    -463.7574     132008.7   -41091.362    2642.5537   -43733.916    13.981613   0.94610043 
    9700    210.80634     -340.721    132002.06   -41029.242    2622.8316   -43652.074    14.001254   0.94614804 
    9800    214.52461   -448.36417    132189.43    -41120.56    2669.0939   -43789.654    14.102344   0.94480694 
    9900    206.57832   -312.29783    132193.55   -41207.706    2570.2271   -43777.933    14.334483   0.94477751 
   10000    209.05841   -357.97804     132118.4   -41212.765     2601.084   -43813.849    14.158873   0.94531492 
   10100    209.72181   -364.62665     132431.8   -41195.291     2609.338   -43804.629    14.181865    0.9430778 
   10200    206.66864   -325.93731    132460.89   -41247.619    2571.3507   -43818.969    14.263169   0.94287069 
   10300    206.22933    -394.0252    132437.17   -41235.805     2565.885    -43801.69    14.184402   0.94303959 
   10400    208.06979   -399.63122    132217.89   -41179.744    2588.7837   -43768.528    14.330365   0.94460361 
   10500    210.85759   -242.21114    132394.22   -41167.914    2623.4693   -43791.383    14.367067   0.94334546 
   10600    211.80394   -323.72613    132323.85   -41110.163    2635.2437   -43745.407    14.551354   0.94384715 
   10700    211.45694    -337.9168     132404.5   -41117.159    2630.9264   -43748.085    14.583463   0.94327224 
   10800    215.60718   -349.46582    132604.05   -41115.114    2682.5632   -43797.677    14.643817   0.94185277 
   10900     214.3833   -422.96144       132594    -41148.62    2667.3358   -43815.955    14.698761   0.94192412 
   11000    214.48405   -395.36198    132622.91   -41148.439    2668.5894   -43817.028    14.820767    0.9417188 
   11100    210.91259   -349.65624    132563.01   -41207.003    2624.1536   -43831.157    14.626318   0.94214434 
   11200     211.6846   -499.56365    132612.08   -41206.515    2633.7589   -43840.274     14.61482   0.94179572 
   11300     210.8633   -321.67838    132603.73   -41206.738    2623.5403   -43830.278    14.850725   0.94185501 
   11400    208.98522   -479.51148    132514.97   -41228.647    2600.1734   -43828.821    15.004503   0.94248588 
   11500    208.01638   -429.06709    132499.93   -41255.344    2588.1193   -43843.463    15.036871   0.94259292 
   11600    206.71388   -405.19352    132576.35   -41265.357    2571.9137    -43837.27    14.973242   0.94204956 
   11700    217.46934   -425.21067    132652.43   -41158.689     2705.732   -43864.421    15.007204   0.94150927 
   11800    211.61839   -391.15152    132728.25   -41230.804    2632.9351   -43863.739    15.060675    0.9409714 
   11900     210.3264   -410.73802    132727.44   -41252.837    2616.8603   -43869.697    15.054882   0.94097714 
   12000    206.12324   -451.57874    132845.27   -41260.279     2564.565   -43824.844    15.101916   0.94014252 
   12100    211.87557   -443.04183    132808.12   -41231.817    2636.1349   -43867.952    15.283664   0.94040556 
   12200     209.5356    -318.7642    132775.13   -41225.082    2607.0212   -43832.104    15.397422   0.94063923 
   12300    210.82987   -420.40484    132805.13   -41231.261    2623.1244   -43854.385    15.506114    0.9404267 
   12400    212.33921    -412.2005    132844.35    -41208.81    2641.9035   -43850.714    15.640642   0.94014908 
   12500    209.07061    -401.3984    132992.68   -41304.073    2601.2358   -43905.309    15.544634   0.93910052 
   12600    207.84908   -498.84889     132814.5   -41226.157    2586.0376   -43812.195    15.572337   0.94036035 
   12700    209.86649   -463.83216    132915.99   -41203.284    2611.1381   -43814.423      15.7537   0.93964234 
   12800    211.08935   -451.31833    132796.67   -41169.638    2626.3528    -43795.99    15.724358   0.94048662 
   12900    210.53705   -365.54736    132943.44   -41223.223    2619.4812   -43842.705    15.843858   0.93944833 
   13000    213.38444   -344.06181    132929.54   -41171.547    2654.9081   -43826.456    15.871057   0.93954655 
   13100    211.98885    -540.0959    132941.58   -41183.771    2637.5443   -43821.315    15.840045   0.93946143 
   13200    213.75569   -454.02927    132821.01   -41122.995    2659.5271   -43782.522    15.869027   0.94031424 
   13300    210.28953   -385.50012    132854.07   -41164.571    2616.4016   -43780.972    15.925786    0.9400803 
   13400    211.09027   -390.27718    132885.02   -41235.796    2626.3642    -43862.16     16.13715    0.9398613 
   13500    210.14065   -347.58509    132985.82   -41270.181    2614.5492    -43884.73     16.19572   0.93914894 
   13600     208.4552    -408.6048    132949.91   -41300.674     2593.579   -43894.253     16.22962   0.93940262 
   13700    209.31137   -400.37171    133051.56   -41318.864    2604.2314   -43923.096    16.145022   0.93868488 
   13800    214.28463   -389.16308    133052.44   -41238.279    2666.1082   -43904.387    16.041953   0.93867871 
   13900    208.27957    -416.5775    132956.74   -41282.951    2591.3938   -43874.344    16.083902   0.93935432 
   14000    210.62472   -350.61191     133126.3   -41268.783     2620.572   -43889.355    16.128624   0.93815789 
   14100    210.95729   -474.79295    133070.95   -41280.727    2624.7098   -43905.437    16.077229   0.93854812 
   14200    210.77867   -509.78614     132875.1   -41318.313    2622.4874     -43940.8    16.273783   0.93993148 
   14300      212.149   -522.68276    133064.99   -41376.088    2639.5369   -44015.625     16.26451   0.93859018 
   14400    214.01577    -343.7107    133091.37   -41349.447     2662.763    -44012.21    16.340285   0.93840414 
   14500    206.39296   -285.16287    133157.19   -41286.068    2567.9208   -43853.989    16.267568   0.93794024 
   14600    208.71808   -294.83694    133070.08   -41289.223    2596.8497   -43886.072    16.423062   0.93855427 
   14700    210.11044   -310.15507    133441.81   -41338.557    2614.1734   -43952.731    16.473811   0.93593969 
   14800    208.83523   -357.64576    133367.61   -41384.526    2598.3073   -43982.834    16.647838   0.93646046 
   14900    202.21902   -486.55124     133275.1   -41462.153    2515.9891   -43978.142    16.642006   0.93711047 
   15000    205.77308   -400.15035    133357.43   -41457.821    2560.2083   -44018.029    16.581723   0.93653193 
   15100    205.43767   -300.47865    133528.34   -41490.907    2556.0352   -44046.943    16.708561   0.93533321 
   15200     207.4218   -532.13207    133332.76   -41425.868    2580.7215    -44006.59    16.780465   0.93670524 
   15300    207.29806   -407.87982    133319.44   -41426.616     2579.182   -44005.799    16.828704    0.9367988 
   15400    204.21608   -335.98563    133428.67   -41403.038    2540.8362   -43943.875     16.87941   0.93603188 
   15500    211.87929   -420.02516    133411.55   -41390.207    2636.1812   -44026.388    16.895628   0.93615198 
   15600     209.2899   -483.38059    133453.54   -41332.604    2603.9642   -43936.569    16.890481   0.93585744 
   15700    208.39914   -270.64993    133480.57   -41419.656    2592.8815   -44012.537    17.030273   0.93566792 
   15800    208.01092   -415.54197    133475.97   -41424.625    2588.0513   -44012.676    17.133728   0.93570019 
   15900    208.46146    -458.0351    133367.02   -41461.393    2593.6568    -44055.05    17.104941   0.93646458 
   16000    210.70755   -342.79171    133487.51   -41392.044    2621.6025   -44013.647    17.060528   0.93561929 
   16100    209.60795   -384.31682    133653.16   -41348.433    2607.9214   -43956.354    17.121453   0.93445972 
   16200     207.5346   -576.58657    133656.15   -41409.513     2582.125   -43991.638    17.351827   0.93443876 
   16300    208.33938   -421.63244    133680.44   -41424.354     2592.138   -44016.492    17.411745   0.93426897 
   16400    212.25578   -449.42371    133683.58   -41341.848    2640.8655   -43982.713    17.358909   0.93424704 
   16500    215.76576   -244.57457    133666.82   -41345.405    2684.5363   -44029.941    17.388653   0.93436417 
   16600    213.78687   -506.21874    133723.23   -41335.891    2659.9151   -43995.806    17.267535   0.93397002 
   16700    206.62655   -434.10368    133699.55   -41360.542    2570.8271   -43931.369    17.381495   0.93413543 
   16800    214.41387     -292.046    133723.04   -41358.416    2667.7161   -44026.132    17.566688    0.9339714 
   16900    212.41249   -372.68988     133644.7   -41326.635    2642.8153   -43969.451    17.537821   0.93451888 
   17000    211.39897   -429.53934    133665.46   -41343.939     2630.205   -43974.144    17.674742   0.93437372 
   17100    214.48564   -520.85864    133647.52   -41270.571    2668.6091    -43939.18    17.701451   0.93449913 
   17200    211.20451   -550.08822     133616.2   -41287.117    2627.7856   -43914.902    17.593338   0.93471819 
   17300    209.86436   -439.49297    133502.31   -41334.001    2611.1116   -43945.113    17.569978   0.93551558 
   17400    208.34098   -436.64046     133445.8   -41348.282    2592.1578    -43940.44    17.568485   0.93591177 
   17500    207.33713   -595.85805    133493.78    -41333.59     2579.668   -43913.258    17.520098   0.93557533 
   17600    208.19462   -315.26813    133504.17   -41307.161    2590.3368   -43897.498    17.631313   0.93550258 
   17700    209.87875   -393.29027    133406.65   -41333.428    2611.2907   -43944.718    17.671526   0.93618639 
   17800    206.68456   -504.31169    133296.32   -41327.208    2571.5489   -43898.757    17.774698   0.93696131 
   17900    210.92502   -378.42143     133550.6   -41285.205    2624.3082   -43909.513    17.823697   0.93517729 
   18000    214.51947   -352.74912    133541.04   -41243.529      2669.03   -43912.559    17.780447   0.93524423 
   18100    206.92256   -334.48579    133583.61   -41334.054      2574.51   -43908.564    17.858197   0.93494622 
   18200    213.82158   -390.29622    133620.33   -41343.478    2660.3469   -44003.824    17.779823   0.93468932 
   18300    211.82026   -385.03684    133590.83   -41261.845    2635.4467   -43897.291    17.780916   0.93489566 
   18400    209.47687   -455.29048    133519.16   -41330.547    2606.2905   -43936.838    17.876151   0.93539755 
   18500    213.14264   -469.05646    133438.09   -41299.538    2651.8997   -43951.438    17.961856   0.93596579 
   18600    209.81565   -392.57002    133472.48   -41354.673    2610.5055   -43965.179    18.020338   0.93572463 
   18700     212.0522   -435.41738       133522   -41319.683    2638.3325   -43958.016    17.968896   0.93537764 
   18800    210.92293   -466.45983     133452.5   -41305.093    2624.2823   -43929.375    17.995768   0.93586475 
   18900     208.7235   -365.78655    133507.14   -41328.199    2596.9171   -43925.116    18.097157   0.93548174 
   19000    210.60667   -256.72268    133495.92   -41293.589    2620.3474   -43913.936    17.903369   0.93556034 
   19100    210.59955   -514.93578    133457.97   -41353.164    2620.2588   -43973.423    18.072111   0.93582639 
   19200    211.51872   -333.89077    133493.99     -41330.1     2631.695   -43961.795    18.080071   0.93557388 
   19300    215.57912   -399.67894    133561.22   -41283.859    2682.2141   -43966.073    18.117739   0.93510293 
   19400    215.87321   -459.90812    133602.22   -41296.473    2685.8732   -43982.347    18.037488   0.93481598 
   19500    212.37838   -485.48542    133531.21   -41287.709    2642.3908     -43930.1    18.385972   0.93531309 
   19600    210.49149   -302.18741    133373.42   -41317.524    2618.9143   -43936.438    18.474995   0.93641966 
   19700    212.99068   -399.32058    133306.72   -41306.052     2650.009   -43956.061    18.422974   0.93688817 
   19800    210.64839   -348.96203    133243.61   -41335.601    2620.8665   -43956.468    18.371049   0.93733193 
   19900    212.89707   -375.19881    133216.05   -41349.308    2648.8443   -43998.153    18.475896   0.93752585 
   20000    210.47594   -244.63374    133645.04   -41391.313    2618.7208   -44010.034    18.433578    0.9345165 
   20100    209.76736   -357.29292    133701.12   -41362.545    2609.9047    -43972.45    18.571403   0.93412448 
   20200    210.26613   -372.03724     133756.4   -41418.891    2616.1105   -44035.001    18.629333   0.93373845 
   20300    206.65996   -554.41798    133592.63   -41455.799    2571.2428   -44027.042    18.712036   0.93488309 
   20400    209.14517   -463.54878    133687.52   -41458.074    2602.1635   -44060.237    18.729036   0.93421953 
   20500     210.9553   -370.60125    133689.62   -41427.288     2624.685   -44051.973    18.788826   0.93420482 
   20600    204.77049    -450.4501    133624.47   -41459.361    2547.7342   -44007.095    18.615806   0.93466036 
   20700    212.38332   -315.26524    133662.83   -41402.444    2642.4523   -44044.896    18.453369   0.93439208 
   20800    207.64938   -443.04486    133730.71   -41402.193     2583.553   -43985.746    18.540279    0.9339178 
   20900    209.12745   -360.43182    133823.25   -41441.644    2601.9431   -44043.587    18.623244   0.93327196 
   21000    204.01827   -461.89456    133662.56   -41525.387    2538.3751   -44063.762     18.74929   0.93439399 
   21100    207.89843   -519.85211    133744.35   -41549.494    2586.6517   -44136.145    18.973774   0.93382258 
   21200    207.36068   -148.60489     133696.7   -41531.212    2579.9611   -44111.173    18.970555   0.93415534 
   21300    207.19005   -394.99523    133878.63   -41537.523    2577.8382   -44115.362     18.93764   0.93288591 
   21400    208.61853   -587.62962    133817.17   -41513.405    2595.6111   -44109.016    18.958005    0.9333144 
   21500      207.834   -602.36705    133595.36   -41499.112    2585.8501   -44084.962     18.90794   0.93486399 
   21600    210.26475   -435.78784     133736.7   -41442.138    2616.0933   -44058.231    18.962206   0.93387598 
   21700    211.23335    -245.5045    133824.83   -41420.691    2628.1445   -44048.835    19.013921   0.93326095 
   21800    211.73389   -444.83421    133802.32   -41412.864    2634.3721   -44047.236    19.172877   0.93341801 
   21900    216.69613   -319.80998    133773.68   -41429.062    2696.1118   -44125.174    19.048727   0.93361785 
   22000    208.52401    -323.3816    133963.27   -41466.187    2594.4352   -44060.622    19.116893    0.9322965 
   22100    214.31148    -480.2246     133873.5   -41412.941    2666.4422   -44079.383    19.153864   0.93292169 
   22200    213.13375   -441.92557    133740.31   -41450.186     2651.789   -44101.975    19.209111   0.93385074 
   22300    214.82496   -527.10744    133657.91    -41435.49    2672.8309   -44108.321    19.123979   0.93442652 
   22400     210.0295   -422.87253    133559.57   -41401.254    2613.1662    -44014.42    19.215473   0.93511449 
   22500    213.70485    -360.3011    133609.29    -41409.91    2658.8946   -44068.805    19.279469    0.9347665 
   22600    211.59618   -556.32599    133644.65   -41382.237    2632.6587   -44014.896    19.369103   0.93451917 
   22700    210.04713   -447.28308    133545.14   -41383.939    2613.3857   -43997.324    19.265196   0.93521557 
   22800    210.94863   -390.65034    133494.52   -41355.993     2624.602   -43980.595    19.192696   0.93557015 
   22900    211.40474   -323.62362    133696.01   -41385.052    2630.2768   -44015.329    19.230869   0.93416018 
   23000    210.69953   -440.45411    133609.96   -41366.149    2621.5027   -43987.651    19.446163   0.93476183 
   23100     206.6487   -466.23771    133573.31   -41462.835    2571.1027   -44033.938    19.400552    0.9350183 
   23200    213.01131   -450.43823    133456.03    -41418.27    2650.2657   -44068.535    19.433216   0.93584003 
   23300    209.56225   -376.86271    133444.65   -41461.503    2607.3528   -44068.856    19.490366   0.93591978 
   23400    208.72339   -328.69445     133462.3   -41400.841    2596.9158   -43997.757    19.428859   0.93579603 
   23500    213.38131   -362.26184       133470   -41446.167    2654.8692   -44101.036    19.508718   0.93574205 
   23600    207.88205   -311.30813    133399.14   -41436.638     2586.448   -44023.086    19.596443   0.93623911 
   23700    211.53418   -212.68958    133590.78   -41474.648    2631.8874   -44106.535    19.489711   0.93489604 
   23800    207.47218   -341.18319    133676.25   -41534.145    2581.3483   -44115.493    19.452694    0.9342983 
   23900    208.35989   -505.52691    133702.52   -41551.909    2592.3931   -44144.302    19.593871   0.93411474 
   24000    210.44069   -428.56545    133629.15   -41485.091    2618.2823   -44103.373    19.565608   0.93462757 
   24100    208.66768   -279.87391    133584.91   -41484.915    2596.2227   -44081.137    19.579952    0.9349371 
   24200     205.3515   -461.71607    133599.92   -41546.684     2554.963   -44101.647    19.753905   0.93483207 
   24300     210.0777   -373.74906    133762.15   -41506.115     2613.766   -44119.881    19.758963    0.9336983 
   24400    207.44016   -421.49559    133623.25   -41540.715      2580.95   -44121.665    19.665879   0.93466884 
   24500    209.74415    -545.5145     133691.3   -41489.625    2609.6159   -44099.241    19.666408   0.93419312 
   24600    208.22114   -395.35821    133555.45   -41468.243    2590.6668    -44058.91    19.854942   0.93514333 
   24700    211.67086   -396.61274    133670.96   -41489.893     2633.588    -44123.48    19.884042   0.93433529 
   24800    206.69535   -373.35479     133717.7   -41493.396    2571.6832   -44065.079     19.93303   0.93400866 
   24900    209.82647   -496.13989    133624.53   -41446.344    2610.6402   -44056.985    20.027492   0.93465989 
   25000     210.6605   -494.30721    133439.64   -41424.957    2621.0171   -44045.974    20.009462   0.93595496 
   25100    215.31887   -234.13571    133476.35   -41423.678    2678.9761   -44102.654    20.007593   0.93569756 
   25200    205.18475   -435.00429    133697.72   -41461.062    2552.8884    -44013.95    20.095863   0.93414823 
   25300    211.19595   -529.16109    133621.77    -41467.65    2627.6791   -44095.329    20.083158   0.93467921 
   25400    209.72951   -534.02636    133530.28    -41460.36    2609.4338   -44069.794    20.024145    0.9353196 
   25500    208.56514   -371.36564    133544.36   -41412.883    2594.9468    -44007.83    19.950799   0.93522103 
   25600     210.8543   -546.22798    133635.74   -41491.855    2623.4284   -44115.283    20.130162   0.93458149 
   25700    207.35652   -372.18801    133637.39   -41511.636    2579.9094   -44091.545    20.150421      0.93457 
   25800    207.39751   -395.52454    133753.47    -41483.42    2580.4194   -44063.839    20.160204   0.93375888 
   25900    210.11228   -389.08021    133668.35   -41436.644    2614.1963    -44050.84    20.175598   0.93435352 
   26000    216.25866   -331.92927     133601.4   -41376.186    2690.6689   -44066.855    20.117772   0.93482173 
   26100    212.66916   -527.78491    133661.27   -41460.222    2646.0087   -44106.231     20.29749   0.93440298 
   26200     212.3111   -401.79049    133689.91   -41453.586    2641.5538    -44095.14    20.246035   0.93420279 
   26300     211.8461   -325.47685    133469.25   -41442.352    2635.7682    -44078.12     20.24002   0.93574727 
   26400     214.7866   -354.13526    133673.54   -41426.787    2672.3537   -44099.141    20.233503   0.93431725 
   26500    215.57022    -390.2996    133773.71   -41482.777    2682.1034   -44164.881    20.279466   0.93361764 
   26600    208.21577   -330.74421    133801.26   -41522.259       2590.6   -44112.859    20.205442   0.93342534 
   26700    208.02938   -449.54317    133798.64   -41547.291     2588.281   -44135.572    20.320994   0.93344367 
   26800    210.29563   -352.13427    133677.99   -41483.674    2616.4774   -44100.151    20.436402   0.93428611 
   26900    208.83218   -402.21462     133773.7   -41488.733    2598.2693   -44087.002    20.294022   0.93361767 
   27000    209.97927   -393.03363    133759.52   -41538.483    2612.5413   -44151.024    20.319228   0.93371664 
   27100    208.76003   -368.13077    133760.44   -41534.393    2597.3717   -44131.765    20.443408   0.93371025 
   27200    204.25858   -349.00767       133685   -41545.327    2541.3651   -44086.692    20.409397   0.93423717 
   27300    211.35124   -311.04636    133759.48   -41570.679    2629.6112    -44200.29    20.491863   0.93371693 
   27400    210.68142   -360.01193    133669.76   -41506.621    2621.2774   -44127.898    20.483817   0.93434362 
   27500    208.73086   -370.60783    133620.83   -41441.781    2597.0087    -44038.79    20.613874   0.93468577 
   27600     206.6501   -430.02292    133574.96   -41456.176    2571.1201   -44027.296    20.466118   0.93500675 
   27700    205.39175    -556.4212    133771.25   -41455.805    2555.4638   -44011.269    20.527936   0.93363476 
   27800    213.53609   -287.47115    133877.93   -41391.731    2656.7949   -44048.526    20.531478   0.93289078 
   27900    212.83712   -291.87386    133929.31   -41415.169    2648.0984   -44063.267    20.590653   0.93253294 
   28000    211.81463   -346.56042    133854.14   -41456.013    2635.3766    -44091.39    20.727294   0.93305665 
   28100    213.74864   -464.09188    133941.97   -41442.188    2659.4394   -44101.628    20.804846   0.93244476 
   28200    207.24637   -374.06727    133974.96   -41497.902    2578.5389   -44076.441     20.75043   0.93221521 
   28300    210.16128   -315.04349    133896.55    -41491.97    2614.8059   -44106.776    20.848629   0.93276108 
   28400     204.3961   -519.03748    133785.77   -41537.697    2543.0761   -44080.773    20.813031   0.93353342 
   28500    208.42527   -378.06313    133885.68   -41549.975    2593.2066   -44143.182    20.705864   0.93283685 
   28600    210.17506   -326.08019    133902.04   -41509.562    2614.9773   -44124.539    20.829121   0.93272286 
   28700    208.06467   -399.56925    134004.78   -41524.779      2588.72   -44113.499    20.925715   0.93200776 
   28800    212.10404   -484.30288    133845.19   -41495.384    2638.9775   -44134.362    21.006553   0.93311898 
   28900    210.03309   -372.54025    133922.37   -41457.889    2613.2109     -44071.1    20.894918   0.93258127 
   29000    209.60927   -379.04954    133876.37   -41544.334    2607.9378   -44152.272    20.809696   0.93290171 
   29100     208.3347    -282.2389    133770.49   -41495.092    2592.0798   -44087.172    20.747213   0.93364009 
   29200     210.9051   -463.09287    133813.64   -41468.751    2624.0604   -44092.811      20.8064   0.93333899 
   29300    208.96134    -460.4244    133688.63   -41528.354    2599.8763    -44128.23    20.857103   0.93421175 
   29400    211.05696   -258.17917    133871.95   -41565.265    2625.9499   -44191.215    21.059174   0.93293251 
   29500    207.74891   -398.55972    133906.35   -41586.626    2584.7915   -44171.417    20.952428   0.93269281 
   29600    209.95595    -402.9297    133880.06   -41501.514    2612.2511   -44113.765    21.045757   0.93287596 
   29700    205.26473   -382.39972    133883.95   -41544.357    2553.8835   -44098.241    21.055083   0.93284888 
   29800    206.47041   -443.59207    133828.75   -41516.279    2568.8844   -44085.163    21.088607   0.93323366 
   29900    211.23427   -403.42568    133862.87   -41550.418    2628.1559   -44178.574    21.052684   0.93299573 
   30000    209.88712   -409.93224    133935.29   -41516.477    2611.3948   -44127.872    21.073004   0.93249131 
   30100    210.28608    -428.9577    134068.87    -41522.72    2616.3586   -44139.078     21.15905    0.9315622 
   30200    208.49272   -373.98381     133987.4   -41540.387    2594.0458   -44134.433    21.211027   0.93212861 
   30300    209.76238   -426.89879    134173.54   -41504.695    2609.8428   -44114.538    21.266559    0.9308355 
   30400    207.75084   -616.23984    134118.41    -41481.55    2584.8154   -44066.365     21.31274   0.93121811 
   30500    210.36332   -282.18835    134078.54   -41490.551    2617.3196    -44107.87    21.416509   0.93149502 
   30600    213.51968    -287.8659    134073.08   -41470.051    2656.5907   -44126.641    21.266689   0.93153296 
   30700    212.14033   -394.43135     134234.5   -41482.522    2639.4291   -44121.951    21.253125   0.93041274 
   30800    210.69632   -481.19875    134167.35    -41438.96    2621.4628   -44060.423    21.477655   0.93087845 
   30900    212.94642   -549.79018     134156.2   -41552.439    2649.4584   -44201.897     21.57353   0.93095579 
   31000    206.15871   -305.27683    133992.54   -41605.279    2565.0063   -44170.285    21.453305   0.93209286 
   31100    209.07816   -489.58974    134146.04   -41606.301    2601.3297    -44207.63    21.356225    0.9310263 
   31200     206.8394   -409.27719     134086.3   -41610.843    2573.4754   -44184.318    21.327697   0.93144107 
   31300    208.41444   -362.49155    134096.74   -41564.757    2593.0718   -44157.829     21.43225   0.93136857 
   31400    209.30544   -442.34665    134112.45   -41521.477    2604.1576   -44125.634    21.625233   0.93125948 
   31500    209.07114   -410.92453    134075.85   -41568.279    2601.2424   -44169.521    21.733076   0.93151373 
   31600    216.69598    -369.7163    134064.84   -41503.245    2696.1099   -44199.355    21.748848   0.93159019 
   31700    213.09547   -508.76408    133920.37   -41537.421    2651.3128   -44188.734    21.661583    0.9325952 
   31800    211.15816   -334.69209    133989.38    -41468.49    2627.2089   -44095.699    21.589794   0.93211482 
   31900    210.08816   -293.28798    133954.11   -41460.628    2613.8961   -44074.524    21.577804    0.9323603 
   32000    213.19345    -455.8005    133899.67   -41451.091    2652.5318   -44103.623     21.70968   0.93273937 
   32100    209.54819   -378.31536    133810.65   -41470.471    2607.1779   -44077.649    21.807643   0.93335985 
   32200    212.17925   -415.73611    133809.86   -41467.252    2639.9133   -44107.165    21.913281    0.9333654 
   32300    207.94294   -395.38645    133713.63   -41430.768    2587.2054   -44017.974    21.862112   0.93403711 
   32400    210.86377   -501.23827    133750.37     -41490.3    2623.5461   -44113.846    21.996856   0.93378056 
   32500    211.18514   -256.24352    133788.56   -41502.004    2627.5446   -44129.548    22.035013   0.93351397 
   32600      210.858   -328.58799    133654.67   -41443.961    2623.4744   -44067.435    21.911471   0.93444913 
   32700    207.09571   -430.61646    133838.33   -41499.031    2576.6643   -44075.695    21.996115   0.93316687 
   32800    205.61571   -416.32211    133862.26   -41543.875    2558.2503   -44102.126    21.981566        0.933 
   32900    211.43805   -483.58913    133901.34    -41545.42    2630.6913   -44176.111    22.096269   0.93272769 
   33000    207.60287   -407.17765    133759.41   -41594.645    2582.9744    -44177.62    22.105489   0.93371745 
   33100    211.25922    -245.1575    133812.91   -41540.335    2628.4663   -44168.801    22.141352    0.9333441 
   33200     212.0282   -393.18205    133794.49   -41587.871    2638.0339   -44225.905    22.170223   0.93347259 
   33300      211.208    -509.2332    133789.93   -41527.145     2627.829   -44154.974    22.256831   0.93350439 
   33400    205.94202   -415.89604    133805.74   -41595.668    2562.3102   -44157.978    22.250397   0.93339415 
   33500    209.76991   -314.47348    133940.32   -41556.003    2609.9365   -44165.939    22.353069   0.93245627 
   33600    209.47318   -393.50356    133958.64   -41522.695    2606.2446    -44128.94    22.462846   0.93232872 
   33700    207.88076   -398.81671    133905.97   -41507.241    2586.4319   -44093.673    22.308291   0.93269544 
   33800     210.1835   -410.63522    133820.38   -41507.175    2615.0823   -44122.258    22.312567   0.93329204 
   33900    209.66486    -309.9583     133821.9   -41501.178    2608.6295   -44109.808    22.358156   0.93328143 
   34000    208.88078   -473.17615    133875.28   -41464.131    2598.8741   -44063.005    22.375486   0.93290929 
   34100    211.00194   -414.81171    133851.29   -41493.284    2625.2653    -44118.55    22.317981   0.93307646 
   34200    207.19959   -434.79867    133859.78   -41505.077    2577.9568   -44083.034    22.524583   0.93301731 
   34300    206.80952   -481.26155    133907.65   -41563.799    2573.1036   -44136.903    22.576759   0.93268378 
   34400    208.49334   -584.77013    133796.28   -41498.012    2594.0535   -44092.066    22.576385   0.93346014 
   34500     210.5259   -313.74323    133865.89    -41519.14    2619.3424   -44138.483    22.472666   0.93297472 
   34600    208.84352   -339.15514    134006.62   -41506.683    2598.4104   -44105.093      22.4032   0.93199493 
   34700    206.84696    -257.4688    133963.93   -41589.977    2573.5694   -44163.547    22.390423   0.93229196 
   34800    209.02569   -328.25285     133952.8   -41588.477     2600.677   -44189.154    22.535566    0.9323694 
   34900    207.87773   -509.27866    133858.83   -41605.921    2586.3942   -44192.316    22.483481   0.93302394 
   35000    206.30097   -406.66792    133897.08   -41659.695    2566.7763   -44226.472    22.499495   0.93275739 
   35100    208.77413   -419.40353    133986.53   -41593.851    2597.5471   -44191.399    22.476665   0.93213469 
   35200    209.29582   -470.37219    134029.03   -41596.167     2604.038   -44200.205    22.463985   0.93183913 
   35300    208.45062   -377.16892    133727.47   -41584.512     2593.522   -44178.034     22.40169   0.93394042 
   35400    204.26423   -365.22175    133768.99   -41595.947    2541.4354   -44137.383    22.341716   0.93365056 
   35500    213.71784   -378.16543    133667.26   -41491.766    2659.0562   -44150.822    22.505687    0.9343611 
   35600    210.79568   -350.67635    133645.08   -41540.099     2622.699   -44162.798    22.526171   0.93451616 
   35700    209.67711   -431.73731    133850.13    -41507.83    2608.7819   -44116.612    22.558836   0.93308454 
   35800    208.13517   -369.76927    134071.35   -41548.207    2589.5972   -44137.804    22.654285   0.93154496 
   35900    211.97719   -614.99064    134029.32   -41515.739    2637.3992   -44153.138    22.664972   0.93183706 
   36000    210.96064   -442.87243    133890.78   -41498.948    2624.7514   -44123.699    22.559669   0.93280127 
   36100    210.99587   -456.76663    133760.17   -41509.845    2625.1897   -44135.035    22.517243    0.9337121 
   36200    207.90401   -296.48676    133849.56   -41530.577    2586.7211   -44117.298    22.594184   0.93308857 
   36300    206.60322   -402.13695     134028.9   -41578.371    2570.5368   -44148.908    22.848851      0.93184 
   36400    212.45107   -335.02142    133954.74   -41528.567    2643.2953   -44171.862    22.674963   0.93235588 
   36500    209.46814   -398.06381    134105.62   -41507.729    2606.1819    -44113.91    22.887667   0.93130693 
   36600    209.75735   -421.01741    133840.26   -41625.957    2609.7802   -44235.737    22.844887   0.93315339 
   36700    207.91705   -475.78161    133737.23   -41578.713    2586.8834   -44165.597    22.743907   0.93387225 
   36800    212.38061   -370.85913    133660.79   -41577.323    2642.4186   -44219.741    22.849727   0.93440632 
   36900    208.55251   -484.33176    133689.94    -41608.45    2594.7897    -44203.24     22.85483   0.93420259 
   37000    212.23576   -289.67328    133829.75   -41553.174    2640.6164    -44193.79    22.857746   0.93322665 
   37100    211.19138   -472.44211    133839.53   -41533.104    2627.6222   -44160.726    22.846899   0.93315849 
   37200    208.29812   -461.36482    133801.88   -41584.297    2591.6246   -44175.921    22.876967   0.93342103 
   37300    211.48213   -404.83001    133668.48   -41597.153    2631.2397   -44228.392    22.961878   0.93435261 
   37400    209.56084   -357.19935     133741.8   -41634.107    2607.3353   -44241.443    22.963643   0.93384034 
   37500    208.03083   -374.67882    133714.87   -41649.074    2588.2991   -44237.373    23.091986   0.93402841 
   37600    211.42497   -263.81913    133631.55   -41600.766    2630.5285   -44231.295    23.076529   0.93461081 
   37700    211.56698    -429.4042    133555.08   -41607.456    2632.2955   -44239.751    23.010871   0.93514592 
   37800    206.50625   -491.51031    133512.03   -41692.299    2569.3303    -44261.63    23.101566   0.93544751 
   37900    206.69628   -306.67951    133444.58   -41654.448    2571.6947   -44226.142    22.984355   0.93592027 
   38000    208.43428   -306.03111    133573.45   -41628.772    2593.3187    -44222.09    23.162905   0.93501732 
   38100     206.0857   -238.12285    133618.06   -41585.804    2564.0979   -44149.902    23.309293    0.9347052 
   38200    207.54912   -463.79172    133778.68   -41590.403    2582.3057   -44172.708    23.422178   0.93358293 
   38300     212.5833   -312.85029     133758.6   -41544.056    2644.9405   -44188.996    23.186955   0.93372307 
   38400     206.6353   -417.03914    133877.07   -41603.493     2570.936   -44174.429    23.270312   0.93289684 
   38500    209.35964    -452.9273    133688.64   -41615.353     2604.832   -44220.184    23.231199   0.93421167 
   38600    207.94628   -422.98913    133781.46   -41571.171    2587.2471   -44158.418    23.311252   0.93356351 
   38700    210.88691   -357.61299    133910.41   -41575.124    2623.8341   -44198.958    23.322977   0.93266453 
   38800    214.05165   -269.68365    133923.82   -41613.268    2663.2095   -44276.477    23.437026   0.93257114 
   38900    209.31237   -450.65115    133934.22   -41568.994    2604.2439   -44173.238    23.340466   0.93249875 
   39000    209.58166   -518.04522    133823.33   -41630.034    2607.5943   -44237.628    23.386955   0.93327142 
   39100     214.5465   -369.90261    133971.58   -41593.488    2669.3664   -44262.854    23.484487   0.93223871 
   39200    209.21466   -320.42156    133890.39   -41621.035    2603.0281   -44224.063    23.562149   0.93280397 
   39300    210.68652   -449.15904    133854.49   -41609.758    2621.3409   -44231.099    23.514613   0.93305417 
   39400    212.17157   -309.84622    133957.55    -41576.49    2639.8177   -44216.308    23.560434   0.93233635 
   39500    213.07267   -103.34436    134080.64   -41561.956    2651.0291   -44212.985    23.333519   0.93148045 
   39600    206.50505   -320.46113     134251.4   -41604.049    2569.3154   -44173.365    23.370723   0.93029565 
   39700    212.53504   -315.56584    134130.98   -41556.462      2644.34   -44200.802    23.440624   0.93113084 
   39800    206.85022   -377.23089    133975.02   -41629.737    2573.6101   -44203.347    23.633836   0.93221474 
   39900    210.84617   -338.19511    134118.47   -41670.955    2623.3272   -44294.282    23.758146   0.93121766 
   40000    207.56937   -405.90255    134130.53   -41690.683    2582.5576   -44273.241    23.741414   0.93113392 
   40100    212.40594   -486.56597    134112.54   -41600.831    2642.7338   -44243.565    23.615535   0.93125886 
   40200    206.95665   -571.99207    134070.76   -41623.914    2574.9342   -44198.848    23.507274   0.93154907 
   40300    210.69728   -337.53949    134007.28   -41600.024    2621.4747   -44221.499    23.542354   0.93199031 
   40400    213.32477   -483.12259    133895.94   -41508.964    2654.1657    -44163.13    23.562175   0.93276531 
   40500     208.6689   -493.35186    133966.21   -41525.134    2596.2378   -44121.372    23.775807   0.93227607 
   40600    211.57167   -334.04931    133810.09   -41563.457    2632.3538   -44195.811    23.778129    0.9333638 
   40700    207.82193   -440.18217    133803.29   -41598.397    2585.6999   -44184.097     23.88621   0.93341124 
   40800    206.98107   -689.59446       133683   -41636.007     2575.238   -44211.245    23.742197    0.9342511 
   40900    209.57191   -469.43902    133536.52   -41662.852     2607.473   -44270.325    23.783071   0.93527593 
   41000    213.70726   -483.97538    133660.81   -41587.614    2658.9246   -44246.538     23.86173   0.93440624 
   41100    212.31967   -454.82963    133644.81   -41563.959    2641.6603   -44205.619     23.88748   0.93451805 
   41200    213.11637   -433.08385    133715.07   -41576.356    2651.5729   -44227.929    23.784962   0.93402705 
   41300    204.50213   -502.27829     133646.3   -41719.235    2544.3953   -44263.631     23.85711   0.93450767 
   41400    205.19821    -269.6355    133611.27   -41656.067    2553.0559   -44209.123    23.818347   0.93475269 
   41500    204.65672   -397.22998    133530.25   -41643.615    2546.3187   -44189.934    23.826565   0.93531985 
   41600    210.07957   -483.25454     133496.3    -41620.46    2613.7893    -44234.25    24.095452   0.93555767 
   41700    210.18489   -513.76938    133678.96   -41590.455    2615.0996   -44205.555    23.952244   0.93427936 
   41800    207.61193   -248.70133    133584.35   -41605.557    2583.0871   -44188.644    24.049754   0.93494106 
   41900    213.27764   -289.79323    133595.98   -41592.366    2653.5794   -44245.945    23.892438   0.93485968 
   42000    211.01623   -333.83785    133560.15   -41584.118    2625.4431   -44209.561     23.90325   0.93511041 
   42100    209.03702    -386.3675    133609.19   -41579.937    2600.8179   -44180.755    23.907422   0.93476721 
   42200    209.73182   -404.28821    133518.86   -41532.144    2609.4626   -44141.606    24.090596   0.93539961 
   42300    212.56444   -435.53612    133613.07    -41512.17    2644.7058   -44156.875    24.147309   0.93474011 
   42400    209.04739   -326.23903    133566.06   -41544.203    2600.9469   -44145.149    24.366492   0.93506907 
   42500    209.62471   -318.04914    133658.38   -41540.664      2608.13   -44148.794    24.534858   0.93442321 
   42600    212.54422   -309.59213    133716.18   -41540.438    2644.4542   -44184.892    24.498817   0.93401929 
   42700    207.96034   -376.91685    133658.34   -41555.934     2587.422   -44143.356     24.47739   0.93442347 
   42800    211.23931   -508.16695    133727.61   -41512.758    2628.2187   -44140.976    24.272647   0.93393944 
   42900    210.13688   -360.07916    133600.02   -41596.058    2614.5022    -44210.56    24.056889    0.9348314 
   43000    208.34524   -487.20139       133660   -41624.319    2592.2108    -44216.53    24.240984   0.93441189 
   43100    209.27252   -498.06443    133488.84   -41612.402     2603.748    -44216.15    24.372238      0.93561 
   43200    208.41957   -379.95925    133529.43   -41579.325    2593.1357   -44172.461    24.516813    0.9353256 
   43300    208.05904   -348.97586    133634.23   -41591.957      2588.65   -44180.607    24.416288   0.93459208 
   43400    209.83619    -348.2668    133803.59   -41552.516    2610.7612   -44163.277     24.31915   0.93340914 
   43500    208.95689   -406.89146    133888.06   -41564.595     2599.821   -44164.416    24.470672   0.93282025 
   43600    217.26216   -309.07709    133853.68   -41483.963    2703.1543   -44187.117    24.388363   0.93305985 
   43700    215.81054   -283.60075    133804.91   -41520.943    2685.0934   -44206.036    24.639562   0.93339991 
   43800    210.12328   -356.75706    133885.99   -41535.951    2614.3331   -44150.284    24.608879   0.93283463 
   43900    209.53326   -369.81935    133854.78   -41591.203    2606.9921   -44198.196    24.543877   0.93305219 
   44000    208.25889   -578.11047    133846.59   -41615.444    2591.1365   -44206.581    24.569635   0.93310925 
   44100    213.94793   -448.58756     133915.7   -41636.548     2661.919   -44298.467    24.471134   0.93262772 
   44200    208.58211    -436.0653     133838.4   -41674.141    2595.1579   -44269.299    24.719348   0.93316638 
   44300    208.77443   -527.12428    133655.68   -41692.371    2597.5508   -44289.922    24.709647   0.93444209 
   44400     212.8711    -391.9272       133571   -41662.016    2648.5212   -44310.537    24.743826   0.93503448 
   44500    209.56978   -349.54604    133749.24   -41684.109    2607.4465   -44291.556    24.837227   0.93378842 
   44600     206.9704   -386.31518    133770.77    -41748.25    2575.1053   -44323.355    24.788822    0.9336381 
   44700    207.97406   -413.60363    133769.84   -41728.538    2587.5927   -44316.131    24.794119   0.93364461 
   44800    211.21385    -347.5424    133734.51   -41698.699    2627.9018   -44326.601    24.704668   0.93389125 
   44900    209.36776   -413.90219    133818.69   -41659.998     2604.933   -44264.931    24.821072   0.93330377 
   45000    208.47889   -362.83602    133780.91   -41653.006    2593.8738    -44246.88    24.922764   0.93356734 
   45100    210.51461   -378.30897    133704.14   -41598.443     2619.202   -44217.645    25.069704   0.93410337 
   45200     207.5729   -282.78364    133709.67   -41655.205    2582.6015   -44237.806    24.932235   0.93406473 
   45300    210.59748   -549.73497    133760.49   -41664.489     2620.233   -44284.722    24.876629   0.93370987 
   45400    213.59966   -448.25622    133559.01   -41645.287    2657.5859   -44302.873    24.762687   0.93511844 
   45500    213.65837   -416.03882    133546.87    -41661.49    2658.3163   -44319.806    24.821849   0.93520342 
   45600    212.12758   -162.42797    133608.65   -41659.522    2639.2703   -44298.793    24.910315     0.934771 
   45700    207.63104   -467.47869    133564.06   -41662.521    2583.3249   -44245.846    24.840254   0.93508304 
   45800    214.38527    -325.6768    133576.96   -41613.176    2667.3603   -44280.537    24.906599   0.93499274 
   45900    212.22767   -412.07876     133581.6   -41555.241    2640.5157   -44195.757    24.888653   0.93496028 
   46000    214.12669    -430.6463    133565.84   -41539.381    2664.1432   -44203.524    24.850446   0.93507062 
   46100    215.91129    -373.9764    133585.34   -41501.803    2686.3469    -44188.15    24.917338    0.9349341 
   46200    213.35373   -423.57732    133657.71   -41491.977     2654.526   -44146.503    24.919945   0.93442789 
   46300    214.52756   -582.24693     133500.8   -41521.172    2669.1306   -44190.303     25.04243   0.93552619 
   46400    215.18026   -483.22228    133383.07   -41540.175    2677.2516   -44217.426    25.170396   0.93635187 
   46500    210.07814   -447.40187    133475.42   -41556.006    2613.7714   -44169.778    25.311837   0.93570402 
   46600    213.08281   -380.05421     133661.5   -41546.931    2651.1552   -44198.086    25.244025   0.93440137 
   46700     208.0865   -340.55973    133583.87   -41635.468    2588.9917   -44224.459    25.110551   0.93494439 
   46800    209.34748   -441.91418    133617.11   -41689.341    2604.6807   -44294.021    25.115802   0.93471182 
   46900    214.72097   -453.12761    133692.02   -41621.705    2671.5371   -44293.242    25.024827    0.9341881 
   47000    209.95939   -374.61893    133688.98   -41613.977    2612.2939   -44226.271    25.070648   0.93420931 
   47100    210.29176   -508.38242     133662.7   -41591.361    2616.4293   -44207.791    25.211158   0.93439297 
   47200    214.61529   -367.48617    133649.76   -41630.488    2670.2223    -44300.71     25.26301   0.93448344 
   47300    207.73572   -436.03002    133461.33    -41661.74    2584.6273   -44246.368    25.213995   0.93580282 
   47400    213.71288   -433.11679    133671.45   -41630.711    2658.9946   -44289.706    25.172575   0.93433187 
   47500    216.10644    -389.6169    133644.72   -41592.522     2688.775   -44281.297    25.163604   0.93451874 
   47600    213.47613   -296.39715    133706.24    -41559.77    2656.0489   -44215.819    25.179265   0.93408875 
   47700    210.36519    -315.8251     133631.4    -41611.81     2617.343   -44229.153    25.138969   0.93461189 
   47800    214.04298   -416.52896    133745.96   -41623.844    2663.1016   -44286.946    25.362696   0.93381134 
   47900    207.56853   -464.21292    133794.52    -41707.84    2582.5471   -44290.388    25.399602   0.93347236 
   48000    208.67842   -553.19035    133884.27   -41731.138    2596.3562   -44327.494    25.307804   0.93284665 
   48100    207.65335   -234.27005    133794.04   -41701.382    2583.6025   -44284.984    25.337727   0.93347572 
   48200    204.54275   -388.75274    133745.73   -41727.984    2544.9007   -44272.884    25.296094    0.9338129 
   48300    207.78421   -395.02548    133661.33   -41701.569    2585.2306     -44286.8    25.233999   0.93440259 
   48400    214.88479   -381.92961     133770.7   -41613.384    2673.5753   -44286.959    25.411832   0.93363864 
   48500    210.56249   -262.06218    133798.45   -41660.708    2619.7977   -44280.506    25.446598   0.93344496 
   48600    211.02897   -472.30488    133733.77   -41659.587    2625.6016   -44285.188    25.417685   0.93389641 
   48700    214.09043   -391.43508     133859.4   -41634.209     2663.692   -44297.901    25.430873   0.93301998 
   48800    206.62895    -366.5231    133766.24   -41653.838     2570.857   -44224.694    25.287284   0.93366974 
   48900    210.00481   -373.68055    133620.11   -41653.818    2612.8591   -44266.677    25.273668   0.93469082 
   49000    209.73805   -286.85754    133670.42   -41688.862      2609.54   -44298.402    25.538235   0.93433907 
   49100    205.91069    -495.2949    133767.45   -41687.176    2561.9204   -44249.097    25.473616   0.93366129 
   49200    209.58619   -363.43922    133765.69   -41699.922    2607.6507   -44307.573    25.501387    0.9336736 
   49300     211.5497   -489.85803     133855.8   -41653.328    2632.0805   -44285.408    25.615904   0.93304504 
   49400    212.57621   -327.74669    133810.96   -41630.412    2644.8522   -44275.264    25.532051   0.93335774 
   49500    212.47361   -421.39211    133871.04   -41645.562    2643.5756   -44289.138    25.602707   0.93293881 
   49600    208.64675   -332.96935    133930.98   -41634.097    2595.9622    -44230.06    25.573052    0.9325213 
   49700     212.9209   -472.35965    134047.57   -41654.622    2649.1408   -44303.762    25.591613   0.93171025 
   49800    210.41792   -481.93322    133876.13   -41705.173     2617.999   -44323.172     25.50961   0.93290337 
   49900    212.68844   -422.22054    133984.43   -41598.183    2646.2486   -44244.432    25.611565    0.9321493 
   50000    211.93576   -443.33695    134056.32   -41642.293    2636.8838   -44279.177    25.551851    0.9316494 
   50100    213.09146   -329.18147    133976.56     -41661.6    2651.2628   -44312.862    25.653406   0.93220401 
   50200     211.7847   -405.57998    133970.14   -41701.843    2635.0044   -44336.847    25.572358   0.93224874 
   50300    214.38291    -344.6828     134051.5   -41688.219     2667.331    -44355.55    25.530286    0.9316829 
   50400    209.23145   -457.15493    134015.46   -41707.971     2603.237   -44311.208    25.506496   0.93193345 
   50500    205.92637   -310.47323    134025.54   -41750.218    2562.1155   -44312.333    25.457778   0.93186338 
   50600    205.98572    -489.3803    134100.78   -41763.559     2562.854   -44326.413    25.528084   0.93134051 
   50700    209.07082    -412.2065    134048.24   -41767.303    2601.2384   -44368.541    25.609616   0.93170556 
   50800    208.04396   -395.40733    134041.12   -41760.312    2588.4624   -44348.775     25.54021   0.93175503 
   50900    214.01648   -333.69189    134119.01    -41689.45    2662.7718   -44352.222    25.513124   0.93121392 
   51000    210.10213   -281.05436    134219.09    -41723.87    2614.0699    -44337.94    25.701507   0.93051959 
   51100    208.81027   -461.74723    134155.47   -41756.744    2597.9967   -44354.741    25.737068   0.93096083 
   51200    207.17316   -319.00682    134345.39    -41742.13     2577.628   -44319.758    25.750445   0.92964481 
   51300     209.4745   -299.51416    134277.76   -41796.031     2606.261   -44402.292    25.727652   0.93011304 
   51400    208.08221   -268.00448    134222.09   -41804.366    2588.9382   -44393.304     25.66548    0.9304988 
   51500    209.09767    -317.4698    134392.96    -41812.63    2601.5725   -44414.202     25.64457   0.92931573 
   51600    210.54636   -447.57656     134445.6   -41761.736    2619.5971   -44381.333     25.81214   0.92895184 
   51700    212.50727    -385.4213     134311.2    -41758.73    2643.9945   -44402.724    25.818322   0.92988143 
   51800    211.27583   -261.10752    134301.11   -41795.065    2628.6729   -44423.738    25.841678   0.92995131 
   51900    209.93003   -354.90034    134345.28   -41841.815    2611.9287   -44453.744    25.808577   0.92964557 
   52000     203.6962   -472.76825    134224.14   -41864.448     2534.368   -44398.816    25.882155   0.93048456 
   52100    208.84656   -342.01864    134309.82   -41815.439    2598.4483   -44413.887    25.856326   0.92989099 
   52200    206.41842   -390.28448    134389.45    -41830.94    2568.2375   -44399.178    25.860506   0.92933999 
   52300     210.2393    -463.3198    134438.84   -41816.243    2615.7766    -44432.02    25.909468    0.9289986 
   52400    208.01693   -434.61208    134364.18   -41767.097     2588.126   -44355.224    25.956256   0.92951479 
   52500    207.73021   -512.11518    134363.09   -41758.152    2584.5588   -44342.711    25.829015    0.9295223 
   52600    208.93778   -379.76734    134367.83   -41786.482    2599.5833   -44386.065    25.834871   0.92948956 
   52700    206.06704    -563.9807    134356.61    -41799.85    2563.8657   -44363.715    25.806882   0.92956713 
   52800      207.642   -502.59394    134306.89   -41760.749    2583.4613    -44344.21    25.792108    0.9299113 
   52900     212.5907   -397.71226    134343.79    -41750.86    2645.0324   -44395.892    25.960444   0.92965584 
   53000     207.3243   -417.21583    134305.31   -41731.442    2579.5084    -44310.95    25.983613   0.92992225 
   53100    211.97709    -425.7817    134303.99   -41774.725     2637.398   -44412.123    25.991669   0.92993133 
   53200    211.61636   -402.47464    134215.14   -41776.801    2632.9098   -44409.711    26.028382   0.93054697 
   53300    210.14602   -461.46088    134384.48   -41775.822     2614.616   -44390.438    25.961916   0.92937438 
   53400     207.1284   -410.02205     134374.6    -41845.22    2577.0711   -44422.291    26.019153   0.92944273 
   53500    205.37549   -386.90417    134512.52   -41848.701    2555.2615   -44403.962     25.99723   0.92848969 
   53600    206.69038   -375.99638    134585.57   -41845.805    2571.6213   -44417.426    26.103214   0.92798575 
   53700    201.44013   -420.72265    134655.49   -41873.557    2506.2981   -44379.856    26.311971   0.92750387 
   53800    208.39323   -294.81678    134626.74   -41754.223     2592.808   -44347.031    26.239508   0.92770198 
   53900    206.19805   -422.01823    134534.23   -41801.732    2565.4958   -44367.228    26.085775   0.92833989 
   54000     213.4818   -423.83543    134641.98   -41777.324    2656.1195   -44433.444    26.148652   0.92759693 
   54100    207.13947   -400.31892    134610.66   -41798.119    2577.2088   -44375.328    26.200712   0.92781277 
   54200    211.92455    -445.6489    134649.54   -41775.329    2636.7443   -44412.073    26.032443   0.92754487 
   54300    209.65854   -561.13145    134713.24   -41750.805    2608.5508   -44359.356    26.093507   0.92710626 
   54400    211.36858   -503.53969    134542.15   -41783.656    2629.8269   -44413.483     26.09181    0.9282852 
   54500     212.2746   -342.46901       134554   -41770.638    2641.0996   -44411.738    26.101313   0.92820348 
   54600    214.54242   -472.74217    134469.03   -41678.613    2669.3155   -44347.929    26.078737   0.92878997 
   54700    207.10885   -399.06262    134476.57   -41700.749    2576.8278   -44277.576    26.203268   0.92873792 
   54800    208.57277   -384.76611    134403.64   -41762.107    2595.0418   -44357.149    26.155918    0.9292419 
   54900    209.65433   -408.16758    134587.59   -41806.168    2608.4985   -44414.666    26.038214   0.92797181 
   55000    204.63814   -468.14541    134642.86   -41862.027    2546.0875   -44408.114    26.088823   0.92759089 
   55100    208.24467   -396.53392    134572.95    -41829.44    2590.9595   -44420.399    26.104308   0.92807275 
   55200    205.87754   -489.12001    134525.03   -41836.013     2561.508   -44397.521    26.097944   0.92840338 
   55300    209.60716   -438.48809     134410.1   -41781.593    2607.9115   -44389.505     26.19801   0.92919723 
   55400    213.49976    -440.1878    134488.58   -41764.141     2656.343   -44420.484    26.347483   0.92865502 
   55500    213.50456   -391.95126    134490.49   -41705.217    2656.4026    -44361.62    26.277803   0.92864183 
   55600    209.58849   -270.55384    134657.17   -41750.019    2607.6793   -44357.698    26.259541   0.92749234 
   55700    210.90351   -454.57712    134571.27    -41746.83    2624.0406   -44370.871    26.046354   0.92808435 
   55800    209.08297   -394.11616    134574.18    -41756.41    2601.3896     -44357.8    26.148189   0.92806432 
   55900    212.75028   -447.39329    134660.72   -41731.775    2647.0179   -44378.793    26.377103    0.9274679 
   56000    210.82114   -451.95872    134680.54   -41724.609    2623.0158   -44347.625    26.404741   0.92733138 
   56100    211.78748   -392.60312     134564.3   -41690.666    2635.0389   -44325.705    26.496936   0.92813246 
   56200    210.50936   -498.84049    134600.86   -41699.891    2619.1366   -44319.028     26.33365   0.92788035 
   56300    212.85792   -409.72222    134639.72   -41730.868    2648.3573   -44379.225    26.164474   0.92761255 
   56400     209.9456   -473.54067     134627.4   -41719.784    2612.1224   -44331.906    26.239868   0.92769739 
   56500    210.04573   -317.90535    134574.27   -41803.391    2613.3682   -44416.759    26.344598   0.92806364 
   56600     207.1946   -375.61275    134324.24   -41827.615    2577.8948    -44405.51    26.309596   0.92979115 
   56700      205.984   -408.15447    134263.29   -41853.762    2562.8326   -44416.595    26.351467   0.93021327 
   56800    207.19295   -424.57237    134343.65   -41778.695    2577.8741   -44356.569    26.358365   0.92965682 
   56900     208.3771    -404.1919    134375.06   -41762.355    2592.6073   -44354.962    26.395735   0.92943951 
   57000    213.24543   -452.57695    134367.54   -41717.042    2653.1785    -44370.22    26.389425   0.92949152 
   57100    207.82792    -524.1715    134423.61   -41779.349    2585.7745   -44365.124    26.407372    0.9291038 
   57200    209.67241   -255.81623     134443.9    -41811.55    2608.7234   -44420.273    26.589495   0.92896358 
   57300    207.44977   -250.05721     134508.6   -41858.222    2581.0695   -44439.291    26.512801    0.9285168 
   57400     207.5555   -367.59171    134416.68   -41863.291    2582.3851   -44445.676    26.525257   0.92915173 
   57500    205.20689   -383.33487    134558.33   -41903.025    2553.1638   -44456.189    26.708675   0.92817359 
   57600    203.19266   -469.29429    134401.37    -41853.72     2528.103   -44381.823    26.501023   0.92925757 
   57700    202.70396   -324.58993    134376.86   -41891.076    2522.0227   -44413.099    26.452436   0.92942707 
   57800    206.08737   -290.78014    134630.51   -41914.677    2564.1186   -44478.796    26.592489   0.92767597 
   57900    207.71498   -337.30936     134456.5    -41890.67    2584.3693   -44475.039    26.622753   0.92887659 
   58000    206.38535    -241.9119    134597.91   -41891.178    2567.8262   -44459.004    26.580188   0.92790069 
   58100    209.07651   -492.55932    134466.44   -41828.268    2601.3092   -44429.577    26.654609   0.92880791 
   58200    208.20586   -315.16815    134450.19   -41773.677    2590.4767   -44364.153    26.654262   0.92892014 
   58300    213.55652   -369.94613    134508.04    -41711.55    2657.0491   -44368.599    26.550244   0.92852066 
   58400    212.59604    -394.7971    134390.56   -41729.352     2645.099   -44374.451    26.719009   0.92933229 
   58500    209.25539    -419.3153    134403.76   -41737.212    2603.5348   -44340.747    26.601457   0.92924105 
   58600    210.15763   -248.46831    134433.35   -41711.874    2614.7604   -44326.635     26.55118   0.92903649 
   58700    210.39976   -462.81628    134524.34   -41711.008     2617.773   -44328.781    26.737846   0.92840814 
   58800    209.43159   -290.81606    134538.57   -41757.519    2605.7271   -44363.246    26.680429   0.92830991 
   58900    208.24791   -392.85348    134601.58   -41808.732         2591   -44399.732    26.767532    0.9278754 
   59000     208.3804   -506.42489    134621.59   -41785.847    2592.6484   -44378.495    26.749593   0.92773747 
   59100    209.54627   -462.17483     134481.5   -41779.526     2607.154    -44386.68    26.584154   0.92870386 
   59200    207.20337   -371.53652    134422.88   -41792.843    2578.0039   -44370.847     26.60443    0.9291089 
   59300    207.83858   -378.72189    134452.05   -41780.684     2585.907   -44366.591    26.883547   0.92890732 
   59400    208.25888   -340.95037    134446.05   -41819.239    2591.1364   -44410.376    26.836721   0.92894878 
   59500    208.59752   -182.44648    134541.87   -41783.557    2595.3498   -44378.907    26.730039   0.92828718 
   59600    207.90268   -381.81835     134733.1   -41772.838    2586.7046   -44359.542    26.922083    0.9269696 
   59700    207.84727   -391.61099    134574.91   -41796.686    2586.0152   -44382.701    26.613583   0.92805929 
   59800    209.12849   -311.49904    134539.62    -41795.36    2601.9559   -44397.316    26.585621   0.92830268 
   59900    208.27521   -372.26523    134526.36   -41785.499    2591.3396   -44376.839    26.643648   0.92839421 
   60000    205.66684   -501.85291    134449.62   -41818.978    2558.8865   -44377.865    26.654704    0.9289241 
   60100    211.55942   -398.59326    134500.24   -41773.267    2632.2014   -44405.469    26.871362   0.92857449 
   60200    211.35262   -337.48514    134476.19   -41767.974    2629.6284   -44397.602    26.889568   0.92874054 
   60300     213.6373    -436.3927    134564.24   -41734.082    2658.0541   -44392.136     26.75937   0.92813286 
   60400    210.90636   -468.03083    134443.88   -41691.655    2624.0761   -44315.731    26.696107   0.92896372 
   60500    214.03513   -419.66869     134596.1   -41722.181    2663.0039   -44385.185    26.549759   0.92791313 
   60600    212.34082   -374.47904    134588.26   -41777.243    2641.9235   -44419.167    26.656593   0.92796719 
   60700    210.99203   -396.71695    134566.81   -41811.334     2625.142   -44436.476    26.795218   0.92811509 
   60800    209.58301   -424.69518    134556.87   -41773.559    2607.6111    -44381.17    26.832236   0.92818369 
   60900    210.92149    -431.2377    134463.94    -41771.43    2624.2643   -44395.694    26.782554    0.9288252 
   61000    207.50168   -277.11688    134593.66   -41810.837    2581.7154   -44392.552    26.797281   0.92793001 
   61100    209.30031   -367.28345    134580.75   -41845.774    2604.0938   -44449.868    26.861036   0.92801902 
   61200    210.32199   -510.21514     134551.2   -41833.276    2616.8054   -44450.082    26.772405   0.92822277 
   61300    211.12402   -416.26634    134532.45   -41817.029    2626.7842   -44443.813    26.776363   0.92835214 
   61400    207.61612   -374.32625    134565.88   -41851.376    2583.1393   -44434.515    26.786994   0.92812154 
   61500    207.19564    -417.6903    134541.11   -41842.858    2577.9076   -44420.766    26.983178   0.92829238 
   61600     208.5114   -374.91835     134505.9   -41800.212    2594.2783    -44394.49    27.044373   0.92853543 
   61700    206.67225   -209.24431     134554.9   -41867.073    2571.3957   -44438.469    26.926412   0.92819726 
   61800    206.22018   -274.11813    134632.78   -41925.455    2565.7711   -44491.226    26.910402   0.92766033 
   61900    209.35067   -426.83915    134571.16   -41870.002    2604.7204   -44474.723    26.887154    0.9280851 
   62000    205.52442   -489.30295    134602.63   -41827.422    2557.1146   -44384.537    26.940189   0.92786817 
   62100    209.92046   -348.85574    134598.25   -41836.276    2611.8096   -44448.086    26.976244   0.92789831 
   62200    209.12099   -441.38776    134608.09   -41791.194    2601.8627   -44393.057    26.973148   0.92783049 
   62300    208.89498    -362.5322    134647.49   -41826.806    2599.0507   -44425.857    27.008851     0.927559 
   62400     214.3019   -330.27996    134819.09   -41777.952     2666.323   -44444.275     27.10191   0.92637842 
   62500    208.78613   -309.98857    134787.75    -41788.83    2597.6963   -44386.527      27.1601    0.9265938 
   62600    210.54034   -531.92644    134751.76   -41800.356    2619.5221   -44419.878    27.085692   0.92684124 
   62700    206.66682   -375.10562    134859.67   -41824.199    2571.3282   -44395.528    27.128108    0.9260996 
   62800    209.59723   -362.27577       134811   -41812.598     2607.788   -44420.386    27.129508   0.92643398 
   62900    209.25345   -537.09242    134979.73   -41771.447    2603.5107   -44374.958    27.208972    0.9252759 
   63000    214.61591   -430.44486    134967.87   -41742.314    2670.2299   -44412.544    27.202333   0.92535724 
   63100    211.20558    -523.7892    134931.03   -41733.513    2627.7989   -44361.312    27.126119   0.92560984 
   63200     214.4346   -519.83441     134951.5   -41762.165    2667.9742   -44430.139    27.160178   0.92546948 
   63300    212.79966   -414.69276    134869.95    -41799.58    2647.6324   -44447.212    27.094918   0.92602904 
   63400    213.69806   -489.40152    134841.29   -41725.743    2658.8101   -44384.553    27.139474    0.9262259 
   63500    211.10893   -418.70954    134824.87   -41813.455    2626.5965   -44440.052     27.12688   0.92633869 
   63600    210.12354   -360.72084    134691.32   -41809.065    2614.3364   -44423.401    27.109302   0.92725718 
   63700    209.68392   -468.20876     134541.4   -41812.838    2608.8665   -44421.705    27.155777    0.9282904 
   63800    209.04144    -423.1252    134594.64     -41915.3    2600.8729   -44516.173     27.17097   0.92792321 
   63900    204.28339   -420.02063    134528.55    -41907.42    2541.6738   -44449.094    27.115081   0.92837909 
   64000    207.43705   -259.83656    134542.35   -41885.644    2580.9112   -44466.555    27.056717   0.92828385 
   64100    211.87101   -276.35006    134682.09   -41812.952    2636.0781    -44449.03    27.133029    0.9273207 
   64200    210.77291   -440.89488    134576.41   -41814.226    2622.4156   -44436.641    27.285104   0.92804894 
   64300    214.86702   -363.02213    134621.94   -41724.909    2673.3542   -44398.263    27.255437   0.92773501 
   64400    211.94007   -406.30749    134659.93   -41743.815    2636.9374   -44380.753      27.3542   0.92747329 
   64500    214.63035   -449.59508    134489.87    -41731.69    2670.4096   -44402.099    27.273842   0.92864609 
   64600     208.9961    -446.5978    134570.93   -41779.154    2600.3088   -44379.463     27.31572    0.9280867 
   64700    208.88083   -396.31861    134597.35   -41786.722    2598.8747   -44385.597    27.305468   0.92790454 
   64800    209.47345   -377.82854    134678.38   -41808.445     2606.248   -44414.693    27.344451   0.92734627 
   64900    209.71799   -316.99417    134772.98   -41790.145    2609.2905   -44399.436    27.395379   0.92669536 
   65000    210.16312    -407.8255    134863.04   -41762.669    2614.8288   -44377.498    27.396234   0.92607652 
   65100    209.17372   -492.19813    135053.57   -41784.185    2602.5187   -44386.703    27.434317   0.92477001 
   65200    210.82915   -448.14682    135030.39   -41772.616    2623.1154   -44395.732    27.493884   0.92492878 
   65300    207.62504   -423.41305    134802.52   -41781.723    2583.2502   -44364.973    27.490546   0.92649228 
   65400    211.97481   -277.91737    134949.61   -41728.435    2637.3697   -44365.805    27.535446    0.9254824 
   65500    212.30639   -355.15003    134908.09   -41791.674    2641.4952   -44433.169    27.568333   0.92576724 
   65600    209.95357   -306.82805    134840.22   -41830.124    2612.2216   -44442.345    27.528542   0.92623322 
   65700    207.58941   -342.34422    134892.76   -41878.625     2582.807   -44461.432    27.473934   0.92587248 
   65800    205.67967   -424.28509    134922.74   -41883.136    2559.0462   -44442.182    27.459246   0.92566672 
   65900    205.92384   -393.99805    134971.01   -41853.333    2562.0841   -44415.417    27.702557   0.92533566 
   66000    209.16919   -527.04223    135012.37       -41760    2602.4623   -44362.463    27.779743   0.92505222 
   66100    216.34669   -331.37731    135009.66   -41710.985    2691.7641   -44402.749    27.795583   0.92507079 
   66200     213.4536   -447.18887    134924.84   -41678.335    2655.7686   -44334.104    27.739996    0.9256523 
   66300    213.30629   -443.68306    134799.31   -41718.801    2653.9358   -44372.737    27.697409   0.92651434 
   66400     212.5962   -445.19131    134795.47    -41763.75    2645.1009   -44408.851    27.753552   0.92654072 
   66500    209.64168   -489.39263    134737.77   -41773.154    2608.3411   -44381.495    27.729672   0.92693748 
   66600    210.91458   -316.75918     134815.9   -41789.121    2624.1784   -44413.299    27.706658   0.92640029 
   66700     210.6505   -383.79486    134866.53   -41814.752    2620.8927   -44435.645    27.851655   0.92605251 
   66800    209.50796   -231.58092    134970.89   -41762.298    2606.6773   -44368.975    27.797351   0.92533652 
[...]
   84600    206.84512   -399.35567    134939.99   -41962.621    2573.5465   -44536.168    30.141837   0.92554838 
   84700    203.06652   -396.82432    134941.94   -41979.333    2526.5336   -44505.867    30.075334     0.925535 
   84800    208.75406   -317.98118    134978.72    -41951.98    2597.2974   -44549.277    30.195235    0.9252828 
   84900    213.62697   -414.45123    134946.04   -41935.946    2657.9256   -44593.872    30.126704   0.92550692 
   85000    209.50932   -514.16393     134852.6   -41882.379    2606.6942   -44489.074    30.220901   0.92614822 
   85100    207.46917   -357.92813     135083.2   -41883.458    2581.3109   -44464.769    30.228781   0.92456714 
   85200    212.55553   -402.09289       134881   -41899.545    2644.5949    -44544.14    30.110878   0.92595318 
   85300    201.58434   -534.32904    134932.77   -41931.098    2508.0925   -44439.191    30.223661   0.92559789 
   85400    209.66657   -366.74334    134845.02   -41929.176    2608.6507   -44537.826     30.14138   0.92620024 
   85500    209.16858   -421.81904    135077.97   -41885.068    2602.4548   -44487.523    30.206038   0.92460294 
   85600     211.7842   -323.28841    135116.11   -41867.698    2634.9981   -44502.696    30.045367   0.92434194 
   85700    213.03577   -321.07222    135066.99   -41915.668    2650.5699   -44566.238    30.038999   0.92467816 
   85800    209.67726   -494.62365    135024.47   -41920.798    2608.7837   -44529.582    30.091394   0.92496932 
   85900    216.40216   -415.89645    135149.41   -41832.571    2692.4543   -44525.025     30.13374    0.9241142 
   86000    210.34751   -531.98871    135030.29    -41882.83    2617.1229   -44499.953    30.227054   0.92492946 
   86100    210.16271   -400.42424    135014.95   -41875.609    2614.8237   -44490.432    30.305999   0.92503456 
   86200    210.99848   -398.24117    134945.89   -41840.224    2625.2222   -44465.446    30.203321   0.92550792 
   86300    207.27008   -447.21691    134990.05   -41876.242    2578.8339   -44455.076    30.392252   0.92520513 
   86400    210.59668   -450.44359    135201.41   -41891.406    2620.2231   -44511.629    30.348025   0.92375881 
   86500    209.11867   -425.69603    135174.81   -41878.921    2601.8338   -44480.755    30.376339   0.92394058 
   86600    214.74605   -342.74559    135192.83    -41829.28    2671.8491   -44501.129    30.367034   0.92381741 
   86700    213.86857   -355.36927    135209.07   -41821.563    2660.9316   -44482.495    30.235544   0.92370645 
   86800    207.13069   -520.76783    135272.66   -41893.011    2577.0996   -44470.111    30.426462   0.92327227 
   86900     213.4149   -364.34834    135229.52   -41864.364    2655.2871   -44519.651    30.530149   0.92356679 
   87000    208.91546   -315.37571    135119.47   -41866.985    2599.3055    -44466.29    30.413149   0.92431899 
   87100    206.35854   -374.13066    135106.31   -41901.971    2567.4925   -44469.464      30.2848   0.92440904 
   87200    211.37768   -407.03108    135093.38   -41892.473    2629.9402   -44522.413    30.295173   0.92449746 
   87300    209.37776   -547.88503    135099.13   -41890.281    2605.0574   -44495.339    30.303099   0.92445817 
   87400    206.37074   -461.03171    134996.07   -41894.121    2567.6444   -44461.766    30.403181   0.92516393 
   87500    210.71716    -332.7835    134950.92   -41907.332    2621.7221   -44529.055    30.593921   0.92547344 
   87600    210.13139    -459.1626    134904.06   -41919.762    2614.4339   -44534.196    30.603885   0.92579491 
   87700    209.37434   -460.30866    134787.31   -41932.605    2605.0148    -44537.62    30.419646   0.92659684 
   87800    206.41084   -469.22157       134917   -41905.807    2568.1433    -44473.95    30.506562   0.92570612 
   87900    207.74888   -404.53371    135029.76    -41908.79     2584.791   -44493.581    30.504434   0.92493309 
   88000    208.77603   -354.08169    135051.31   -41925.915    2597.5707   -44523.486    30.527237   0.92478551 
   88100    210.24623   -394.62417    135130.96   -41858.174    2615.8628   -44474.037    30.600146   0.92424037 
   88200    212.66093   -400.36196    135158.77   -41828.166    2645.9063   -44474.073    30.427845   0.92405023 
   88300    212.19839   -459.83938    135145.09   -41857.773    2640.1514   -44497.925    30.496658   0.92414376 
   88400    205.67665   -336.66013    135221.72   -41952.605    2559.0085   -44511.614    30.794844   0.92362007 
   88500     212.2433   -390.52373    135216.96   -41861.054    2640.7101   -44501.764    30.573173   0.92365257 
   88600    207.91994   -336.75779    135178.98   -41824.154    2586.9194   -44411.073    30.400614   0.92391209 
   88700    214.69683   -426.34763    135153.58   -41818.315    2671.2368   -44489.552    30.579783   0.92408572 
   88800    215.28524   -460.98825     135152.8   -41765.603    2678.5577   -44444.161    30.620701   0.92409103 
   88900    211.17524   -395.80729    135180.03   -41812.593    2627.4215   -44440.014    30.776407   0.92390493 
   89000    212.86755   -459.72885    135187.02   -41804.767     2648.477   -44453.244    30.713682   0.92385714 
   89100    208.45191   -366.97282    135042.15   -41899.265     2593.538   -44492.803    30.731608   0.92484819 
   89200    207.10414   -408.09842    135271.05   -41929.763    2576.7693   -44506.532    30.845088   0.92328323 
   89300    210.92545   -365.62739    135150.15   -41943.043    2624.3135   -44567.357    30.818544   0.92410913 
   89400    209.00593   -415.62701    135173.85   -41968.477    2600.4311   -44568.908     30.74985   0.92394715 
   89500    203.05023   -487.99096    135141.86   -41997.252    2526.3309   -44523.583    30.746533   0.92416584 
   89600    204.23076   -524.31881    135139.22   -42038.116    2541.0189   -44579.135    30.747735   0.92418388 
   89700    206.66858   -327.07182    135320.07   -42002.775    2571.3501   -44574.125    30.576888   0.92294876 
   89800    206.34241   -474.49591    135302.07    -41968.21    2567.2919   -44535.502     30.72397   0.92307157 
   89900    206.32951   -379.26826    135307.54   -42028.872    2567.1313   -44596.003    30.779045   0.92303425 
   90000     210.9528   -418.50972    135342.75   -41936.748    2624.6539   -44561.402     30.85114   0.92279409 
   90100    209.29978   -444.91107    135246.04   -41947.281    2604.0872   -44551.368    30.718987   0.92345399 
   90200    206.13927   -481.35939    135235.21   -41987.083    2564.7645   -44551.847    30.614388   0.92352794 
   90300    204.70903   -335.23787    135173.02   -41987.217    2546.9695   -44534.187    30.642011   0.92395283 
   90400    207.84797   -415.52239    135074.61    -41975.76    2586.0238   -44561.784    30.530704   0.92462594 
   90500    210.58256   -499.36259    134917.04   -41940.317    2620.0474   -44560.364    30.561564   0.92570586 
   90600    212.09202   -334.85093    135131.73   -41854.676     2638.828   -44493.503     30.81871   0.92423512 
   90700    211.85116   -298.16911    135058.57    -41852.26    2635.8312   -44488.091     30.75943   0.92473578 
   90800     208.7155   -333.33434    135172.81   -41878.376    2596.8176   -44475.193    30.615882   0.92395425 
   90900    207.47452   -429.20031    135276.34   -41970.062    2581.3775    -44551.44    30.589772   0.92324715 
   91000    203.90337   -456.21956    135155.17   -41980.791    2536.9455   -44517.737    30.732163   0.92407484 
   91100    206.71766   -423.66206    135216.95   -41964.567    2571.9607   -44536.528    30.686125   0.92365263 
   91200    209.34529   -422.31045    135257.33   -41918.609    2604.6534   -44523.262    30.767434   0.92337686 
   91300    210.35654    -390.1207     135169.3    -41826.36    2617.2352   -44443.595    30.939479   0.92397823 
   91400    212.04686   -384.25227    135171.93   -41794.254     2638.266    -44432.52    30.917956   0.92396022 
   91500    214.29609   -515.28302    135254.03   -41804.469    2666.2508    -44470.72    30.933403    0.9233994 
   91600     212.3522   -511.17488    135171.27   -41849.238    2642.0651   -44491.304    30.852738   0.92396478 
   91700    207.99363   -367.92986     135181.3   -41918.661    2587.8361   -44506.497    30.794023   0.92389622 
   91800    209.93574   -395.65263    135201.54   -41887.873    2611.9997   -44499.873    30.948822    0.9237579 
   91900    206.45256   -466.93551    135126.19   -41886.534    2568.6623   -44455.196    30.958456   0.92427302 
   92000     210.1404   -402.33032    135068.24    -41903.37     2614.546   -44517.916    31.154332   0.92466959 
   92100    209.21162   -339.91206    135164.64   -41941.121    2602.9903   -44544.111    31.114823   0.92401011 
   92200    209.48868   -432.97205    135125.86   -41882.781    2606.4375   -44489.219    31.124872   0.92427526 
   92300    211.19104     -382.052    135152.49   -41802.763    2627.6181   -44430.381    30.924775   0.92409315 
   92400    211.40963   -312.38828    135148.62   -41808.026    2630.3377   -44438.363    30.915445   0.92411959 
   92500    210.23988   -422.73042    135285.54   -41860.257    2615.7838   -44476.041    31.131592   0.92318436 
   92600    214.69498   -387.90791    135306.63   -41846.021    2671.2137   -44517.235     31.26696   0.92304047 
   92700     212.5953    -405.8731    135148.59   -41838.063    2645.0898   -44483.152    31.064898   0.92411985 
   92800    214.51592   -469.49667    135176.01   -41886.089    2668.9859   -44555.075    31.092225   0.92393235 
   92900     214.3412   -441.14747     135239.3   -41865.434    2666.8121   -44532.246    31.202231   0.92349996 
   93000    209.79032   -414.49881     135094.6   -41892.191    2610.1904   -44502.382    31.213391   0.92448913 
   93100    212.17746   -488.96052    135139.34   -41826.901     2639.891   -44466.792    31.321521   0.92418305 
   93200    210.68033   -320.52897    134971.49   -41836.153    2621.2639   -44457.417    31.223437   0.92533238 
   93300    211.62853   -264.53415    135152.86   -41855.966    2633.0613   -44489.028    31.099125   0.92409063 
   93400    208.93898   -352.12187    135040.09   -41887.291    2599.5981   -44486.889    31.001876    0.9248623 
   93500    207.60492   -340.28972    135086.79   -41933.723    2582.9999   -44516.722    31.167909   0.92454256 
   93600    206.14581   -417.26807    135072.78   -41996.718    2564.8458   -44561.563     31.31543   0.92463847 
   93700    205.22107     -404.749    135118.59   -41959.175    2553.3403   -44512.515     31.23017   0.92432504 
   93800    206.28964   -406.69347    134966.47   -41926.051    2566.6353   -44492.686    31.246679   0.92536681 
   93900    209.87919   -411.40549    134945.07   -41903.069    2611.2962   -44514.365    31.081613   0.92551356 
   94000    207.62328   -369.70544    134951.51   -41909.712    2583.2283    -44492.94    31.054327   0.92546942 
   94100    211.78722   -397.07866    134975.25   -41906.149    2635.0357   -44541.185    31.048514   0.92530663 
   94200    211.26111   -341.77194    134903.45   -41904.707    2628.4899   -44533.197     31.23578   0.92579906 
   94300    213.94388   -336.72551    134988.13   -41858.927    2661.8686   -44520.795    31.155164   0.92521832 
   94400    209.41864   -266.77749     135174.2   -41852.641    2605.5661   -44458.207    31.405459   0.92394473 
   94500    209.34889   -293.42582    135282.27   -41799.054    2604.6982   -44403.752    31.291925   0.92320668 
   94600    209.07371   -503.05858    135226.41   -41842.696    2601.2745    -44443.97    31.157201   0.92358801 
   94700    206.71809   -483.52221    135189.42   -41886.332     2571.966   -44458.298    31.198108   0.92384071 
   94800    212.40378   -318.67186    135234.26   -41879.911    2642.7068   -44522.618    31.155529   0.92353441 
   94900    208.58063   -529.67391    135174.11   -41848.332    2595.1396   -44443.472    31.281748   0.92394536 
   95000    212.94574   -464.46463     135270.2   -41831.477    2649.4499   -44480.927     31.36235   0.92328901 
   95100    213.61584   -296.14992    135206.65   -41833.275    2657.7872   -44491.062    31.390666   0.92372299 
   95200    211.44352   -376.29852     135144.8   -41851.536    2630.7594   -44482.295    31.249793   0.92414577 
   95300    213.89521   -417.52744    135159.48   -41751.577     2661.263    -44412.84     31.40526   0.92404534 
   95400    210.78786   -307.67022    135271.58   -41812.777    2622.6017   -44435.379    31.427062   0.92327961 
   95500    208.31914   -437.57852    135279.67   -41815.934    2591.8862    -44407.82    31.305751   0.92322441 
   95600    214.86403    -526.9358    135258.65   -41805.619     2673.317   -44478.936    31.403131   0.92336789 
   95700    212.00325   -367.10526    135134.96   -41873.157    2637.7235   -44510.881    31.438784   0.92421306 
   95800    211.93048   -492.48505    135244.02   -41923.502    2636.8181    -44560.32     31.55518   0.92346772 
   95900    213.59504   -421.73439    135386.97   -41879.134    2657.5283   -44536.663    31.596045   0.92249272 
   96000     211.9959    -277.5739    135369.45   -41950.234    2637.6321   -44587.866    31.451373   0.92261212 
   96100    210.38124   -358.55824    135246.64   -41902.479    2617.5426   -44520.022    31.444861   0.92344985 
   96200    209.86618   -390.28328    135374.56   -41943.378    2611.1342   -44554.512    31.484359   0.92257723 
   96300    210.69496   -366.01862     135443.7   -41896.979    2621.4458   -44518.425    31.545114   0.92210632 
   96400    212.05763   -323.21874    135438.31   -41876.887    2638.4001   -44515.287    31.665781     0.922143 
   96500    210.55789   -335.22943    135381.18   -41916.774    2619.7404   -44536.515    31.571186   0.92253217 
   96600    208.31734   -384.38624    135397.55   -41897.476    2591.8638    -44489.34    31.520229   0.92242064 
   96700     204.7888   -454.07167    135309.31   -41981.085    2547.9621   -44529.047    31.507515   0.92302214 
   96800    202.64448   -407.71072     135343.6   -42019.998    2521.2826   -44541.281    31.441867   0.92278831 
   96900    207.51374   -448.19838    135416.69   -41957.519    2581.8655   -44539.384    31.377362   0.92229023 
   97000    205.80508   -441.94239    135324.44   -41962.903    2560.6065    -44523.51    31.393121   0.92291894 
   97100    204.12743   -397.66343    135310.85   -41950.265    2539.7333   -44489.998    31.543007   0.92301163 
   97200    206.39727   -470.57331    135428.59   -41950.667    2567.9744   -44518.641    31.620793   0.92220917 
   97300    208.54577     -400.809    135326.89   -41950.576    2594.7059   -44545.281    31.608507   0.92290222 
   97400    208.29025   -392.75833    135408.67   -41946.191    2591.5268   -44537.717     31.46921   0.92234486 
   97500    211.08051   -339.51215    135353.16   -41856.886    2626.2429   -44483.129    31.433952   0.92272312 
   97600     208.7444   -482.91685    135422.08   -41928.882    2597.1772    -44526.06    31.499825   0.92225352 
   97700     210.4001   -463.34159    135423.71   -41865.546    2617.7772   -44483.323     31.62157    0.9222424 
   97800    213.26211   -441.33089    135376.09   -41847.516     2653.386   -44500.902    31.637565   0.92256684 
   97900    214.80303   -377.95357    135371.87   -41824.994    2672.5581   -44497.553    31.762136   0.92259562 
   98000    217.02372   -397.74147    135410.65   -41861.088    2700.1877   -44561.276    31.623527   0.92233136 
   98100    210.57293   -253.44237    135420.14   -41936.085    2619.9275   -44556.012    31.559339   0.92226677 
   98200    208.21698   -495.36269    135285.44   -41918.506    2590.6151   -44509.122    31.556695   0.92318502 
   98300    208.18058   -411.12756     135372.4   -41934.042    2590.1622   -44524.204    31.605848   0.92259199 
   98400    210.08538   -472.80952    135299.53   -41948.075    2613.8615   -44561.936    31.620011   0.92308887 
   98500    211.13947   -549.31568    135283.64   -41943.286    2626.9765   -44570.263    31.753266   0.92319729 
   98600    207.69941   -351.76427    135274.71   -41957.111    2584.1755   -44541.286    31.757799   0.92325824 
   98700    204.05444   -432.71303    135310.64    -42002.71    2538.8252   -44541.535    31.834611   0.92301307 
   98800    205.08746    -347.9437    135334.87   -41963.111    2551.6779   -44514.789    31.720666   0.92284782 
   98900    206.75834   -369.76792    135328.33   -41966.777    2572.4669   -44539.244    31.574168   0.92289243 
   99000    202.76078   -473.73183    135291.65   -42009.405    2522.7296   -44532.135    31.633937   0.92314265 
   99100    208.11344   -503.96362    135201.16   -41935.008    2589.3269   -44524.335    31.587436   0.92376051 
   99200    211.15576   -379.62935    135239.48   -41926.903    2627.1791   -44554.082    31.643212   0.92349877 
   99300    207.80409   -312.89233    135282.35   -41881.623    2585.4779   -44467.101    31.779602   0.92320612 
   99400    211.79647   -340.40105    135265.55   -41857.721    2635.1507   -44492.872    31.702467   0.92332078 
   99500    214.56406   -443.19465    135186.55   -41752.242    2669.5849   -44421.827    31.598181   0.92386032 
   99600    218.20931   -328.39004    135186.11   -41778.214    2714.9386   -44493.153    31.654857   0.92386335 
   99700    211.78759   -518.37339    135295.04   -41788.798    2635.0403   -44423.838      31.8178   0.92311952 
   99800    212.73743   -377.82204    135217.71   -41812.498    2646.8581   -44459.356    31.808666   0.92364742 
   99900    212.04182   -413.53522    135287.96   -41868.978    2638.2034   -44507.181    31.897597   0.92316783 
  100000    208.37726   -410.77907    135219.38   -41884.299    2592.6093   -44476.908    32.005576   0.92363602 
  100100    216.53983   -394.03475     135094.2   -41816.951    2694.1672   -44511.118    31.873339    0.9244919 
  100200    212.76539   -481.47274    134973.06   -41815.227     2647.206   -44462.433    31.869432   0.92532164 
  100300    215.00333   -277.01923    135038.27   -41799.381    2675.0502   -44474.431    31.791242   0.92487478 
  100400    211.39795   -417.81658    135090.06   -41837.058    2630.1924   -44467.251    31.905774    0.9245202 
  100500    214.49897   -311.98285    135125.19   -41764.844     2668.775   -44433.619     31.84733   0.92427984 
  100600     209.4102   -379.18515     135158.7   -41850.845     2605.461   -44456.306    31.897145   0.92405071 
  100630    209.63339   -331.89004    135141.88   -41831.051    2608.2379   -44439.289    31.866426   0.92416568 
Loop time of 71.036 on 6 procs for 100000 steps with 4175 atoms

Performance: 608.142 ns/day, 0.039 hours/ns, 1407.736 timesteps/s
98.3% CPU use with 6 MPI tasks x no OpenMP threads

MPI task timing breakdown:
Section |  min time  |  avg time  |  max time  |%varavg| %total
---------------------------------------------------------------
Pair    | 56.077     | 57.565     | 59.407     |  13.5 | 81.04
Neigh   | 4.7246     | 4.7563     | 4.7801     |   1.0 |  6.70
Comm    | 4.3328     | 6.1662     | 7.6247     |  41.0 |  8.68
Output  | 0.15862    | 0.15937    | 0.16272    |   0.4 |  0.22
Modify  | 1.7321     | 1.7563     | 1.7711     |   0.9 |  2.47
Other   |            | 0.6328     |            |       |  0.89

Nlocal:        695.833 ave         710 max         683 min
Histogram: 1 0 1 0 2 0 1 0 0 1
Nghost:        1442.50 ave        1461 max        1420 min
Histogram: 1 0 0 1 1 0 1 0 1 1
Neighs:        0.00000 ave           0 max           0 min
Histogram: 6 0 0 0 0 0 0 0 0 0
FullNghs:      18772.0 ave       19218 max       18344 min
Histogram: 1 0 1 1 0 0 1 1 0 1

Total # of neighbors = 112632
Ave neighs/atom = 26.977725
Neighbor list builds = 5187
Dangerous builds = 0

undump              1
unfix               2
unfix               3
unfix               4


################################################
#######         Run Simulation         #########
################################################

reset_timestep      0
log                 log.run_${NAME}
log                 log.run_liquid_density_MLmW
