LAMMPS data file via write_data, version 29 Oct 2020, timestep = 800000

4175 atoms
1 atom types

-0.676160198489228 50.67616019849043 xlo xhi
-0.676160198489228 50.67616019849043 ylo yhi
-0.676160198489228 50.67616019849043 zlo zhi

Masses

1 18.015

Atoms # atomic

73 1 0.2213310876221397 0.784687602374162 1.7236619877629802 1 0 0
3957 1 2.0273034845872258 24.15792210350232 -0.32751377436728746 0 0 1
2665 1 23.35831358966803 -0.675237021139715 1.0860979926374115 0 1 0
1561 1 5.518334896139832 1.469071280114266 2.2087412636378145 1 0 1
107 1 10.177225084820245 1.8146562847486272 1.093316877667528 0 0 0
1998 1 14.591311342381804 0.04281630788169244 0.3478648414869243 0 0 1
548 1 17.096189766393312 -0.36942748325202435 0.3870853778702008 0 0 0
3948 1 28.808806715925858 1.1142949915773974 1.1215246975668205 0 1 1
2807 1 31.290005235951465 1.019589787185612 2.229660021295856 0 1 0
2120 1 4.549358656656862 -0.4067227772161438 0.663955251816458 0 1 0
1781 1 35.58534635272423 0.5745231429112536 1.763035833798683 0 0 1
2628 1 39.82180103463493 1.2260895749809357 2.668931949142008 0 1 0
583 1 41.25463810018273 0.9067817929457469 0.0234359362612242 0 0 0
1583 1 47.224534969938965 15.001978365090112 -0.31957406698035873 0 0 1
1497 1 45.07826722890732 0.8752079153037007 2.4758073292342986 0 0 1
8 1 47.78894345932295 0.4883990133577836 2.006435082117734 0 0 0
2130 1 49.66909862840287 2.0683370914905868 0.044035114710590184 0 1 0
3611 1 2.9485143513992766 4.687961093694007 0.8385283086274835 1 1 1
502 1 3.6830980841309673 3.2433081457718926 3.302874182509383 0 0 0
704 1 7.354173048948194 2.8375768274456465 1.1593433337166565 0 0 0
2003 1 9.262766186960388 -0.38744501269890197 -0.5097087906373365 0 0 1
376 1 14.519454743355785 2.9734610851348307 0.2462689755425823 0 0 0
69 1 31.942359065319053 4.080005768355553 -0.30297434029647763 0 0 0
449 1 19.105391746187628 2.2315969207526485 2.0828790682750165 0 0 0
3810 1 22.48871435145784 4.802303386100204 2.5383041068213315 0 1 1
537 1 24.869304469305977 3.9155668046270575 2.648109180632401 0 0 0
2107 1 1.7686534335108322 21.530897320821097 -0.20399935653996298 0 0 0
2485 1 24.918137489284256 22.638820908692512 -0.14250295144538316 0 0 0
353 1 32.232884509290116 3.626710032202369 2.316166962401467 0 0 0
438 1 36.67999268377104 4.747578469953171 1.744060960615038 0 0 0
71 1 39.268591191073845 4.194711309401055 2.429022655703481 0 0 0
462 1 47.18478893488776 3.6545952625081 0.9283052170458483 0 0 0
3547 1 1.4575553283317055 6.676199880545884 1.4809079244794972 0 1 1
1490 1 5.090284028077645 6.2711667894914935 0.3448526500798319 1 0 1
12 1 5.942356621190539 6.97817385502813 2.933164246155862 0 0 0
1154 1 10.003629032935711 6.230485158666612 2.5809563593027174 0 0 1
1850 1 10.238525913177915 8.643194814754699 0.648315742481687 0 0 1
430 1 15.543810800441445 7.939571222110441 1.815116253509641 0 0 0
190 1 50.6311614355943 0.09528903355008711 8.454800321567134 0 0 0
1471 1 17.798973786134308 6.5521896100708075 1.4794610930353285 0 0 1
1565 1 20.365841904131187 7.92251008496835 1.0267851973824726 0 0 1
676 1 22.381997536364345 6.37140413226077 0.00909043605924853 0 0 0
440 1 25.506603533452576 8.142515115710745 1.0384144435878893 0 0 0
1 1 28.998325391486677 6.275729549757757 2.4884756620088684 0 0 0
1538 1 31.0061198250897 10.01930960020792 2.0933932557074155 0 0 1
2017 1 33.03671305226626 8.798674531498177 0.21708758023459274 0 0 1
241 1 41.46989169465821 4.839912088660132 0.919610617026416 0 0 0
1418 1 40.463345292446526 7.325084521539814 0.14579506661958463 -1 0 1
652 1 46.437820903502306 8.213064887762762 0.8956642484332327 0 0 0
3918 1 2.2233857207713843 9.227938847345277 0.4957524694657365 0 1 1
1906 1 47.916075829155325 6.016343677456653 1.8279443266738635 0 0 1
1469 1 22.90587483064329 16.033959810647993 -0.4077012474637412 0 0 1
2542 1 49.296941453905596 24.754439026212673 1.9086801216128304 0 0 0
409 1 4.391715854635485 10.788104212660567 1.1573658057966516 0 0 0
3594 1 42.39250682029923 18.97170824265118 -0.5351626269587703 0 0 1
392 1 6.686548418484768 9.523570998712177 2.1980485499645006 0 0 0
195 1 12.716936274519 12.035276607919744 2.5402215389564833 0 0 0
3893 1 11.062757658235164 5.955765798886894 -0.32329061381454244 0 1 1
1912 1 16.653113052019176 10.393766278515908 2.126763267674571 0 0 1
1491 1 18.16713904310583 12.223172589282859 0.04045922295762017 0 0 1
524 1 23.664283156748517 11.81665176034122 0.4173679306709548 0 0 0
317 1 28.229325671331612 9.124412111041178 1.816160884990886 0 0 0
456 1 35.302906301780695 10.211344408911373 0.02794424713293031 0 0 0
536 1 37.06926944689394 9.36106726216641 2.1707971317959123 0 0 0
1473 1 39.58873789391947 9.436621223726554 1.678447363966439 0 0 1
1733 1 40.12978297669253 11.638077268204379 0.40489785819609647 0 0 1
1970 1 45.00156305550437 9.738513606717062 2.6563446887528666 -1 0 1
420 1 49.930562710124576 9.533852940162447 2.564822981341049 0 0 0
2478 1 6.736018160564804 24.94079548603626 4.234502831061013 0 0 0
633 1 2.152563777707976 14.364750356778652 0.47226509142831063 0 0 0
1985 1 -0.07909682934680162 13.285319344261188 0.5713179173673661 0 0 1
1822 1 3.175977427129167 12.661922790005722 2.492705298737683 0 0 1
1819 1 10.741343316616701 13.606244253040764 1.297262045067556 0 0 1
1773 1 16.003807128801384 15.171832979315889 2.0351736325606216 0 0 1
1984 1 15.442546663389525 13.785491245931023 -0.434881972791176 0 0 1
570 1 22.45202321481857 14.130761993724036 1.4866247207971806 0 0 0
2655 1 25.37545259796474 3.410800965689579 -0.26951681632177693 0 1 0
351 1 27.31876918034918 12.885320340019488 1.7440527009015119 0 0 0
705 1 29.41821004458668 12.730746874042168 0.10809746549424948 0 0 0
2000 1 31.7358632168794 12.672551540823571 1.846840457625266 0 0 1
266 1 34.37933204460376 12.798465261554293 0.6622542475387589 0 0 0
411 1 36.423720869011525 13.26806246637441 2.5435138916420397 0 0 0
490 1 39.01374142181558 13.751192144553237 1.592289251333849 0 0 0
1705 1 44.58112626613263 12.313073630625638 1.6936256951927202 0 0 1
413 1 25.64060164840779 15.602058487938926 -0.6477033267937176 0 0 0
381 1 49.79696810361914 -0.3417771284873756 6.043333800472728 0 0 0
38 1 47.33555598458981 12.638338771098235 1.056201488642049 -1 0 0
1525 1 49.701727350348875 14.05040002195926 2.595414059272934 -1 0 1
513 1 2.0515009015636174 16.63881335713516 1.8097883666817691 0 0 0
1750 1 -0.4380714590407512 17.912448626911694 0.9184705347732325 1 0 1
634 1 4.387651495286235 17.78082059230447 0.5356371439929506 0 0 0
2100 1 6.533110766799461 16.21947659938967 1.2141232539583457 1 0 1
1413 1 8.73867278419422 17.53044366452291 0.61360665365281 0 0 1
477 1 11.201845562683326 16.196379116029085 0.95271279102662 0 0 0
2441 1 43.97560804402635 1.6869090837359293 -0.16539265332108266 -1 1 0
2065 1 21.096669316415735 17.97908214354678 0.7779664446357077 0 0 1
2420 1 20.218991743542876 23.981135523899514 14.80183896595244 0 0 0
1609 1 26.962924590348837 17.19942439925814 1.1404793328450868 0 0 1
555 1 29.553826408486223 18.132875231149864 0.40541822552810247 0 0 0
230 1 31.26087727343073 17.169882601772667 2.1989653609881343 0 0 0
1726 1 33.75320538598334 18.132765797940277 1.4228879470103397 0 0 1
1968 1 39.398169412088265 16.408139600931634 0.8225610027911541 0 0 1
4172 1 42.096157822050515 16.602064924751737 0.6755302041826985 0 0 1
1612 1 44.199266932019235 16.258100600577844 2.68353762301885 0 0 1
2522 1 46.834547436083646 17.010167574754455 1.3440837240927106 0 0 0
262 1 49.07149166554978 17.080569903137434 2.6988886907851293 0 0 0
3512 1 -0.47009871563275596 20.630887464769263 1.1740263083826143 1 0 1
1582 1 2.038682552077155 0.3296163247030208 -0.30194925773805276 0 0 1
1899 1 4.201521200312345 20.50950586510791 0.30394903570668463 1 0 1
2097 1 8.347935883931866 20.186412289915776 1.1133518166598335 0 0 1
2053 1 11.047278181081804 21.154872803865892 0.11332534842129971 0 0 1
2066 1 13.009276385089182 21.448291855111353 2.023113059908249 0 0 1
431 1 15.120897960182134 19.967691626071232 0.8583743303460494 0 0 0
422 1 17.621729999137628 21.024600052290552 0.38292841254662546 0 0 0
2068 1 23.112931044321588 19.77143179139831 0.6201231946296744 0 0 1
378 1 25.28811758550023 19.13057541636719 2.324016215970398 0 0 0
1485 1 29.222116547883882 20.766500791660047 0.3701656910013229 0 0 1
2324 1 31.46487372698222 21.9782182599717 1.9664021947204575 0 0 0
460 1 33.63967363528652 20.935834621011615 1.008824630088239 0 0 0
175 1 38.25902858494205 18.4161536411439 2.222131266250763 0 0 0
661 1 38.08497175137538 20.975642196449613 1.1841738948420644 0 0 0
139 1 42.52166914988523 21.075419678963673 1.502374665861264 -1 0 0
539 1 45.246899437644075 -0.45193609234938875 6.595111916206574 0 0 0
1412 1 46.16079739694849 21.50884940393879 -0.07629354445386494 0 0 1
300 1 29.81665240270418 10.380127312822387 16.03517747203607 0 0 0
1597 1 14.262867826103896 11.083205217853216 0.33004846278200173 0 0 1
3643 1 9.995928998151179 23.77856296491565 0.8977522258748885 0 0 1
1925 1 13.187380211959553 24.447860114095928 1.5243480877978368 0 0 1
544 1 47.01452586468034 23.661326881926353 14.651935549810595 -1 0 0
2071 1 22.243292283794485 22.373008183264886 -0.32353076560902 0 0 1
3729 1 21.113208392473453 23.072736375025404 2.1334142553674336 0 0 1
2146 1 49.6955318079719 24.836941020913027 10.964908713994804 -1 0 0
2334 1 26.51592468589939 21.271429612891204 1.4935951436741117 0 0 0
2286 1 9.108417239395113 -0.544667287495833 9.653731193725735 0 1 0
4081 1 35.80301113736167 22.50734155772657 1.8437985706488904 0 0 1
2180 1 40.32508558273242 22.74564858412643 1.3932987786699775 0 0 0
1649 1 44.95077725256112 22.730627536548475 1.8457130015083223 0 0 1
54 1 48.86719242228582 22.39071126729704 0.4062965624197703 0 0 0
1815 1 14.53187146731949 24.516345962753647 3.7848396286006496 0 0 1
1505 1 1.5678649471362855 1.7640140669152502 3.792392052396689 0 0 1
617 1 2.0190559995236197 -0.1926656258070616 8.248294291259986 0 0 0
394 1 6.213018343712952 0.05646193177288261 4.483580679384009 1 0 0
254 1 10.336135852949672 1.1684323325289694 5.724173254773313 0 0 0
1429 1 11.90787594810796 1.56220957869539 3.2961574633594015 0 0 1
2502 1 16.25024060311008 0.47666147842119067 4.373391706437489 0 1 0
606 1 18.14466352838749 -0.2722007584095057 2.740170464051028 0 0 0
1667 1 21.50784369762543 2.35200404614149 3.8659158907914417 0 0 1
2687 1 23.25241112933854 -0.1603134633877661 3.6834168775675318 0 1 0
2245 1 25.267787524105078 1.7067571613820216 3.8237522141731075 0 1 0
567 1 29.2200507923703 2.5587711278195764 5.56063950060146 0 0 0
647 1 42.602338001296545 12.532849777022177 -0.32920999527449907 -1 0 0
2790 1 41.53356248229793 24.25779244133198 9.398626975370338 0 0 0
535 1 36.540066556825046 -0.02281052297039865 5.675992801503698 0 0 0
2782 1 41.28220611112843 0.9408705576197094 4.9065292202535735 -1 1 0
3751 1 43.69116772574408 -0.5106247202743739 4.452715196138713 0 1 1
3455 1 35.16081958568554 24.594829991273535 15.920262880614267 0 0 0
2469 1 49.52836443779826 1.3747349975757377 4.261236833806469 0 1 0
2458 1 -0.35374872827463294 4.132066952572828 4.7412314062215986 0 1 0
318 1 4.51530831080997 4.107754838274157 5.701786399217542 0 0 0
2005 1 7.636999740239503 4.672980126122202 3.272738089527337 0 0 1
2353 1 6.5099849492651645 2.195230272385781 6.422727685656055 0 1 0
649 1 8.70738567710612 3.4061185819698956 5.507733740043967 0 0 0
1979 1 13.592038906905321 3.487894565059146 2.7201544719202864 0 0 1
416 1 12.194316348809187 5.83512714137515 4.003989096741736 0 0 0
1918 1 15.842169826062623 3.1694231041105803 4.479490180094165 0 0 1
452 1 18.032556742712885 4.440138968681988 3.2509154663706634 0 0 0
1405 1 19.521756117259034 5.365272161634187 5.33736175523677 0 0 1
94 1 26.344562573835745 5.466911591636882 5.841402387162795 0 0 0
3597 1 26.552343854951854 2.3702288995242364 6.125156054797496 0 1 1
291 1 30.669898893933443 4.854027101859769 4.335562781431702 0 0 0
1760 1 34.77297376466578 2.983756255146707 2.9552576361932554 0 0 1
2195 1 35.12406994047206 3.0068610803146356 5.583107362686807 0 1 0
281 1 39.504626806659424 4.9786492904844275 5.482456937505073 0 0 0
1683 1 42.898002695347 5.363085952008297 3.253707553000479 -1 0 1
464 1 42.06305614092322 3.71653899639072 5.181752900441913 0 0 0
451 1 45.34214367857391 3.574125348003828 3.3047627041013805 0 0 0
167 1 47.15380562787941 4.114842458183603 5.380552447995702 -1 0 0
155 1 1.5737362625688882 6.474457579521653 4.487538913235365 0 0 0
3029 1 0.3912858472960703 9.022840558112014 4.272661612272154 0 1 0
2507 1 4.42549647169578 6.737321785723387 5.087888476810246 0 1 0
1495 1 10.068259142297238 8.918634378299755 3.5824360304996308 0 0 1
690 1 13.983818885424531 7.84312842961546 4.173399653261214 0 0 0
89 1 18.066985472859592 7.84814270982932 5.958719980524976 0 0 0
1719 1 22.06536558360294 6.449929643739214 4.60278309591307 0 0 1
1972 1 21.548673743090145 8.937598108908242 3.3818302433556404 0 0 1
365 1 26.42736062863783 6.150441536517832 3.0234203056532523 0 0 0
1729 1 32.07079096827459 7.081221640576112 5.605709819405059 0 0 1
2435 1 34.78419744769645 5.976225465433706 5.526797835005617 0 1 0
148 1 36.36260321038004 6.962557360900801 3.320510846141005 0 0 0
42 1 38.76105143983878 7.70815213102002 5.272428074016159 0 0 0
140 1 43.565429055223106 8.083141850693654 4.130387677775087 0 0 0
1778 1 48.969042372665605 6.0429546567561605 4.385772931702152 -1 0 1
2052 1 1.5466919678926159 11.631354193477204 4.29756508496141 0 0 1
476 1 7.986777858614612 10.875831075967415 4.173075151341593 0 0 0
1555 1 12.465055509513322 9.971320420253589 4.289302442977049 0 0 1
530 1 17.68940641946966 10.50407920998033 4.695987391739878 0 0 0
115 1 20.309385694964426 11.538402403832306 4.417027773837223 0 0 0
1783 1 23.880773769082662 10.043881998017865 2.6166685039863244 0 0 1
492 1 25.12482580988229 11.132719901989587 4.919289026444588 0 0 0
660 1 27.81146161411308 11.308785493072358 4.1463503060271165 0 0 0
306 1 29.553446373874017 10.547567582344488 6.368490507355235 0 0 0
66 1 31.736564087078868 9.709194498328515 4.903416865278068 0 0 0
181 1 33.79889947647504 11.500305989535237 5.451891109837784 0 0 0
292 1 36.328359321850755 11.08350261642538 4.287072354609665 0 0 0
575 1 40.816822952551924 9.035191862300566 4.196321820955805 0 0 0
1820 1 40.61988406312873 11.52805848058055 5.357466623937305 0 0 1
332 1 46.4068666655982 10.570581661408898 5.471216021826332 0 0 0
215 1 48.8177270734667 11.545681277120378 3.8234392649163995 -1 0 0
453 1 4.8979122842564475 13.894173812139213 4.312088277304501 0 0 0
626 1 7.048102907799944 15.313896763934734 3.719775624093299 0 0 0
1527 1 8.962768584316123 13.301360726118947 3.3639484079162996 0 0 1
439 1 10.756330861450456 13.714301840926748 5.763445560647895 0 0 0
31 1 12.873772559204367 15.422825298369816 5.395568381613475 0 0 0
113 1 14.585553048498912 13.72738129863902 3.960879670224152 0 0 0
572 1 16.430120175327552 12.550407699892606 5.573968906157756 0 0 0
350 1 19.873029656995445 13.142687602296988 2.096304650666592 0 0 0
474 1 23.954646244471213 15.044218958142567 3.74639504441423 0 0 0
678 1 23.790569093366678 13.350367793084377 5.774543520340609 0 0 0
2 1 28.639495749250536 14.014012146023543 4.665646987093132 0 0 0
201 1 26.611899120039173 15.530768954461802 3.2980401842293436 0 0 0
675 1 30.78917243318009 14.666566757844576 3.3595688164928754 0 0 0
192 1 33.17000179733773 14.41176862775399 5.04557381736678 0 0 0
361 1 37.46967270337992 14.609603088854783 6.383444098246058 0 0 0
471 1 40.646577861938006 13.92737826619723 3.969130485694744 0 0 0
463 1 43.36996669952259 13.784861447283308 3.7801199937172827 0 0 0
359 1 44.5384700095358 12.494278306286278 5.977556449437539 0 0 0
648 1 -0.17440433855462323 13.474204958085242 4.825359749224827 0 0 0
1680 1 1.1981469071882735 15.359107559307752 6.114937793572735 0 0 1
2116 1 3.150158654545987 15.979458357254714 4.331094177192151 0 0 0
170 1 4.407454026729374 17.971721256960425 5.696778740215484 0 0 0
398 1 7.0705207362323375 17.242303076682717 5.634797254492139 0 0 0
1761 1 12.43056234671612 17.121477891573065 3.3403382035106324 0 0 1
171 1 11.322139514658204 18.850641655636274 5.278328238258297 0 0 0
1808 1 14.89465903554485 17.838226202684492 2.5520493409467893 0 0 1
1794 1 16.382608490983525 18.679570615645666 4.647840963393739 0 0 1
22 1 18.67541394669883 15.185148384146334 3.1504204986103073 0 0 0
1916 1 20.03918203326947 17.403755684381615 3.5455201694637344 0 0 1
651 1 22.55230928423344 17.287448387800456 4.975198715194043 0 0 0
1204 1 27.957381498815124 17.321300657249594 5.2817020624545865 0 0 0
1304 1 30.508387772391615 18.309543382415733 4.593108919767409 0 0 0
503 1 35.679055468330326 15.226515382284106 4.062551252194005 0 0 0
63 1 35.794605812655725 18.128044075070797 3.2896816422044055 0 0 0
405 1 40.02686767333856 15.718612405958861 5.8101258132222595 0 0 0
37 1 44.13865857620712 18.212792161931475 4.878601229935699 0 0 0
631 1 1.0381137959736912 21.418019108952638 5.810752000883335 1 0 0
672 1 4.807583555654679 21.231132248813662 2.857331799299314 0 0 0
1847 1 3.807294076629945 20.566775075977052 5.35293441045817 0 0 1
1779 1 7.7614310781395215 21.098707036867644 3.493670493534612 0 0 1
311 1 8.593905207251659 19.71265531971761 5.578059514409456 0 0 0
1699 1 12.761741687421011 21.16666331101235 4.618817141170772 0 0 1
622 1 15.380593051677419 21.110384627037465 5.535868562795784 0 0 0
512 1 19.06203359208789 19.77651311397889 4.305843978523759 0 0 0
516 1 23.252653160288514 21.716652981653457 5.777444221335089 0 0 0
1618 1 24.290578428286523 19.478270162869215 5.017001373391335 0 0 1
568 1 26.507510696058166 19.41079871412649 6.309828725218137 0 0 0
560 1 27.99637028171007 21.725177175143788 5.303638109820038 0 0 0
2461 1 30.362477921692175 20.975782707319237 4.271886388822375 0 0 0
383 1 34.88716181796938 19.547011597153727 5.510590542576453 0 0 0
243 1 39.67676427492665 18.37898757509334 4.677260761414309 0 0 0
2265 1 41.89476162491832 19.8672748277044 4.10697077574493 0 0 0
168 1 46.482396249200356 19.838596519208522 5.575484940931724 0 0 0
284 1 50.349531405256556 21.11739094120557 3.869493175434534 -1 0 0
59 1 48.90439153797003 18.898004277370333 4.574394481653118 -1 0 0
2089 1 4.413676418090292 23.973837126255727 2.701187756655278 0 0 1
186 1 9.14290288403843 23.341877517099306 3.5496759439581806 0 0 0
709 1 11.09194713009096 23.222925781855416 5.569750291171391 0 0 0
112 1 16.95396421954676 23.27584502968842 4.590667827041542 0 0 0
2361 1 18.614274252888006 21.94830769170962 2.6577227164024477 0 0 0
2570 1 22.543670849181577 23.95637583786145 4.503531698492667 0 0 0
2780 1 27.27257482810697 23.336518820748115 3.2263080274810396 0 0 0
2708 1 32.29414181254636 22.76185225411293 5.464178337066888 0 0 0
261 1 34.8094047095685 22.285358016543643 4.756731535406832 0 0 0
2231 1 36.67976213850417 23.899395826017052 6.425628712660359 0 0 0
2553 1 40.681993739373226 24.506301460301312 3.7301508772207326 0 0 0
46 1 42.020919040646824 22.37062012446287 5.232050422747864 0 0 0
2311 1 46.2762612809904 22.09929590126164 4.219965897423965 -1 0 0
65 1 44.54518919137786 23.3802374526705 6.009435297365502 0 0 0
827 1 48.63854081044191 23.374238104036284 4.050738037599428 -1 0 0
2459 1 31.566937080397096 24.56186038749231 2.359299598452573 0 0 0
1443 1 25.97953838721746 12.701779313963991 -0.6234825305025994 0 0 1
326 1 2.701019877781739 1.9033773870938808 9.479224837063946 0 0 0
2283 1 5.636022902054373 1.9596282102367097 9.135500680321655 1 1 0
3212 1 50.23540924584483 -0.6247457068256996 14.660678325373112 -1 1 0
48 1 11.303530366567719 0.6473504074962511 8.273624295500076 0 0 0
2816 1 15.606903625834388 0.5017479879629645 8.77952401225902 0 1 0
2539 1 14.845949163036284 3.060398619438224 9.129611179961861 0 1 0
686 1 17.47066449238148 0.18912627515520986 6.762480258755164 0 0 0
233 1 20.0050525427427 0.8987218315386118 8.33962030217974 0 0 0
116 1 20.901027559391196 2.988584417257816 6.533810010856207 0 0 0
576 1 24.943440442170434 1.7113912078940894 8.538964339128839 0 0 0
2577 1 27.687770460396237 -0.4163773881003637 6.9291509304283485 0 1 0
582 1 29.619271287037368 -0.34796028123369366 8.910021578510829 0 0 0
162 1 33.12234224612142 1.8096632245089044 7.42368005455284 0 0 0
2762 1 4.759849668228858 24.738387471964746 -0.06981045531636298 0 0 0
293 1 38.99590989142702 0.5242069850418614 9.476466329655803 0 0 0
2456 1 44.91590245636331 1.800993119930086 8.705467364610286 0 1 0
191 1 48.15850816783991 10.116732028209238 -0.30776314697622603 -1 0 0
216 1 47.28229901866353 1.8101931225568353 6.781918600084778 -1 0 0
2430 1 49.137683079055556 2.53892339356624 8.809304269989868 0 1 0
712 1 -0.1825698068531465 4.058385914910012 7.673226768796551 1 0 0
196 1 2.521781352699526 4.173806757367672 8.087554647608858 0 0 0
92 1 5.937641295850121 5.049009323652201 9.090436998602737 0 0 0
70 1 11.627694145493303 5.383736235606717 9.222293724331061 0 0 0
97 1 12.117022570720295 2.6094082279761457 9.967843208270697 0 0 0
319 1 15.72934244360048 4.293647091666224 6.819695899338161 0 0 0
328 1 18.446451475983608 4.272236759105022 7.806240825353939 0 0 0
95 1 22.97392731761 3.764280113006623 8.040179366889825 0 0 0
663 1 30.51390841262842 2.395191355610478 7.995048010790887 0 0 0
144 1 30.731975627065143 5.3958710931797045 7.806566263122292 0 0 0
425 1 37.77717199291229 3.1646997380739363 6.516847765683117 0 0 0
624 1 36.80436566701638 4.287758002086298 9.21050217656456 0 0 0
2398 1 43.46013876837381 3.9705102747162453 7.627714598409373 0 1 0
164 1 1.544833646966012 7.537355661798742 9.003397708149773 1 0 0
468 1 50.433416909379105 6.741373333388783 8.256038502612192 -1 0 0
2129 1 3.0112718863583092 8.749780804860073 6.869063352867936 1 1 0
193 1 5.2838062788770594 9.069907719199536 8.450195296301777 0 0 0
592 1 6.643377897597227 6.955856410484279 7.1076524718626075 0 0 0
627 1 10.723250911724245 5.474694428219731 6.504976396468611 0 0 0
1851 1 9.223040635560023 7.71658874250144 6.070240109595614 1 0 1
80 1 13.933807085926272 7.378820511693922 8.652055166900844 0 0 0
354 1 15.41910523290819 6.771113901798225 6.271778658052816 0 0 0
465 1 18.83192597762738 8.27231224098216 8.70468276728109 0 0 0
670 1 23.742533082870914 6.15471178003916 6.831447655320222 0 0 0
410 1 23.62290261547958 8.048710443333645 8.70156901561431 0 0 0
3246 1 27.922015013045684 6.0587837234968855 8.061529746573097 0 1 0
220 1 32.240138219006 6.521331538646333 9.565379795339512 0 0 0
958 1 34.433478170559205 7.475081343142364 8.156407693930603 0 0 0
249 1 38.401805001658495 7.9274010088652975 8.083426522458597 0 0 0
174 1 36.49673103660799 7.077359685192399 9.997672613808735 0 0 0
669 1 40.85035502237897 7.8188458932309075 9.522098230567828 0 0 0
294 1 45.03411266469245 8.096968863961246 6.489384339918498 0 0 0
222 1 45.72402634540413 5.50932276462424 7.293018450879705 0 0 0
2532 1 49.792213708354275 8.233876163717724 6.158298767147088 0 1 0
564 1 2.347625884823649 11.417419574186686 6.7962973322479545 0 0 0
447 1 6.8039389450676735 10.86991634896832 6.812242501367787 0 0 0
628 1 8.913964414648904 11.454776880258612 8.922283082515913 0 0 0
375 1 10.38416238182811 9.365035142297618 7.97325474603478 0 0 0
32 1 12.189744592386717 11.2502101251416 6.80047511851047 0 0 0
665 1 13.54745893568354 10.384210611445912 8.906272215819 1 0 0
333 1 15.741706228050642 11.976789766055873 8.465854932600298 0 0 0
522 1 21.226899761185642 9.840297661135047 8.351057521697568 0 0 0
286 1 21.64288182118038 12.16559947907037 6.497170490641422 0 0 0
563 1 25.453680067690513 10.309648303270919 7.647828176165717 0 0 0
1238 1 25.8519819088796 12.672839857482922 9.592972797515877 0 0 0
1115 1 27.932365429291345 8.770196229291283 8.025629628243017 0 0 0
600 1 34.62460568083604 10.286138216027748 7.92938256800471 0 0 0
1567 1 37.41063190207892 10.265328861694353 8.371450684287723 0 0 1
594 1 42.99989369499156 9.061231786198576 8.381852170078368 0 0 0
1301 1 48.487702270422794 10.220305757377687 7.257697821147125 -1 0 0
519 1 0.3793045931768051 12.23010572337025 8.528468708313799 1 0 0
377 1 1.6244966846535531 14.613034687088213 8.752642065315193 0 0 0
343 1 4.708736188391308 12.715635206799774 6.662092738961702 0 0 0
1147 1 4.350776687570194 14.018652123373794 9.12500745285997 0 0 0
547 1 10.09256242441494 14.044687771173692 8.38029702900979 0 0 0
296 1 18.22791988026761 14.532271444657713 5.677743180979572 0 0 0
135 1 19.86740180919047 14.120954995881672 7.668117487671097 0 0 0
100 1 25.481966832941104 14.793829170366749 7.60819106641717 0 0 0
534 1 29.792964826951884 13.066233906848005 7.5535886999535045 0 0 0
691 1 31.920171850721317 13.73520837329702 9.025353363283656 0 0 0
538 1 38.07856160711851 11.954166285359916 6.296474659834708 0 0 0
751 1 41.670881334168065 13.56442426767753 9.577013611561654 0 0 0
636 1 42.25473028741536 11.819213331820821 7.482089003721729 0 0 0
10 1 45.33577686734289 14.550094315016096 7.5244812857367425 0 0 0
187 1 49.76037185401366 12.901430238485128 7.008173990241993 0 0 0
505 1 47.699883321735236 14.29678599034745 8.814038596558749 0 0 0
340 1 -0.5547005065519315 17.821993632616945 6.206815027108849 0 0 0
127 1 4.333568661100646 17.674230405874653 8.583095870116093 0 0 0
640 1 8.46560332448975 16.14656630562153 8.306452391824175 0 0 0
1016 1 9.990351720155351 18.35987825399785 9.404669857777446 0 0 0
554 1 14.388650046719425 16.412851177187363 7.708881634653906 0 0 0
203 1 12.26780576617699 18.339360652831324 7.955969476709766 0 0 0
370 1 16.924800130179285 16.759006239893388 6.669267141027102 0 0 0
1134 1 17.942575807646445 18.443684048576547 8.729572968497827 0 0 0
239 1 21.49451905416122 16.41511403040952 7.491570939626721 0 0 0
247 1 23.65375429498472 16.510171809055816 8.954812044457146 0 0 0
85 1 28.19219926701811 15.501780553351647 7.473891024378737 0 0 0
271 1 33.24403593174624 15.605307956033428 7.396445667509537 0 0 0
329 1 35.960714784121194 15.493906654446 8.418974653517235 0 0 0
2141 1 37.155324522150345 17.98341851873738 8.46970480697683 0 0 0
489 1 41.50309673956267 16.124806230764747 8.285220696422247 0 0 0
402 1 43.94569758645917 16.88971541082442 7.225217161248614 0 0 0
64 1 49.32569470667963 16.756674305214275 8.682149118726567 0 0 0
637 1 0.21386031682249618 19.924109566511632 7.862931205268257 1 0 0
238 1 5.75267612322128 20.081327146088597 9.230468028053233 0 0 0
2690 1 8.304475454732762 20.52191978354626 8.288998608915742 0 0 0
1258 1 13.272891424320184 20.437263827034172 9.325326008727282 0 0 0
521 1 15.468341237683642 21.741291332464208 8.345003167377497 0 0 0
28 1 20.556877464507966 20.77703819345197 6.226097424839047 0 0 0
1005 1 20.547049452911473 18.900231634368538 8.378588328342536 0 0 0
101 1 26.00075532768995 20.35156216554851 8.876489630994179 0 0 0
2565 1 32.08283060904939 19.515166447675057 8.90775318344976 0 0 0
1877 1 32.604653529411465 18.093926360943414 6.778957679546686 0 0 1
681 1 37.56955840872693 19.574315363463064 6.351361587497594 0 0 0
331 1 43.938596174258905 18.78586802777861 9.000278854082579 -1 0 0
161 1 41.607083340867945 19.917359116281204 9.45393565314263 0 0 0
2316 1 45.96975735247378 20.50156716841762 8.037481244370268 -1 0 0
515 1 47.93449789211999 19.24146459292608 9.564200643417209 0 0 0
602 1 0.6995138703076575 24.113184285384346 6.785821549769004 0 0 0
297 1 2.8597386817302413 21.743474573385924 9.316726448667271 0 0 0
205 1 5.071259734916169 22.01112724536925 7.148853077758256 0 0 0
2246 1 5.795915844563054 24.64631674434228 6.793383925943279 1 0 0
278 1 45.23190274848339 21.507031565284098 13.93086022037457 -1 0 0
142 1 9.81722019427195 22.819022718509256 7.850415641123547 0 0 0
1886 1 19.641700471559446 10.13171260857419 -0.3128418805694611 0 0 1
549 1 15.53795926565471 24.43836316169783 9.206724770822955 0 0 0
145 1 19.06248453704423 23.008030413120437 6.708123939479634 0 0 0
335 1 19.69883635458653 22.847929938955627 9.337023402780542 0 0 0
2761 1 49.36849177085101 24.979078349844492 6.074256228640492 0 0 0
2027 1 24.02721615700314 22.441337599737228 8.271163829014315 0 0 1
2381 1 28.303897226793122 24.056032464735264 6.972107976307267 0 0 0
2366 1 29.809641448852528 23.311532844625383 9.32645111180156 0 0 0
60 1 32.302943138464315 22.227067092188104 8.449182878035185 0 0 0
2118 1 38.24944260359057 21.74577957364325 7.7124076087624385 0 0 0
418 1 40.944995147032735 22.092459162507755 7.7106768010619735 0 0 0
96 1 30.685025770249222 0.4524746954623815 4.74906240683421 0 0 0
344 1 45.88157184485719 23.029599019577848 8.452793798362977 -1 0 0
666 1 48.54825515981901 23.67155330081804 8.589149568998666 0 0 0
3156 1 17.000110747348376 3.2573012575683786 16.311745092256842 0 1 0
1149 1 0.9330278612194136 2.739048997852096 11.752065745720655 0 0 0
57 1 7.261847840766578 1.0667723980698407 10.995131108660935 0 0 0
639 1 11.490970925459546 1.407176840673852 12.63028051467961 0 0 0
2593 1 17.90573977680755 1.6462956032722507 12.513632350089164 0 1 0
605 1 20.32586319529153 1.9116761888366152 10.937400415825081 0 0 0
2707 1 22.27210722012104 0.9585334038776621 12.696014350562907 0 1 0
130 1 29.077099471139636 1.9056963570674132 10.714672274209274 0 0 0
586 1 34.86574899289088 0.3988994650967699 11.179819750015879 0 0 0
865 1 42.740645238052984 1.9607756233786051 12.692291798679133 -1 0 0
242 1 44.38340492112407 0.17220334360193645 10.899483534894726 0 0 0
2808 1 46.59350234826509 2.8940618057365 10.778577665801189 0 1 0
412 1 16.785995650497668 4.5034312617908805 -0.32613987710257963 0 0 0
246 1 20.110482090103066 11.753645376778298 15.946778226843502 0 0 0
314 1 3.104386772588413 4.348919981514196 12.598070333929476 1 0 0
264 1 7.471470145260916 3.3918297087774185 12.714506200981354 0 0 0
2447 1 7.417519890307393 5.692850189806785 11.39151194137224 0 1 0
173 1 15.929994114416594 3.4543334381647695 11.658845959518827 0 0 0
5 1 21.724574417778836 4.273572353045171 10.314460438384623 0 0 0
461 1 23.185641300478313 5.120479397491103 12.593970945099189 0 0 0
532 1 24.420281278817157 2.6727018451165336 12.385999649078439 0 0 0