
# Create simulation box of size 50 x 50 x 50 Angstrom
#
lattice	            sc 1
Lattice spacing in x,y,z = 1.0000000 1.0000000 1.0000000
region 	            all block 0 50 0 50 0 50 units box
create_box          1 all
Created orthogonal box = (0.0000000 0.0000000 0.0000000) to (50.000000 50.000000 50.000000)
  1 by 2 by 3 MPI processor grid

# fill box with 4169 randomly distributed atoms
#
create_atoms        1 random 4169 63782 all
Created 4169 atoms
  create_atoms CPU = 0.001 seconds
mass                1 18.015

# Define potential
#
pair_style          sw
pair_coeff          * * ML_mW.sw mW
Reading sw potential file ML_mW.sw with DATE: 2019-02-27

# Run minimization
#
minimize            1.0e-8 1.0e-8 10000 1000
WARNING: Using 'neigh_modify every 1 delay 0 check yes' setting during minimization (../min.cpp:187)
Neighbor list info ...
  update every 1 steps, delay 0 steps, check yes
  max neighbors/atom: 2000, page size: 100000
  master list distance cutoff = 6.0032907
  ghost atom cutoff = 6.0032907
  binsize = 3.0016454, bins = 17 17 17
  1 neighbor lists, perpetual/occasional/extra = 1 0 0
  (1) pair sw, perpetual
      attributes: full, newton on
      pair build: full/bin/atomonly
      stencil: full/bin/3d
      bin: standard
Per MPI rank memory allocation (min/avg/max) = 4.255 | 4.258 | 4.261 Mbytes
Step Temp E_pair E_mol TotEng Press 
       0            0    7783778.6            0    7783778.6    5891538.7 
     630            0   -45100.671            0   -45100.671   -33.645425 
Loop time of 1.17779 on 6 procs for 630 steps with 4169 atoms

99.2% CPU use with 6 MPI tasks x no OpenMP threads

Minimization stats:
  Stopping criterion = max force evaluations
  Energy initial, next-to-last, final = 
       7783778.6045464  -45100.6138394717  -45100.6714481628
  Force two-norm initial, final = 2.0191929e+08 1.9154294
  Force max component initial, final = 1.0948746e+08 0.55224559
  Final line search alpha, max atom move = 0.074060414 0.040899537
  Iterations, force evaluations = 630 1001

MPI task timing breakdown:
Section |  min time  |  avg time  |  max time  |%varavg| %total
---------------------------------------------------------------
Pair    | 0.87096    | 0.98779    | 1.0535     |   6.8 | 83.87
Neigh   | 0.023571   | 0.024916   | 0.026727   |   0.6 |  2.12
Comm    | 0.07753    | 0.14323    | 0.26189    |  18.0 | 12.16
Output  | 0          | 0          | 0          |   0.0 |  0.00
Modify  | 0          | 0          | 0          |   0.0 |  0.00
Other   |            | 0.02185    |            |       |  1.85

Nlocal:        694.833 ave         711 max         678 min
Histogram: 1 2 0 0 0 0 0 1 0 2
Nghost:        1484.33 ave        1523 max        1464 min
Histogram: 2 1 0 1 0 1 0 0 0 1
Neighs:        0.00000 ave           0 max           0 min
Histogram: 6 0 0 0 0 0 0 0 0 0
FullNghs:      19864.7 ave       20554 max       18883 min
Histogram: 1 0 0 2 0 0 0 0 1 2

Total # of neighbors = 119188
Ave neighs/atom = 28.589110
Neighbor list builds = 26
Dangerous builds = 0

# Add velocity/set timestep
#
velocity            all create ${TEMP} 120598 rot yes dist gaussian
velocity            all create 295 120598 rot yes dist gaussian
timestep            5.0

# Define output
#
compute	            1 all msd
thermo	            100
thermo_style        custom step temp press vol etotal ke pe c_1[4] density

# Neighbor lists
#
neigh_modify        delay 0 every 1 check yes

# Set fixes
#
fix                 1 all momentum 10 linear 1 1 1 rescale
fix                 2 all nve
fix                 3 all temp/csvr ${TEMP} ${TEMP} 500.0 928347
fix                 3 all temp/csvr 295 ${TEMP} 500.0 928347
fix                 3 all temp/csvr 295 295 500.0 928347
fix                 4 all press/berendsen iso ${PRES} ${PRES} 1000.0 modulus 20000
fix                 4 all press/berendsen iso -500 ${PRES} 1000.0 modulus 20000
fix                 4 all press/berendsen iso -500 -500 1000.0 modulus 20000

# Run 0.5 ns equilibration
#
dump                1 all custom 1000 eq.${NAME}.dump id type x y z vx vy vz
dump                1 all custom 1000 eq.liquid_295K_500atm_ML.dump id type x y z vx vy vz
run                 100000
Per MPI rank memory allocation (min/avg/max) = 3.506 | 3.508 | 3.511 Mbytes
Step Temp Press Volume TotEng KinEng PotEng c_1[4] Density 
     630          295    1306.6695       125000   -41435.587    3665.0848   -45100.671 2.1849767e-33   0.99771203 
     700     184.3974   -119.20017    126249.85   -40282.911    2290.9563   -42573.867   0.37275369   0.98783489 
     800    225.89772   -486.68115    126552.24   -39192.517    2806.5569   -41999.074   0.93244622    0.9854745 
     900    251.47186   -433.33539    126771.14    -38514.91    3124.2905     -41639.2    1.5674044   0.98377285 
    1000    263.82102   -439.93267    126692.45   -38042.025    3277.7166   -41319.742    2.3634916   0.98438385 
    1100    278.70747   -464.29431    126867.06    -37716.88    3462.6662   -41179.546     3.243549   0.98302903 
    1200    277.08353   -409.63378    127136.43   -37687.246    3442.4903   -41129.737    4.3145703   0.98094621 
    1300     278.3645   -488.46533    127117.39    -37580.04    3458.4051   -41038.445    5.3675765   0.98109315 
    1400    284.34494   -471.66719    127257.33   -37511.424    3532.7061    -41044.13    6.4590803   0.98001427 
    1500    285.36588    -437.2593    127264.17   -37382.706    3545.3903   -40928.096     7.599461   0.97996166 
    1600     290.6004   -637.51419    127170.02   -37210.074    3610.4241   -40820.498    8.6204536   0.98068714 
    1700     290.0212   -456.30815    127077.93   -37198.472    3603.2281     -40801.7    9.7949942   0.98139782 
    1800    288.70148   -166.62406    127479.56   -37255.248    3586.8318    -40842.08    10.917763   0.97830586 
    1900    284.20783     -804.853    127550.86   -37191.267    3531.0027    -40722.27    11.991512   0.97775904 
    2000    297.91186   -452.91162     127521.8   -37121.235    3701.2619   -40822.497    13.185176   0.97798179 
    2100    293.69455   -627.94694    127229.67   -37030.459    3648.8658   -40679.325    14.287263   0.98022732 
    2200    289.52445   -518.45007    126916.98   -37043.732    3597.0565   -40640.788    15.484886   0.98264236 
    2300     293.9142   -394.09844    127000.64   -36981.825    3651.5948    -40633.42    16.562988   0.98199509 
    2400    295.33979   -467.00885    126961.71   -36973.015    3669.3063   -40642.321    17.794875   0.98229615 
    2500    296.55197   -518.93006    127137.81    -36882.81    3684.3665   -40567.177    19.050243    0.9809356 
    2600     301.0577   -325.30263    127368.33    -36808.78    3740.3457   -40549.126    20.348548   0.97916024 
    2700    301.81862   -897.77005    127215.27   -36864.354    3749.7994   -40614.153    21.660706   0.98033834 
    2800    297.73641   -625.13937    127078.42   -36851.754     3699.082   -40550.836    22.647893   0.98139402 
    2900    297.35069   -409.45476    127379.95   -36942.918    3694.2899   -40637.208     23.85002    0.9790709 
    3000    293.10227   -792.21658    127542.42   -36961.741    3641.5074   -40603.248    24.878279   0.97782375 
    3100    291.81909   -320.89386     127554.3    -36898.06    3625.5651   -40523.625    25.890049   0.97773261 
    3200    296.00407   -410.45065    127626.05   -36947.082    3677.5593   -40624.641    26.977968   0.97718295 
    3300    293.64049   -589.57152    127613.18   -36939.171    3648.1942   -40587.366    27.863079   0.97728152 
    3400    291.13617   -810.18801    127435.52   -36985.555    3617.0805   -40602.636    28.977859   0.97864397 
    3500    290.05804   -456.84069    127073.76   -37021.634    3603.6858    -40625.32    30.088149      0.98143 
    3600    294.52086   -403.98692    127205.66   -37076.217    3659.1319   -40735.349    31.264661   0.98041239 
    3700    290.26258    -456.5959    127232.05   -37157.688     3606.227   -40763.915    32.273242   0.98020899 
    3800    295.94331   -460.42113    127422.56   -37098.543    3676.8045   -40775.347    33.465381   0.97874352 
    3900    288.97642   -458.14332    126928.12   -37131.008    3590.2477   -40721.256    34.274451   0.98255615 
    4000    296.12654   -423.51019     126840.1   -37102.093     3679.081   -40781.174    35.324179   0.98323798 
    4100    292.50133   -427.62407    127042.02   -37064.845    3634.0413   -40698.887    36.553972   0.98167525 
    4200    296.53485   -718.68487    127041.79   -37061.008    3684.1539   -40745.162      37.7132   0.98167701 
    4300    298.05216   -351.83223    126783.95   -37068.608    3703.0049   -40771.613    38.772953   0.98367347 
    4400    291.76332   -366.63396    126815.61   -37046.231    3624.8722   -40671.103    39.737535   0.98342788 
    4500    292.49884   -535.15841    127045.57   -37015.751    3634.0104   -40649.761    41.209895   0.98164781 
    4600    293.65863   -467.50383    126989.64   -37098.432    3648.4196   -40746.852    42.466402   0.98208011 
    4700    298.53013   -535.45773    127193.39    -37004.75    3708.9432   -40713.693     43.73445   0.98050697 
    4800    292.03731   -385.06731    127028.23   -37108.001    3628.2763   -40736.277    44.939234   0.98178179 
    4900     296.8939   -485.20467    127310.39   -36925.736    3688.6147    -40614.35    45.884159   0.97960583 
    5000    298.14607   -609.91251    127112.48   -36876.631    3704.1717   -40580.803    47.411237    0.9811311 
    5100    295.65295   -438.85074    127152.95   -36970.616     3673.197   -40643.813    48.966353   0.98081877 
    5200     291.1674   -692.58528    126908.82   -37054.636    3617.4686   -40672.105    50.023002   0.98270555 
    5300    297.20411    -359.0375    126737.08   -37019.777    3692.4687   -40712.246    51.191612   0.98403724 
    5400    290.18888   -614.89717    127045.64   -37052.038    3605.3114   -40657.349    52.305434   0.98164728 
    5500     296.2788   -463.64714    127247.67   -37036.491    3680.9726   -40717.464    53.532339   0.98008873 
    5600    290.48169   -317.68303    127077.74   -37010.131    3608.9493    -40619.08    54.432776   0.98139926 
    5700    298.30918   -657.89344    126916.32   -37010.827    3706.1981   -40717.025    55.569315   0.98264746 
    5800     292.3442   -685.46531    126532.94   -37063.061    3632.0891    -40695.15    56.870884   0.98562477 
    5900    293.81877   -594.15071    126482.53   -37095.921    3650.4092    -40746.33    58.031056   0.98601765 
    6000    292.10269   -302.41418    126928.26   -37098.459    3629.0885   -40727.548    59.369076   0.98255508 
    6100    296.93953   -517.59261     126929.5   -37039.336    3689.1815   -40728.518    60.650307   0.98254542 
    6200    287.17493   -632.17825    126630.83   -37117.866    3567.8661   -40685.732    61.906761   0.98486291 
    6300    293.86649   -410.51885     126501.2   -37063.374    3651.0021   -40714.376    63.205153   0.98587214 
    6400    296.01208   -637.35201    126830.54   -37008.897     3677.659   -40686.556    64.468678   0.98331213 
    6500    302.35935   -540.25717    126985.77   -36949.904    3756.5175   -40706.422    65.856977   0.98211005 
    6600    292.52274   -483.15673     126726.5   -37055.708    3634.3073   -40690.015    67.096979   0.98411936 
    6700    291.96094    -312.1047    126744.08   -37130.855    3627.3275   -40758.182    68.443229   0.98398288 
    6800    293.73889   -434.97534    126896.68   -37016.169    3649.4168   -40665.585    69.659289   0.98279957 
    6900    290.65486   -405.26986    126916.23    -36909.46    3611.1007   -40520.561    70.871181   0.98264819 
    7000    301.56685   -625.55308    127183.26   -36899.732    3746.6714   -40646.403    72.345029   0.98058501 
    7100    295.50325   -257.74868     126945.9   -36953.905    3671.3372   -40625.243    73.608663   0.98241855 
    7200    293.66602   -542.48517    127056.65   -37009.237    3648.5114   -40657.748    74.586542   0.98156221 
    7300    297.62038   -437.68677    126953.65   -37089.236    3697.6404   -40786.876    75.720763   0.98235854 
    7400    292.20042   -358.23235    126667.58   -37139.365    3630.3028   -40769.667    76.309074   0.98457717 
    7500    290.28898   -485.43922     126965.7   -37103.742     3606.555   -40710.297    77.404163    0.9822653 
    7600    287.89332   -509.07107    126836.93   -37233.744    3576.7912   -40810.536    78.823543   0.98326255 
    7700    293.73516   -610.46813    126418.58   -37126.421    3649.3705   -40775.792    79.469492   0.98651638 
    7800    298.36854   -391.17043    126626.25   -37077.094    3706.9356    -40784.03    80.890384   0.98489848 
    7900    289.94674   -350.86961    126784.07   -37140.186     3602.303   -40742.489    81.963898    0.9836725 
    8000    294.53583   -606.08018    126896.99   -37076.401    3659.3179   -40735.719    82.752904   0.98279719 
    8100    288.91834   -624.47698    126829.95   -37173.199    3589.5262   -40762.725    83.972318   0.98331666 
    8200    290.16301   -400.87465    126542.15   -37201.257      3604.99   -40806.247    84.767822   0.98555307 
    8300    288.80135   -551.22618     126895.8   -37190.845    3588.0727   -40778.917    86.175166    0.9828064 
    8400    293.68671   -466.42368    126886.51   -37110.345    3648.7685   -40759.114    87.366308   0.98287833 
    8500    297.17875   -753.92148    126827.18   -37028.423    3692.1536   -40720.577    88.711428   0.98333817 
    8600    291.65564     -340.118    126858.83   -37041.216    3623.5344    -40664.75    90.051223    0.9830928 
    8700    294.62397   -438.96083    126864.25   -37000.452     3660.413   -40660.865    91.340614   0.98305078 
    8800    290.11907   -714.36963     127044.2   -37057.024    3604.4441   -40661.468    92.818886   0.98165837 
    8900    289.10458   -457.25454    126863.15   -37166.274      3591.84   -40758.114    93.676329   0.98305936 
    9000    295.90216   -352.27104    127021.77   -37106.654    3676.2932   -40782.947    95.006476    0.9818317 
    9100    290.27739   -390.68251    127033.24   -37202.168    3606.4111   -40808.579    96.135336   0.98174305 
    9200    296.11042   -436.70769     127334.4   -37075.569    3678.8807    -40754.45    97.504722   0.97942117 
    9300     287.7282   -683.05236     127185.9   -37134.193    3574.7398   -40708.933     98.46842    0.9805647 
    9400    287.96255    -623.8468    127181.81    -37069.92    3577.6514   -40647.571    99.432794   0.98059626 
    9500    296.80673   -850.55395     126997.4   -37089.321    3687.5316   -40776.852    100.43144   0.98202011 
    9600    292.88486   -595.00596    126853.21   -37075.906    3638.8063   -40714.713    101.48569   0.98313636 
    9700    296.29292   -756.02074    126430.24   -36997.987    3681.1481   -40679.135    102.52844   0.98642541 
    9800    290.58564   -630.91089    126143.84   -37106.269    3610.2407    -40716.51    103.35322   0.98866502 
    9900    289.45098   -496.58127    126398.55   -37175.676    3596.1437   -40771.819    104.54116   0.98667275 
   10000    290.56554   -199.39562    126434.29   -37167.273     3609.991   -40777.264     106.0059   0.98639383 
   10100    291.72063   -573.60074     126485.4   -37099.492    3624.3419   -40723.834    107.42365   0.98599525 
   10200    292.04516   -601.73639    126482.14   -37155.819    3628.3738   -40784.193    108.56264   0.98602064 
   10300    291.24171    -543.6906    126507.97   -37126.155    3618.3917   -40744.547    109.73386    0.9858193 
   10400    294.05582   -600.55392       126771   -37043.031    3653.3543   -40696.385    111.10438    0.9837739 
   10500    294.31119   -531.78046    126646.17   -37022.431     3656.527   -40678.958    112.02896   0.98474362 
   10600    299.96299   -561.48661    126857.53    -36911.72    3726.7451   -40638.465    113.80255   0.98310291 
   10700    299.95833   -523.89597     126924.9    -36893.67    3726.6871   -40620.357    114.93118   0.98258106 
   10800     296.5176   -377.34789    127054.82   -36852.609    3683.9395   -40536.548    116.17226   0.98157632 
   10900     298.8451   -285.54563    127270.48   -36909.539    3712.8564   -40622.396     117.0892   0.97991308 
   11000    301.17321   -430.71393    127082.41   -36922.096    3741.7808   -40663.877    118.00013   0.98136321 
   11100    299.40773   -823.87882    127053.74   -36986.005    3719.8465   -40705.851    119.12554   0.98158467 
   11200    293.56449   -412.18261    127143.07   -36992.453      3647.25   -40639.704    120.10052     0.980895 
   11300    299.42096   -372.64645    127078.31   -37021.375    3720.0109   -40741.386    121.78111   0.98139487 
   11400    291.00035    -461.9055    127253.03   -37034.862    3615.3931   -40650.255    122.98495   0.98004746 
   11500    292.53402    -546.0437    127386.08   -37064.879    3634.4475   -40699.327    125.00485   0.97902383 
   11600    287.71433   -415.24592    127170.02   -37047.454    3574.5676   -40622.022    126.33363   0.98068717 
   11700    296.98615   -352.54326    127291.23   -36902.695    3689.7608   -40592.456    127.37737   0.97975327 
   11800    293.12114   -90.393243     127400.9   -36983.525    3641.7418   -40625.267    128.37983   0.97890993 
   11900    296.71004   -567.09548    127485.76   -36986.108    3686.3304   -40672.438    129.67339    0.9782583 
   12000    291.74925   -901.46432    127216.69    -36982.37    3624.6974   -40607.068    130.72956   0.98032741 
   12100    297.25707   -102.08875    127001.11   -36930.014    3693.1266    -40623.14    131.56113   0.98199147 
   12200    294.17546   -626.88971    126963.38   -36945.537    3654.8407   -40600.377    132.88956   0.98228325 
   12300    291.41777   -113.45392    126766.91   -36974.305    3620.5791   -40594.884    133.95595   0.98380569 
   12400     298.2756   -352.90337    126970.69   -36961.186    3705.7809   -40666.967     135.5707   0.98222673 
   12500    291.21481   -634.74183     126598.2   -37081.882    3618.0575    -40699.94    137.07264   0.98511675 
   12600    296.79626   -462.70954    126597.14   -36961.791    3687.4015   -40649.193    138.37929   0.98512497 
   12700    296.74417   -440.45518    126600.61   -36925.836    3686.7545    -40612.59    139.46773   0.98509799 
   12800    300.39513   -464.43699    126693.67   -36882.384     3732.114   -40614.498     141.0827   0.98437435 
   12900    293.82887   -446.68788    126728.92   -36970.775    3650.5347    -40621.31    142.49292   0.98410059 
   13000    298.84403    -544.8075    126754.65   -36889.458    3712.8432   -40602.301     143.7845   0.98390084 
   13100    299.58666   -410.82792    126782.77   -36907.653    3722.0696   -40629.723    145.37363    0.9836826 
   13200    301.15586   -498.87054    126515.94   -36815.116    3741.5653   -40556.682    146.74791   0.98575726 
   13300    299.97338   -336.16432    126515.53   -36878.317    3726.8742   -40605.191    148.23582   0.98576044 
   13400    294.28463   -604.35512    126335.56   -36993.742     3656.197   -40649.939    149.81325    0.9871647 
   13500     291.1501    -546.6543    126536.86   -37010.765    3617.2536   -40628.018    151.03735   0.98559425 
   13600    287.76458   -303.03699    126574.31   -37036.258    3575.1918    -40611.45    151.81927   0.98530268 
   13700    292.64215   -400.52268    126886.36   -37018.633    3635.7908   -40654.423    153.62576   0.98287954 
   13800    300.77913    -318.3783    126640.25   -36911.626    3736.8848   -40648.511    154.79023   0.98478961 
   13900    297.41885   -610.61376    126575.61   -36997.068    3695.1366   -40692.204    156.23146   0.98529257 
   14000    296.10827   -271.74505    126572.56   -36986.039    3678.8539   -40664.893    157.16846   0.98531626 
   14100    293.19004   -806.94616    126620.86   -36984.828    3642.5978   -40627.426    157.70011   0.98494039 
   14200    296.18985   -357.42446    126741.64   -37027.799    3679.8676   -40707.666     159.1852   0.98400183 
   14300    288.29672   -574.48446    127139.96   -37090.803    3581.8031   -40672.606    160.25498   0.98091904 
   14400    290.79297   -554.90539    127062.93   -37043.215    3612.8166   -40656.031    161.69256   0.98151365 
   14500    294.43561   -521.87161    126871.56    -36984.46    3658.0728   -40642.532    162.76196    0.9829942 
   14600    291.41512   -546.37126    126940.17   -36984.249    3620.5461   -40604.796    164.26125   0.98246284 
   14700     294.8752   -496.95168     126854.2   -37057.899    3663.5343   -40721.434    165.46909   0.98312866 
   14800     291.5133   -574.73082    127075.46    -37104.52     3621.766   -40726.286    166.66567    0.9814169 
   14900    289.70853    -809.2623    126961.69   -37198.861    3599.3435   -40798.205     167.2537   0.98229634 
   15000    288.90434   -571.72617    126948.85   -37204.498    3589.3523   -40793.851    167.83534   0.98239566 
   15100    287.45165    -674.9639    126990.14   -37259.626    3571.3039    -40830.93    168.87901   0.98207624 
   15200    293.86423   -534.46932    127100.94   -37149.939     3650.974   -40800.913    169.95437   0.98122014 
   15300    289.41991   -372.31455    126859.93   -37177.541    3595.7576   -40773.299    171.46832   0.98308432 
   15400    290.73818   -455.48644    126779.11   -37145.792    3612.1359   -40757.928    172.63748   0.98371101 
   15500    293.83525   -385.10336    126893.49   -37121.198     3650.614   -40771.812    174.03909    0.9828243 
   15600    292.27746    -297.1214    126665.61   -37027.601      3631.26   -40658.861    175.08594   0.98459246 
   15700    291.02989   -595.35441    126575.47   -37114.997    3615.7601   -40730.757    176.62217   0.98529361 
   15800    290.30472   -384.52948    126789.61   -37068.532    3606.7505   -40675.283     178.1696   0.98362954 
   15900    290.80379   -307.86601    126710.22   -37111.423     3612.951   -40724.374    179.20987   0.98424578 
   16000     292.2204   -471.80185     126976.5   -37021.068     3630.551   -40651.619    180.53475   0.98218176 
   16100    302.35927   -638.01546    126730.95   -36945.287    3756.5165   -40701.804    181.79976   0.98408481 
   16200    296.27942   -388.95481    126844.83   -37028.334    3680.9803   -40709.314    183.04686   0.98320132 
   16300    291.69163   -335.23387    127020.17   -37063.261    3623.9816   -40687.243    184.79516   0.98184407 
   16400    294.88308   -556.13781    127092.17   -36936.532    3663.6322   -40600.164    186.53823   0.98128789 
   16500    295.69877   -578.75387    126885.26   -36921.138    3673.7663   -40594.904    188.48099   0.98288804 
   16600    296.78936   -519.22575    126980.19   -36874.164    3687.3159    -40561.48    190.07436   0.98215324 
   16700    298.60693   -392.99035    126974.77   -36900.838    3709.8974   -40610.735    191.00657   0.98219513 
   16800    298.62965   -424.09112    126762.65   -36925.953    3710.1796   -40636.133    192.43265    0.9838387 
   16900    301.91483   -503.61565    127077.21   -36874.112    3750.9948   -40625.106    193.92516    0.9814034 
   17000    296.20488   -615.99918    127056.88   -36905.824    3680.0542   -40585.878     194.9556   0.98156044 
   17100     296.9388   -423.30299    126787.53    -36825.91    3689.1725   -40515.083    196.55546   0.98364564 
   17200    297.30925   -316.80621    126818.86   -36859.807    3693.7749   -40553.582    198.33735   0.98340264 
   17300    297.82721   -453.19844    126703.18     -36923.1    3700.2101    -40623.31     199.5881    0.9843005 
   17400    293.06336   -770.12608     126715.1   -36933.474     3641.024   -40574.498    200.27399   0.98420795 
   17500    290.83109   -391.07718    126963.49   -36902.647    3613.2902   -40515.937    201.66079    0.9822824 
   17600    297.60769   -771.16083    126770.94   -36876.664    3697.4827   -40574.146    202.61071   0.98377438 
   17700    293.61522   -596.00081    126788.49    -36927.79    3647.8803    -40575.67    204.08089   0.98363824 
   17800    292.04535   -529.30412    126855.08   -36923.079    3628.3762   -40551.455    205.98653   0.98312188 
   17900    297.40539   -350.44468    126765.19   -36862.662    3694.9694   -40557.631    207.54813     0.983819 
   18000    294.89959   -432.71453    127004.04   -36780.765    3663.8373   -40444.603    209.74359   0.98196883 
   18100    297.20922   -432.30022    126930.59    -36928.23    3692.5322   -40620.762    210.76884   0.98253703 
   18200    294.37585   -578.30665       127098   -36948.838    3657.3304   -40606.169    212.23278   0.98124285 
   18300    301.20086   -483.43021    127294.88   -36834.491    3742.1243   -40576.616    213.11352   0.97972522 
   18400    297.07401   -625.38587    127420.69    -36950.09    3690.8523   -40640.942    214.29415    0.9787579 
   18500    295.74085   -450.75191     127012.7   -36913.683    3674.2892   -40587.972    215.46659   0.98190182 
   18600    294.62615   -320.81632    127445.73   -36964.605      3660.44   -40625.045    217.62011   0.97856559 
   18700    291.56291   -697.71979    127223.05   -36910.336    3622.3824   -40532.718    218.78952   0.98027833 
   18800    297.02272    -430.7534    127258.06   -36868.443    3690.2151   -40558.658    220.03509   0.98000867 
   18900    297.75593   -828.08793    126945.46    -36944.55    3699.3245   -40643.875    220.95084   0.98242192 
   19000    298.07496   -528.30949    126939.13   -36933.113    3703.2882   -40636.402    222.98243   0.98247093 
   19100    293.82551   -649.20412    127078.26    -36994.45     3650.493   -40644.943    224.34127   0.98139528 
   19200    295.00037   -497.73241    126920.11   -36978.017    3665.0894   -40643.106      224.829   0.98261818 
   19300    302.18832   -241.55841    126922.04   -36923.281    3754.3926   -40677.673    225.80089   0.98260319 
   19400    293.83318   -512.29451    126936.38   -36943.416    3650.5883   -40594.005    227.32672   0.98249224 
   19500    292.89024     -351.673    127167.49    -36917.29    3638.8731   -40556.163    229.07003   0.98070666 
   19600    301.30537     -393.867    126948.55   -36982.521    3743.4228   -40725.944    230.17101   0.98239804 
   19700    297.93413   -507.97672    126950.83   -36954.614    3701.5385   -40656.153    231.08621   0.98238034 
   19800    297.10207   -525.24717    126876.39   -37010.686     3691.201   -40701.887    231.74286   0.98295677 
   19900    293.00407   -821.15589     126528.6   -37013.432    3640.2873    -40653.72    232.11795   0.98565859 
   20000    296.71646   -699.21137    126622.25   -37057.102    3686.4101   -40743.512    233.04309   0.98492959 
   20100    292.57087   -495.74743    126814.47   -36987.276    3634.9052   -40622.181    233.95673   0.98343671 
   20200    295.58062   -691.42285    127056.02   -37039.783    3672.2985   -40712.082    235.31221   0.98156709 
   20300    294.21718   -725.17552    127019.77   -37078.332     3655.359   -40733.691    236.20825   0.98184717 
   20400    286.45784   -230.50831    126919.62   -37062.015    3558.9569   -40620.972    237.38332   0.98262194 
   20500    291.58179    -436.6276    127140.24    -37019.72     3622.617   -40642.337    238.58378   0.98091686 
   20600    297.33288     -477.374    127081.25   -37056.758    3694.0685   -40750.827    239.84893   0.98137215 
   20700    294.85493    -551.3672    127348.73   -36988.371    3663.2824   -40651.653    241.51079    0.9793109 
   20800    291.18049   -538.89152    127261.94   -37003.315    3617.6311   -40620.946    242.83092   0.97997878 
   20900    292.36163   -682.99266    126819.94   -37049.851    3632.3057   -40682.157    243.42664   0.98339426 
   21000    293.03867   -638.70973    126344.68   -37187.707    3640.7172   -40828.424    243.83449   0.98709346 
   21100    287.02426   -572.95888    126473.94   -37221.946    3565.9941    -40787.94    244.38934   0.98608458 
   21200    290.61445   -477.23269    126457.97   -37191.334    3610.5987   -40801.933    245.33545   0.98620915 
   21300    290.90947   -319.59607    126842.82   -37209.195     3614.264   -40823.459    247.18818   0.98321692 
   21400    293.67439   -291.67792    127177.93   -37169.811    3648.6154   -40818.426    248.50626   0.98062617 
   21500    289.53144   -637.04957    126843.98   -37141.692    3597.1433   -40738.836     248.9464   0.98320787 
   21600    296.25881    -443.6182    127041.73   -37086.171    3680.7243   -40766.895    249.98276    0.9816775 
   21700     292.2984   -582.30056     126753.1     -37029.9    3631.5201    -40661.42    250.91319   0.98391287 
   21800    296.56899   -552.11233    126657.69   -37000.661     3684.578   -40685.239    252.25909   0.98465399 
   21900    290.00762   -483.58853     126702.8   -37002.526    3603.0593   -40605.586    253.13305   0.98430344 
   22000    296.87213   -399.61119    126983.81   -37044.611    3688.3441   -40732.955    254.27745   0.98212522 
   22100    298.47775   -443.60629     127332.2   -36979.213    3708.2924   -40687.505    256.03029   0.97943803 
   22200    291.71347    -684.9004    127386.73   -37025.366    3624.2529   -40649.619    257.04021   0.97901882 
   22300    301.36612   -411.96797    127381.09   -36983.411    3744.1776   -40727.589    257.83954   0.97906213 
   22400     297.8856   -528.44671    126995.14   -36954.487    3700.9355   -40655.422     258.5314   0.98203758 
   22500    294.35456   -481.90508    126857.75   -36974.958    3657.0658   -40632.024    259.38205   0.98310114 
   22600    293.36008   -675.14864    126903.06   -36923.391    3644.7104   -40568.101    260.47451   0.98275018 
   22700    297.96458   -383.29897    127074.55   -36947.016    3701.9168   -40648.932    263.00813   0.98142395 
   22800    301.38626   -560.55872    127165.13   -36913.485    3744.4278   -40657.913    264.12982   0.98072486 
   22900    297.74487   -670.89524    126647.34   -36972.867    3699.1871   -40672.054     264.6246   0.98473452 
   23000    297.71474   -702.56589    126748.67    -36947.18    3698.8127   -40645.993    266.59817   0.98394721 
   23100    292.72143   -429.30266    126700.17   -37079.345    3636.7758   -40716.121    268.21578   0.98432386 
   23200    295.42193    -465.0674    126660.38   -37018.012    3670.3269   -40688.339    269.59059   0.98463313 
   23300    293.16248   -564.39624     126754.9   -37068.502    3642.2554   -40710.757    271.13198   0.98389888 
   23400    296.31321   -497.75904     126733.9   -36970.218    3681.4001   -40651.618    272.36444    0.9840619 
   23500    290.93551   -199.33125    126782.94   -37024.574    3614.5875   -40639.162    273.27852   0.98368126 
   23600    296.19386   -596.14319    126667.64   -36986.938    3679.9174   -40666.856    274.52451   0.98457667 
   23700    291.46021   -621.21498    126676.08   -37020.244    3621.1064   -40641.351     276.2223   0.98451109 
   23800    291.00002   -448.91354    126431.69   -37099.686     3615.389   -40715.075    276.85186   0.98641412 
   23900    291.62412   -424.18187    126383.62   -37125.492    3623.1428   -40748.635     277.3489   0.98678933 
   24000     297.4856    -534.5317    126426.29   -37033.729    3695.9659   -40729.695    278.77342   0.98645626 
   24100    292.87815   -478.75873    126895.34   -37029.879    3638.7229   -40668.602    280.97977   0.98280996 
   24200    288.97476   -391.62921    126885.52   -37106.134    3590.2271   -40696.361    282.89393   0.98288604 
   24300    293.59546   -554.75063    126690.89   -37085.098    3647.6347   -40732.733    284.12715   0.98439602 
   24400    291.36771   -412.12938    126627.83   -37140.603    3619.9572    -40760.56    284.75782   0.98488618 
   24500    291.64335   -434.11713     126494.2   -37090.145    3623.3818   -40713.527    286.11525   0.98592664 
   24600    296.47743   -372.79695    126894.67   -37078.411    3683.4404   -40761.852    287.43678   0.98281513 
   24700    292.87132   -597.97904    126884.59    -37102.65     3638.638   -40741.288    288.87702   0.98289323 
   24800    289.95992   -323.19552    126896.08   -37073.578    3602.4667   -40676.045    289.86927   0.98280423 
   24900    302.91021     -695.515     126925.7   -37006.937    3763.3614   -40770.299     290.5916   0.98257489 
   25000    299.05577   -766.87131    126655.42   -36989.163    3715.4738   -40704.637    291.42024   0.98467165 
   25100     292.8242    -422.3978    126583.62   -36979.923    3638.0526   -40617.975    292.42335   0.98523018 
   25200    294.66317   -395.08241    126675.51   -37017.015       3660.9   -40677.915    293.84643   0.98451553 
   25300    299.41687   -753.36443    126542.76   -37029.203      3719.96   -40749.163    294.53552   0.98554835 
   25400    298.10952   -424.06419    126640.94   -37032.003    3703.7175   -40735.721    295.90042   0.98478424 
   25500    298.02249   -798.31452     126655.1   -36978.551    3702.6363   -40681.187    297.20974   0.98467412 
   25600    291.58831   -492.38058    126638.58   -37090.048    3622.6979   -40712.746    298.84663   0.98480262 
   25700    290.25185   -608.74601    126447.81   -37101.488    3606.0937   -40707.582    299.41664   0.98628839 
   25800    294.51366   -302.68688    126699.23   -37088.326    3659.0425   -40747.369    302.03715    0.9843312 
   25900    294.24666   -440.20058    126929.29   -36998.054    3655.7253   -40653.779    302.88336   0.98254707 
   26000    299.15047   -590.72066    127061.37   -36899.081    3716.6503   -40615.731    304.55199   0.98152571 
   26100    293.64671   -507.62074    127180.54   -36997.683    3648.2715   -40645.954    306.17249     0.980606 
   26200     300.4231   -421.76092    126992.31   -37000.773    3732.4615   -40733.234    307.28063   0.98205951 
   26300    296.11064   -286.41432    127250.46   -36953.095    3678.8834   -40631.978    308.32666   0.98006723 
   26400    296.74293   -463.84348    127469.04   -36891.169    3686.7391   -40577.908    309.91017   0.97838664 
   26500     296.2891   -835.03553    127377.12   -36970.362    3681.1007   -40651.463    310.44617   0.97909269 
   26600    298.09136    -548.5588    127053.54     -37056.7    3703.4919   -40760.192    311.46126   0.98158625 
   26700    295.73698   -238.47936    127223.83   -37106.975    3674.2411   -40781.216    313.05834   0.98027239 
   26800    295.58816   -930.49177    127154.95   -37018.394    3672.3921   -40690.786     313.3504   0.98080337 
   26900    292.31559   -570.38546    126997.68   -37010.673    3631.7337   -40642.407    315.10076   0.98201794 
   27000    294.74011   -498.26274    126853.66   -37058.783    3661.8559   -40720.639    316.44691   0.98313287 
   27100    291.35555    -688.4088    127136.37   -37058.827    3619.8061   -40678.633    318.65407    0.9809467 
   27200    294.14336   -501.56431    127151.39   -37103.428    3654.4419    -40757.87     320.0592   0.98083081 
   27300    289.76729   -406.51583    127398.17   -37135.906    3600.0735    -40735.98    321.61993   0.97893087 
   27400    294.33307   -326.45041    127390.37   -37071.343    3656.7988   -40728.141    322.99219    0.9789908 
   27500    299.43041    -240.4717    127459.13   -36975.579    3720.1284   -40695.708    324.29888   0.97846273 
   27600    292.69356   -436.03975    127475.48    -37008.15    3636.4295   -40644.579    326.14189   0.97833716 
   27700    295.07018   -799.38449     127307.9   -37001.747    3665.9567   -40667.703    326.63093     0.979625 
   27800    297.65676   -508.96119    127123.63   -36913.398    3698.0924   -40611.491     328.2235   0.98104501 
   27900    296.58282   -543.89961    127136.27   -36929.069    3684.7498   -40613.818    330.00925    0.9809475 
   28000    297.64811   -422.56088    127195.02    -36980.88     3697.985   -40678.865    331.36698   0.98049442 
   28100    292.36585   -424.10188     127130.8   -36989.983     3632.358   -40622.341    332.33784   0.98098972 
   28200    298.05408   -493.82962     127125.1   -37055.191    3703.0288    -40758.22    334.27706   0.98103368 
   28300    295.54068   -609.05821    127029.59   -37043.177    3671.8022    -40714.98    335.56066   0.98177129 
   28400    294.23851   -515.84151    127199.78    -37095.82    3655.6241   -40751.444    337.35071   0.98045772 
   28500    291.25358   -652.36364    126948.96   -37141.673    3618.5393   -40760.212    337.70646   0.98239487 
   28600    290.97136   -406.84381    126905.22   -37087.862     3615.033   -40702.895    338.59464   0.98273343 
   28700    291.35233   -535.87354    127002.64   -37103.576    3619.7661   -40723.342    339.85544   0.98197965 
   28800    295.79276   -739.13188     126957.1   -37072.261     3674.934   -40747.195    340.89517   0.98233187 
   28900    294.25971   -268.71479    127206.57   -37028.704    3655.8875   -40684.592    342.68313   0.98040533 
   29000    292.61177   -425.66833    127323.79   -37115.683    3635.4134   -40751.097    343.96315   0.97950279 
   29100    295.99802   -333.06676    127510.54   -37038.759    3677.4843   -40716.243    345.18917    0.9780682 
   29200    296.75261   -448.56501    127590.36   -36981.622    3686.8593   -40668.481    346.48043   0.97745631 
   29300    291.84236   -843.04587    127420.29   -37048.261    3625.8543   -40674.116    347.46926   0.97876093 
   29400    292.89405   -378.87431     127173.7   -37123.856    3638.9205   -40762.776    347.72072   0.98065876 
   29500    290.65186   -783.30852       127290    -37166.38    3611.0634   -40777.443    348.71229    0.9797628 
   29600    295.79427   -449.39534    127312.84   -37055.648    3674.9528     -40730.6     349.9315   0.97958702 
   29700    295.71419   -511.36935    126935.52   -37133.947    3673.9579   -40807.905    351.04342   0.98249887 
   29800    293.48431   -649.86173    127060.01   -37094.544    3646.2538   -40740.798    352.86007   0.98153624 
   29900    290.00881   -590.24394    126903.31   -37125.261    3603.0742   -40728.335    353.87592   0.98274824 
   30000    297.00786   -477.01402     126801.2   -37079.237    3690.0305   -40769.268    354.95066   0.98353964 
   30100    293.39828    -457.6198     126941.6   -37071.745     3645.185    -40716.93    356.36896   0.98245177 
   30200     298.2957   -448.69554    127203.02   -37083.632    3706.0307   -40789.663    358.47729   0.98043273 
   30300     297.6988   -733.14479    127342.24   -37044.177    3698.6147   -40742.792    360.34628   0.97936085 
   30400    296.09146   -387.45251    127259.96    -37019.55    3678.6451   -40698.195    361.56609   0.97999405 
   30500    296.32293   -516.33396     126934.8   -37048.964    3681.5209   -40730.485    362.57068   0.98250444 
   30600    293.51174    -416.0679    127024.02   -37003.145    3646.5946   -40649.739    364.08142   0.98181437 
   30700    289.59681   -435.92556    126978.45   -37014.429    3597.9555   -40612.384    365.47684   0.98216669 
   30800    297.04457   -512.18188    127332.41   -36936.977    3690.4866   -40627.463    367.64425   0.97943647 
   30900    295.93343   -291.88918    127108.45    -37104.78    3676.6817   -40781.462     368.6185   0.98116221 
   31000    290.79087   -536.12658    127049.56   -37166.032    3612.7905   -40778.822    369.77352   0.98161695 
   31100    290.40447   -450.02974    127404.81   -37175.206    3607.9898   -40783.196    371.64149   0.97887988 
   31200    291.88604   -775.33008    127277.85   -37168.176    3626.3969   -40794.573    373.22685   0.97985632 
   31300     293.7461   -470.96244    127245.17   -37060.073    3649.5064    -40709.58    374.25077   0.98010796 
   31400    295.24217   -524.76072    127292.82   -37004.899    3668.0935   -40672.993    376.07146    0.9797411 
   31500    290.91034   -633.75611     127300.8   -37044.228    3614.2747   -40658.503    377.38559   0.97967966 
   31600    300.18631   -448.52055    127599.28   -36963.356    3729.5196   -40692.876    379.55107     0.977388 
   31700    293.71347   -386.11944    127594.58   -37031.332    3649.1009   -40680.433    380.24063     0.977424 
   31800    296.92906   -481.84647     127495.3   -36977.605    3689.0515   -40666.657    381.63733    0.9781851 
   31900    296.81307    -575.2735     127601.5   -36932.257    3687.6104   -40619.867     383.3222   0.97737097 
   32000    299.61478   -522.75751       127237   -36957.298    3722.4189   -40679.717    383.78813   0.98017086 
   32100    298.93401   -633.89894    127382.34   -36941.647     3713.961   -40655.608    385.07619   0.97905255 
   32200    293.21174   -534.13386     127317.3   -36946.157    3642.8675   -40589.024    385.99109    0.9795527 
   32300     301.0159   -652.61097     127182.3   -36912.201    3739.8264   -40652.027    386.61778   0.98059249 
   32400     289.5647   -594.00976     127295.2   -37013.655    3597.5565   -40611.212     388.4397   0.97972272 
   32500    296.11634   -274.55358    127541.52   -36997.195    3678.9542   -40676.149    391.00317   0.97783058 
   32600    294.71397   -754.99312    127351.97   -36935.008    3661.5312   -40596.539     391.4651   0.97928602 
   32700    295.12779   -451.12543    127233.94   -37011.129    3666.6724   -40677.802    392.37282   0.98019444 
   32800    293.10214   -470.53673    127001.09   -37085.246    3641.5058   -40726.752     393.2726   0.98199161 
   32900    298.20537   -382.23217    127042.16   -37092.106    3704.9083   -40797.015    394.10567   0.98167415 
   33000      292.991   -473.58419    127149.38   -37149.917    3640.1249   -40790.042    396.46483   0.98084635 
   33100    296.80639   -623.72822    127188.31   -37045.509    3687.5274   -40733.036    398.12674   0.98054608 
   33200    289.64426   -622.12276    127361.81   -37087.887     3598.545   -40686.432    400.18545   0.97921037 
   33300    293.46285   -474.39759    127054.22   -36996.274    3645.9873   -40642.261    400.77805     0.981581 
   33400    290.21825   -502.11868     127084.9   -37060.986    3605.6763   -40666.663    402.38285   0.98134398 
   33500    299.44106   -500.48924    126906.11   -37017.065    3720.2606   -40737.326    404.05148   0.98272655 
   33600    293.45718    -506.1578    126987.06   -36996.806    3645.9168   -40642.723    406.24518   0.98210007 
   33700    301.45333   -305.73029    126625.42   -36988.566     3745.261   -40733.827    406.81024   0.98490495 
   33800    297.18375   -683.15993    126674.52   -37007.845    3692.2158   -40700.061     407.1356   0.98452319 
   33900    294.10181   -581.59686    126534.02   -37045.492    3653.9257   -40699.418     408.0043   0.98561642 
   34000     296.8816   -453.52278     126539.9   -37011.668    3688.4619    -40700.13    408.79877   0.98557059 
   34100    292.26488     -253.973     126778.2   -37049.826    3631.1036    -40680.93    409.62553   0.98371802 
   34200    293.55426   -482.38141    126657.52   -37031.488    3647.1229   -40678.611    409.90432   0.98465531 
   34300     290.8065   -112.88223    126714.57   -37071.913    3612.9847   -40684.898    411.08998   0.98421204 
   34400    295.95269   -724.43489    126662.39   -36976.436     3676.921   -40653.357    411.73491   0.98461748 
   34500    295.58462   -740.40506    126655.08   -36973.432    3672.3481    -40645.78    412.75457   0.98467435 
   34600    293.68452   -409.01492    126775.82   -36970.786    3648.7413   -40619.528    413.62828   0.98373655 
   34700    288.60619   -583.89638    126778.18   -37081.435     3585.648   -40667.083     415.0864   0.98371823 
   34800    293.63676   -516.92143    126781.64   -37061.291    3648.1478   -40709.439    416.65266   0.98369138 
   34900    292.72762   -531.42054    126832.31   -37084.599    3636.8528   -40721.452    417.71435   0.98329835 
   35000    286.62974   -371.96282    126767.47   -37184.635    3561.0925   -40745.727    418.52143   0.98380135 
   35100     290.1395   -685.10283    126755.08   -37103.792    3604.6979    -40708.49    419.29997   0.98389748 
   35200     286.2828   -482.63976    126467.57   -37093.952    3556.7821   -40650.734    419.37087   0.98613422 
   35300    295.81129   -532.09101    126595.08   -37085.178    3675.1643   -40760.342    420.82839   0.98514101 
   35400     291.2276   -496.96087    126486.13   -37089.906    3618.2164   -40708.122    421.31438   0.98598959 
   35500    294.24824   -555.34911     126416.6   -36963.281     3655.745   -40619.026     422.0121   0.98653189 
   35600     294.8689   -602.57273    126480.02   -37009.745     3663.456   -40673.201    423.36633   0.98603719 
   35700    296.72545   -462.73501    126365.01   -36953.012    3686.5219   -40639.534    423.69561    0.9869346 
   35800    296.21494   -419.22634    126592.49    -36985.29    3680.1793    -40665.47    425.49551   0.98516119 
   35900    294.64685   -156.18307    126796.21   -36927.578    3660.6972   -40588.275    428.02269   0.98357832 
   36000    300.76707   -527.73446    126801.13   -36887.029     3736.735   -40623.764    429.66073   0.98354018 
   36100    289.82139   -209.71398     127158.3   -36888.018    3600.7457   -40488.764    431.61444   0.98077757 
   36200    290.91324   -554.07235    127060.39   -36909.014    3614.3108   -40523.325    432.42156   0.98153329 
   36300    290.11641   -702.52561    126981.42   -36983.461     3604.411   -40587.872    433.68873   0.98214375 
   36400     298.1123   -460.95259    126706.66   -36919.156    3703.7521   -40622.908    434.68382   0.98427346 
   36500    296.27246   -679.73123    126346.48   -36920.804    3680.8939   -40601.698    435.65609    0.9870794 
   36600    290.06768   -726.33355    126277.53   -37087.076    3603.8056   -40690.882    437.13713   0.98761836 
   36700    297.49777   -295.75144    126397.31   -37000.446    3696.1171   -40696.563    438.66425    0.9866824 
   36800    298.69175   -194.63932    126405.93   -37043.203    3710.9511   -40754.154     439.3964   0.98661511 
   36900    291.69272   -513.92965    126639.33   -37070.339    3623.9951   -40694.334    441.36036   0.98479679 
   37000    299.53876   -538.90268    127018.72   -36991.385    3721.4745   -40712.859    443.17822   0.98185531 
   37100    291.62148   -896.18988    127124.94   -36981.208      3623.11   -40604.318    444.64686   0.98103489 
   37200    290.70139   -665.00027    127228.87   -37018.926    3611.6789   -40630.604    445.03497   0.98023353 
   37300    295.48655   -646.01289    127356.87   -37028.929    3671.1297   -40700.059    445.98489   0.97924835 
   37400    289.02533   -477.60228    127358.57   -37092.117    3590.8554   -40682.973    447.11534    0.9792353 
   37500    292.86731   -530.34546     126685.1    -37112.35    3638.5882   -40750.938     447.5506   0.98444096 
   37600     297.1496   -393.02847    126887.47   -37069.758    3691.7915   -40761.549     449.5516   0.98287088 
   37700     292.3256    -778.6571    126858.12   -37083.567     3631.858   -40715.425    450.48355   0.98309834 
   37800    290.20027   -637.77213    126565.05   -37220.737    3605.4528   -40826.189    451.77434   0.98537478 
   37900    295.99823    -294.7951    126409.97   -37168.862    3677.4868   -40846.348    453.12563    0.9865836 
   38000    293.38192   -545.87536    126532.88   -37147.259    3644.9818   -40792.241    454.03373   0.98562526 
   38100    291.91768   -549.63007    126883.41   -37075.416      3626.79   -40702.206    455.06199   0.98290235 
   38200    291.92567   -443.83112     126697.4   -37081.582    3626.8893   -40708.471    456.20192   0.98434539 
   38300    295.91836   -531.43235    126888.43   -37005.086    3676.4946   -40681.581    457.71078   0.98286349 
   38400    294.29324   -674.21274    126589.84   -37075.237    3656.3039   -40731.541    457.20027   0.98518178 
   38500    290.29382   -545.44346    126661.66    -37074.38    3606.6151   -40680.995    458.38164   0.98462317 
   38600    290.66755   -348.56196    126513.38   -37022.387    3611.2584   -40633.646    459.10702    0.9857772 
   38700    295.28788   -294.50217    126886.15   -37008.026    3668.6614   -40676.688    461.11217   0.98288112 
   38800    293.79168   -465.83953     127279.4   -37026.986    3650.0726   -40677.058    462.45587   0.97984439 
   38900    298.23551    -393.7605     127509.6   -36976.744    3705.2829   -40682.027    464.54819   0.97807542 
   39000    292.05894   -453.19263    127309.51   -37025.694    3628.5451   -40654.239    465.59111   0.97961264 
   39100    298.14893   -463.68507    127036.52   -36993.441    3704.2072   -40697.648    466.27564   0.98171769 
   39200    293.21242   -595.33493    126990.16     -37047.5    3642.8759   -40690.376    467.52555   0.98207615 
   39300    293.24615   -192.27712    126733.02   -37047.397    3643.2949   -40690.692    468.26724   0.98406878 
   39400    295.66825   -502.65302    126776.25   -37019.497    3673.3872   -40692.884    469.78875   0.98373317 
   39500    291.86217   -700.62047    126652.62    -36983.97    3626.1003   -40610.071    470.06929   0.98469345 
   39600    295.96837   -417.79587    126355.95   -37025.505    3677.1158   -40702.621    469.80736    0.9870054 
   39700    295.74081   -465.96666    126418.64   -36950.353    3674.2886   -40624.642    471.13102   0.98651593 
   39800    291.47355    -340.0087       126436    -37054.66    3621.2721   -40675.932    472.07818   0.98638052 
   39900    292.85176    -389.7023    126790.35   -37103.017     3638.395   -40741.412    474.44876   0.98362375 
   40000    292.48942   -352.54135    127138.83   -37128.445    3633.8934   -40762.338    475.74396    0.9809277 
   40100    294.45493   -747.24364    127332.08   -37029.341    3658.3129   -40687.654    477.21968   0.97943896 
   40200    295.24323   -457.46958     127348.4   -37025.542    3668.1067   -40693.649    477.63145   0.97931348 
   40300    294.08417   -500.74803    127287.46     -37024.6    3653.7066   -40678.307    478.85168   0.97978236 
   40400    297.54604   -383.03078     127622.3   -36915.607    3696.7168   -40612.324    481.37925   0.97721173 
   40500    299.21976   -575.12932    127216.65   -36922.483    3717.5112   -40639.994    480.47786    0.9803277 
   40600    292.57791    -575.3607    127131.93   -36990.826    3634.9927   -40625.819     481.6182     0.980981 
   40700    288.60445   -374.81793    127394.07   -37014.222    3585.6264   -40599.848    484.10082   0.97896237 
   40800    299.08799   -479.55556    127542.92   -37059.003    3715.8741   -40774.877    486.11775   0.97781992 
   40900    290.06398   -648.06875     127369.9   -37108.542    3603.7596   -40712.302    486.34985   0.97914816 
   41000     298.4781   -729.09144    127511.28   -37014.101    3708.2968   -40722.398    488.48378   0.97806251 
   41100    292.41804    -423.0108     127212.8    -36994.89    3633.0065   -40627.897     489.0786   0.98035734 
   41200    305.19833   -623.00182    127084.71   -37026.816     3791.789   -40818.605    489.35065   0.98134546 
   41300    285.43153    -493.1361    127018.64   -37236.751     3546.206   -40782.957    490.16287   0.98185589 
   41400    282.71274   -367.07758    127001.39   -37178.627    3512.4276   -40691.055    490.96487    0.9819893 
   41500     286.6551   -646.67114    127253.57   -37151.241    3561.4076   -40712.649    492.46659   0.98004324 
   41600    294.17636   -371.93736    126900.15   -37107.531    3654.8519   -40762.383    492.27807   0.98277273 
   41700    297.30346   -581.07134    127160.58   -37079.059     3693.703   -40772.762    494.26597   0.98075997 
   41800    292.71556    -511.7764    126984.09   -37089.143    3636.7029   -40725.846    495.06429   0.98212305 
   41900    290.41192   -437.45079    126909.15   -37076.831    3608.0824   -40684.914    496.25773     0.982703 
   42000    293.94092   -472.81934    127226.47   -37036.099    3651.9268   -40688.025    497.80329   0.98025199 
   42100    293.33096   -76.690554    127395.62   -37018.059    3644.3486   -40662.407    498.82125   0.97895046 
   42200    297.83043   -343.23018    127588.78   -36929.086    3700.2501   -40629.336    500.20983   0.97746842 
   42300    299.11577   -924.43594    127753.43   -36904.079    3716.2192   -40620.299    501.86298   0.97620869 
   42400    303.01851   -499.89787     127368.4   -36957.351    3764.7069   -40722.058    501.94428   0.97915967 
   42500    296.35933   -563.89434    126998.02   -36972.357    3681.9731    -40654.33    501.22185   0.98201537 
   42600    293.08116    -277.7714    126935.85   -36943.896    3641.2451   -40585.141    502.85136    0.9824963 
   42700    296.95603   -333.25752    127251.89   -36968.861    3689.3865   -40658.247    504.73118   0.98005619 
   42800    295.56224   -295.47248    127358.38    -36946.06    3672.0701    -40618.13    506.00255   0.97923675 
   42900    297.47925   -406.31489    127441.79    -37018.63    3695.8871   -40714.517    507.68262   0.97859584 
   43000    293.43489   -454.13573    127450.75   -37068.727    3645.6398   -40714.366    509.22075   0.97852702 
   43100    292.89346   -583.14033    127013.67   -37031.854    3638.9132   -40670.767    509.28522   0.98189434 
   43200    300.35998   -457.88796     127052.9    -36984.56    3731.6773   -40716.237    510.48459   0.98159117 
   43300    297.18533   -724.33242    126757.61   -37001.815    3692.2354   -40694.051    509.95365    0.9838778 
   43400    298.01596     -294.725     126839.1   -36965.829    3702.5551   -40668.385       511.01   0.98324572 
   43500    301.73768   -300.50795     127089.9    -36954.91    3748.7939   -40703.704    512.43935   0.98130542 
   43600    305.40392   -484.35119     127170.6   -36849.657    3794.3432       -40644    514.07623   0.98068264 
   43700    295.58502   -440.82021    127453.99   -36888.009    3672.3531   -40560.362    515.45086   0.97850215 
   43800    301.03179   -531.05113    126987.09   -36899.192    3740.0239   -40639.216    516.56418   0.98209989 
   43900    298.20852   -458.76376    126835.04   -36954.331    3704.9475   -40659.278    517.74751    0.9832772 
   44000    291.82827   -434.30132    126930.01   -36987.989    3625.6791   -40613.669    519.21085   0.98254151 
   44100    294.10849   -421.43417    127038.84   -37007.336    3654.0087   -40661.345    521.57658   0.98169983 
   44200    286.99655   -308.69227    127190.11   -37050.156    3565.6498   -40615.806    523.58336   0.98053223 
   44300    294.98971   -609.07357    127147.37   -37064.456    3664.9569   -40729.413    524.80519   0.98086186 
   44400    293.38302   -396.25723    127333.33   -37023.996    3644.9954   -40668.991    526.19827   0.97942939 
   44500    294.64264   -706.18118    127334.59    -37041.41    3660.6449   -40702.055    526.85714    0.9794197 
   44600    289.93959    -425.5736    127077.46   -37122.141    3602.2142   -40724.355    527.13315   0.98140146 
   44700    289.02019    -560.0097    127109.94   -37094.039    3590.7915   -40684.831     528.5981   0.98115065 
   44800     297.0283   -610.47464    126940.94   -37071.833    3690.2844   -40762.117    529.80847   0.98245687 
   44900    298.62136   -286.74127    127261.59   -36998.868    3710.0767   -40708.945    531.97951   0.97998147 
   45000    298.40669   -293.16219    127336.72   -36993.655    3707.4095   -40701.065    534.27966   0.97940331 
   45100     301.5504   -523.30477    127343.38   -36918.221     3746.467   -40664.688    535.68832    0.9793521 
   45200    291.34989   -694.89938    127063.72   -37015.343    3619.7358   -40635.079    536.41238   0.98150756 
   45300    298.47312   -358.03278    126627.71   -37020.212    3708.2349   -40728.447    536.56198   0.98488711 
   45400    297.23801   -676.50624    126784.15   -37025.421    3692.8898   -40718.311     538.5025   0.98367192 
   45500    294.65214   -586.60241    126702.13   -37034.586     3660.763   -40695.349    539.59816   0.98430864 
   45600    292.21752   -261.39797    126922.49   -37021.548    3630.5152   -40652.064    541.57672    0.9825997 
   45700    293.39892   -406.67307    127191.92   -37009.785     3645.193   -40654.978    543.26301   0.98051825 
   45800    302.45497    -856.2721     126882.4    -36987.73    3757.7055   -40745.436    543.00173    0.9829102 
   45900    299.33906   -424.91876    126991.93   -36899.782    3718.9934   -40618.775    544.21745   0.98206245 
   46000    296.72215    -225.5243    126845.88    -36865.26    3686.4808   -40551.741    545.02155   0.98319319 
   46100    305.93829   -421.98308    126912.59   -36797.376    3800.9823   -40598.358    546.91251   0.98267637 
   46200    305.05813   -550.35702    127110.07   -36764.128    3790.0471   -40554.175    549.09705    0.9811497 
   46300    298.26647   -593.38249    126794.04    -36787.99    3705.6675   -40493.658    548.87839   0.98359519 
   46400    298.76539   -250.19173    126680.59   -36853.227    3711.8661   -40565.093    548.99844     0.984476 
   46500    292.84037   -344.56958    126787.37   -36849.718    3638.2535   -40487.971    550.29009   0.98364688 
   46600    299.11292   -489.20838    126408.75   -36837.031    3716.1838   -40553.215    550.17419   0.98659316 
   46700    300.12576   -534.79309    126342.82   -36929.309    3728.7674   -40658.076    550.76219   0.98710795 
   46800    293.84063   -576.65433    126576.94   -37023.237    3650.6807   -40673.918    551.66336   0.98528221 
   46900    297.01102   -214.65978    126720.24   -36971.594    3690.0697   -40661.663    553.29007     0.984168 
   47000    297.50688   -602.91476    126904.18   -36931.021    3696.2303   -40627.251    555.22581   0.98274146 
   47100    294.68083   -218.63469    127221.43   -36889.355    3661.1194   -40550.475    558.38527   0.98029085 
   47200    298.97056   -707.76616    127482.39   -36957.356    3714.4151   -40671.771    560.76533   0.97828413 
   47300    294.85288   -544.65597     127372.2   -36999.998    3663.2569   -40663.255    561.16698   0.97913051 
   47400    302.65173   -732.07219    127359.14   -36982.664    3760.1501   -40742.814    562.84479    0.9792309 
   47500    297.01018   -676.52376    127284.13   -36896.809    3690.0594   -40586.868    563.49503   0.97980793 
   47600    296.59015   -302.51789    127164.25   -36820.921    3684.8409   -40505.762    565.38781   0.98073162 
   47700     297.0284   -587.93699    127083.03   -36871.346    3690.2857   -40561.632    567.14869   0.98135842 
   47800    298.45141   -790.39457    126791.03   -36909.131    3707.9651   -40617.097    568.06184   0.98361853 
   47900    289.36527   -255.78941    126588.24   -37008.394    3595.0789   -40603.472    569.38602   0.98519421 
   48000    287.87106   -445.59509    126878.09   -36995.559    3576.5147   -40572.074    571.04837   0.98294355 
   48100    294.81965    -648.0501    126327.02    -36957.96    3662.8441   -40620.804    571.45725   0.98723142 
   48200    293.80687   -753.64578    126315.35   -36994.098    3650.2613   -40644.359    572.93743   0.98732265 
   48300     293.0765   -390.71695    126096.22   -36974.099    3641.1873   -40615.286     573.8588   0.98903843 
   48400    296.74189   -624.47409    126403.79   -36874.081    3686.7261   -40560.807    576.33684   0.98663186 
   48500    295.04265   -662.15549    126184.98   -36965.603    3665.6146   -40631.218    577.10198   0.98834268 
   48600    294.04662   -224.27168    126620.66   -36939.119      3653.24   -40592.359    580.38436   0.98494198 
   48700    296.94572   -535.73836     126844.7   -36917.927    3689.2585   -40607.185    582.51683   0.98320232 
   48800    297.47941    -462.2722    126774.35   -36957.563     3695.889   -40653.452    582.85522   0.98374789 
   48900    299.46923   -253.35702    126735.97   -36950.399    3720.6105    -40671.01     584.4426   0.98404586 
   49000    293.53902   -678.31463    126814.64   -36998.899    3646.9336   -40645.832    587.07046   0.98343537 
   49100    292.16412   -292.12832    126537.49     -37002.4    3629.8518   -40632.252     587.6536   0.98558933 
   49200    296.80029   -545.76707     126587.9   -37037.858    3687.4517   -40725.309    588.93339   0.98519689 
   49300    298.85013   -598.15966    126571.78   -36989.107    3712.9189   -40702.026     589.0988   0.98532236 
   49400    297.79667   -293.59535    126483.99   -36974.274    3699.8306   -40674.105    590.20138   0.98600624 
   49500    296.68093   -384.93091    126726.67   -37004.561    3685.9686   -40690.529    592.39772   0.98411806 
   49600    298.75182   -581.83949    126734.14    -36975.32    3711.6974   -40687.018    593.83005   0.98406007 
   49700    295.74976   -568.66548    126964.97   -37010.743    3674.3999   -40685.143    596.00712     0.982271 
   49800     292.2062   -460.56501    126762.97   -37060.603    3630.3746   -40690.978    596.35074   0.98383627 
   49900    295.54689   -618.43517    126827.68   -36901.691    3671.8794   -40573.571    598.33331   0.98333425 
   50000    297.09154   -492.31621    126918.12   -36921.448    3691.0701   -40612.518    599.19855   0.98263354 
   50100    295.45098   -368.42204    126816.37   -36938.712    3670.6878     -40609.4    600.24109   0.98342193 
   50200    294.42325   -849.57414    126793.32   -37002.856    3657.9193   -40660.776    601.96764   0.98360073 
   50300    295.45377    -14.48532    126807.31   -37013.066    3670.7224   -40683.789    602.98351    0.9834922 
   50400    294.85976   -568.23107    126932.79    -37057.67    3663.3424   -40721.012    604.12176   0.98251999 
   50500    292.94504   -711.26194    126597.51   -37095.231    3639.5539   -40734.785    603.68914   0.98512208 
   50600    291.18148   -553.17978    126521.22   -37102.937    3617.6434   -40720.581    604.50358   0.98571607 
   50700    296.39628   -534.24112    126325.37   -37115.196    3682.4323   -40797.628    606.18427    0.9872443 
   50800    291.91986   -218.75615    126710.82   -37105.965    3626.8171   -40732.782    608.17447   0.98424114 
   50900    295.42409   -733.41851     126844.8   -36991.457    3670.3537   -40661.811    610.55865   0.98320153 
   51000    293.78117   -350.74619    126750.27   -37010.556     3649.942   -40660.498    611.95214   0.98393481 
   51100    288.24586   -371.22341    126996.41   -37064.291    3581.1713   -40645.462    612.87785   0.98202776 
   51200    293.03011   -723.26803    126890.36   -36997.862    3640.6109   -40638.473    614.34585   0.98284854 
   51300    292.23656   -523.30952    126691.23   -37109.368    3630.7518    -40740.12    614.51039   0.98439338 
   51400    291.53269    -347.6661    126790.43   -37116.869    3622.0069   -40738.876    615.85352   0.98362314 
   51500     293.0942   -535.13649    126438.24   -37132.949    3641.4071   -40774.356    616.01781   0.98636301 
   51600    292.95651   -353.90559    126460.19   -37044.763    3639.6965    -40684.46    618.05115   0.98619181 
   51700    296.66441     -559.415    126335.36   -37049.161    3685.7635   -40734.924    618.60819   0.98716622 
   51800     289.3712   -468.30146    126320.92   -37125.421    3595.1525   -40720.574    620.32298   0.98727908 
   51900    289.00551   -789.59049    126242.23   -37188.134    3590.6092   -40778.743    620.41245   0.98789453 
   52000    288.60312   -507.42738    126283.12   -37232.793    3585.6099   -40818.403    621.78181   0.98757461 
   52100    292.81467   -275.54277    126760.71   -37123.751    3637.9342   -40761.685    624.19148   0.98385378 
   52200    294.26778   -363.05761    126662.75   -37186.955    3655.9876   -40842.942    625.01872   0.98461472 
   52300    292.95315    -503.9984    126567.59   -37186.325    3639.6547    -40825.98    626.03746   0.98535498 
   52400     292.3458    -636.2341    126393.08   -37109.921     3632.109    -40742.03    626.38229   0.98671542 
   52500      292.702   -288.28646    126653.48   -37076.093    3636.5344   -40712.628    628.43624   0.98468674 
   52600    293.85517   -561.25456    126633.75   -37083.891    3650.8615   -40734.752    629.44231   0.98484017 
   52700    287.66476    -658.2755    126459.91   -37087.197    3573.9516   -40661.148    629.79161   0.98619399 
   52800    297.87083    -582.3627    126634.83   -37015.044    3700.7521   -40715.796    631.15324   0.98483178 
   52900    292.94503   -489.21591    126783.13   -36981.189    3639.5538   -40620.743    632.11767   0.98367979 
   53000    297.28532   -638.67199    126879.64   -36950.136    3693.4777   -40643.614    633.69447   0.98293154 
   53100    290.20265   -525.79756    126815.54   -37019.447    3605.4825    -40624.93     634.7235   0.98342843 
   53200    291.80562   -583.86033    126830.89   -37003.221    3625.3978   -40628.618    636.29438   0.98330938 
   53300    294.40632   -657.87038    126502.14   -36975.179    3657.7089   -40632.888    635.74696   0.98586477 
   53400    294.14678   -674.41772    126310.97    -37093.35    3654.4844   -40747.834    637.25808   0.98735689 
   53500    292.00333   -426.13536    126362.93   -37116.347    3627.8541   -40744.201    638.57409    0.9869509 
   53600     296.6968   -555.28851    126529.63   -37127.709    3686.1659   -40813.874    639.36118   0.98565058 
   53700    290.29147    -682.1139    126714.48   -37161.563    3606.5859   -40768.149    641.12954   0.98421273 
   53800    297.51101   -515.78553     126912.4   -36997.375    3696.2817   -40693.656    642.84574   0.98267781 
   53900    291.45076   -321.58287    126942.42   -37074.059     3620.989   -40695.048    644.33119   0.98244546 
   54000    293.91124   -477.54545     127071.6   -37056.655    3651.5581   -40708.213    645.65254   0.98144674 
   54100    294.99183   -643.80367    126917.41   -37068.027    3664.9833    -40733.01    646.18088   0.98263904 
   54200    294.57061   -499.65227    127020.77   -37037.991    3659.7501   -40697.741    646.91433   0.98183947 
   54300    294.82316   -443.98643    127070.93   -36986.101    3662.8877   -40648.989    648.10868   0.98145185 
   54400    295.26126   -532.67366     126995.4   -37039.829    3668.3307   -40708.159    650.13112   0.98203558 
   54500    299.37691   -684.38102     126621.2    -37038.52    3719.4636   -40757.984    649.70489   0.98493776 
   54600    302.46967   -454.39607    126604.86   -36904.494    3757.8881   -40662.382    650.56235   0.98506491 
   54700    296.73856   -591.64916     126636.5   -36914.111    3686.6848   -40600.796    652.70687   0.98481878 
   54800    297.04021   -340.34943    126945.19   -36998.239    3690.4325   -40688.672    655.08462   0.98242398 
   54900    292.70143   -712.04556    126966.74   -37064.212    3636.5274   -40700.739    657.10796   0.98225725 
   55000    291.66678   -561.27252    127285.84    -37107.61    3623.6728   -40731.282    660.15873   0.97979478 
   55100    297.58785   -553.28771    126918.28   -37055.648    3697.2363   -40752.885    659.72522   0.98263232 
   55200    289.53847   -363.94361     126718.4   -37059.511    3597.2307   -40656.741    659.96487   0.98418228 
   55300    295.18451    -434.8492    126906.29   -36992.976    3667.3772   -40660.353    661.27873   0.98272513 
   55400    298.82291   -929.25309    126769.81   -36991.946    3712.5807   -40704.526    661.97855   0.98378316 
   55500    300.25887   -419.25853    126996.23   -36930.888    3730.4211   -40661.309    663.97622    0.9820292 
   55600    288.58161   -417.34324    126794.75   -36991.705    3585.3426   -40577.048    664.16289   0.98358963 
   55700    297.53173   -774.08831    126400.45   -36980.535     3696.539   -40677.074    663.75006    0.9866579 
   55800    295.65669   -158.84582    126746.99    -37003.77    3673.2435   -40677.014    666.80399   0.98396027 
   55900    298.07761   -455.61411    127021.65   -36967.272    3703.3211   -40670.593    668.78523   0.98183268 
   56000    296.23679   -561.79823    127050.77   -36969.219    3680.4507    -40649.67    670.67816   0.98160759 
   56100    294.34845   -500.96568    126969.24   -36918.828    3656.9899   -40575.818    671.49304   0.98223795 
   56200    301.73456   -660.69055    126756.13   -36934.392    3748.7551   -40683.147    671.90927   0.98388936 
   56300    293.44805   -303.71246    126922.11   -36964.867    3645.8033    -40610.67    673.74916   0.98260268 
   56400    294.62875   -621.78301    126947.12    -36951.86    3660.4723   -40612.332    675.53738   0.98240912 
   56500    292.19538   -538.17939    127013.07   -37054.441    3630.2402   -40684.681    677.33087   0.98189896 
   56600    290.77677   -566.98026    127106.38   -37084.039    3612.6153   -40696.654    679.52303   0.98117816 
   56700    290.81315   -567.10094    127191.89   -37116.268    3613.0673   -40729.336    681.47241   0.98051848 
   56800    296.35612   -729.90087    127082.63   -37029.925    3681.9332   -40711.858    682.54702   0.98136153 
   56900    290.40499   -661.74208    127286.74   -36991.207    3607.9963   -40599.203    683.98491   0.97978785 
   57000     295.5392   -469.36331    127047.06   -36908.192    3671.7838   -40579.976    684.86098   0.98163626 
   57100    298.39907   -427.52382    127184.27   -36974.216    3707.3149   -40681.531    685.79858   0.98057727 
   57200    291.20556   -337.21368    127083.27   -37054.315    3617.9426   -40672.258     687.5725   0.98135662 
   57300    295.39688   -673.91247    126733.84   -37128.683    3670.0156   -40798.699    688.04264   0.98406235 
   57400    289.58997   -396.84904    126743.64   -37137.887    3597.8705   -40735.758    690.14573   0.98398626 
   57500    290.97701   -782.17389    126763.36   -37163.922    3615.1032   -40779.025    690.10283   0.98383319 
   57600    293.26869   -685.08973    126824.26    -37130.87     3643.575   -40774.445     690.9474   0.98336077 
   57700    287.93481   -763.66459    126798.21   -37206.056    3577.3068   -40783.362    692.99157   0.98356282 
   57800    290.72522   -301.36359    126573.47   -37239.902    3611.9749   -40851.877    692.98925   0.98530922 
   57900    293.03521   -660.63249     126594.1   -37242.297    3640.6742   -40882.971     695.0741   0.98514863 
   58000    292.15984    -660.0891    126804.17   -37203.928    3629.7986   -40833.727    697.92759   0.98351656 
   58100    292.26118     -526.688    126687.59   -37122.972    3631.0576    -40754.03    699.51307    0.9844216 
   58200    292.66777   -484.30508    127003.26   -37047.248    3636.1092   -40683.357    702.31486   0.98197482 
   58300    299.91561   -522.25062    127025.08   -36955.653    3726.1564   -40681.809    703.84337   0.98180617 
   58400    295.66033   -613.04829     126965.3   -36953.951    3673.2887    -40627.24    703.74351   0.98226839 
   58500    298.70377   -268.74698    127041.97   -36964.991    3711.1005   -40676.091    706.36563   0.98167563 
   58600    300.80146   -491.57131    127284.13    -36904.45    3737.1622   -40641.612    707.88117   0.97980797 
   58700    298.15893   -772.14087    127173.32   -36940.854    3704.3314   -40645.185    707.93123   0.98066168 
   58800    295.49034   -390.51119    126991.49   -37019.764    3671.1768   -40690.941    708.17548   0.98206583 
   58900    291.11535   -656.80992    126892.01    -37067.13    3616.8218   -40683.952    709.04032   0.98283571 
   59000    289.58069   -711.00052    126550.69   -37063.209    3597.7553   -40660.964    708.43906   0.98548655 
   59100    290.21557   -529.06612    126784.44   -37080.248     3605.643   -40685.891    710.12132   0.98366967 
   59200    294.52969   -521.90563    126846.42   -37091.346    3659.2416   -40750.588    711.07755     0.983189 
   59300    296.31419   -694.47068    127095.69   -37077.928    3681.4123    -40759.34    714.78695   0.98126067 
   59400     290.8344     -450.465    126934.18    -37141.53    3613.3313   -40754.861    715.49641   0.98250922 
   59500    293.22825   -504.07689    127273.91     -37051.9    3643.0725   -40694.972     718.3939   0.97988661 
   59600    297.10117   -690.15003    126820.03   -37057.023    3691.1898   -40748.212     716.3464   0.98339357 
   59700    291.94874   -782.26303    126838.08   -37062.007    3627.1759   -40689.183    716.45119   0.98325361 
   59800    295.87161   -704.48341    126896.35   -37071.157    3675.9137    -40747.07    717.49364   0.98280217 
   59900    297.11388   -576.73475    126867.45   -37033.002    3691.3477    -40724.35     719.3276   0.98302602 
   60000    292.68675   -511.17966    127237.18   -37097.361    3636.3449   -40733.705    722.68074   0.98016954 
   60100    295.72019   -572.30004    127145.45   -37036.738    3674.0324   -40710.771    721.74523   0.98087662 
   60200    293.54384   -315.61003    127301.34   -37000.659    3646.9934   -40647.652    723.44661    0.9796755 
   60300    295.07258   -366.75841    127467.77   -36936.508    3665.9865   -40602.495    725.43365   0.97839636 
   60400    299.40296   -549.93173    127549.92   -36856.576    3719.7873   -40576.363    726.39092   0.97776626 
   60500     296.2972   -481.15735    127422.19    -36917.56    3681.2013   -40598.761    727.30916   0.97874632 
   60600    296.61451   -530.99834    127284.84    -36976.96    3685.1435   -40662.103     727.8999   0.97980247 
   60700    288.99529   -538.73776    127179.42   -37036.914    3590.4822   -40627.396    728.88142   0.98061468 
   60800     298.2573   -436.23583    126941.72   -36960.456    3705.5536    -40666.01    728.23735   0.98245087 
   60900    293.53894   -425.26171    127056.68   -36923.208    3646.9325   -40570.141    729.68937   0.98156199 
   61000     301.2413   -582.02761    126782.37   -36980.594    3742.6268   -40723.221    729.14168   0.98368566 
   61100    294.13582   -538.71606    126983.34   -37023.548    3654.3482   -40677.896    731.27809   0.98212888 
   61200    297.43448    -381.7827    126802.66   -37037.636    3695.3308   -40732.967    732.60569   0.98352831 
   61300    291.94377   -312.63792    127335.37   -37037.742    3627.1142   -40664.856    735.86416   0.97941369 
   61400     298.4303   -670.91784    127191.62   -37103.659    3707.7029   -40811.362    735.31691   0.98052063 
   61500    297.88796   -444.83865    127400.42   -37106.156    3700.9649   -40807.121    737.63722   0.97891358 
   61600    291.56551   -747.56428    127334.69   -37051.291    3622.4147   -40673.705    737.38187   0.97941893 
   61700    294.67926   -242.80666     126896.2   -37185.655    3661.0999   -40846.755    737.04804   0.98280329 
   61800    287.65425   -522.65181    127383.95   -37267.041    3573.8211   -40840.862    740.14479    0.9790402 
   61900    289.20936   -613.80249    127120.93   -37196.075    3593.1419   -40789.217    739.55484   0.98106586 
   62000    291.96423   -521.85842    126707.95   -37157.605    3627.3683   -40784.974    738.81101   0.98426341 
   62100    287.92973   -502.38534    126665.72     -37166.7    3577.2437   -40743.944    740.51959   0.98459162 
   62200    292.65545   -438.35419    126772.96   -37091.982    3635.9561   -40727.938    742.23889   0.98375874 
   62300    290.11515   -346.54962    126804.75   -37128.626    3604.3954   -40733.022    743.96707   0.98351204 
   62400    294.77657   -203.32156    127154.29   -37045.475    3662.3089   -40707.784    745.81532   0.98080846 
   62500     298.0801   -616.39694    127183.65   -37053.735     3703.352   -40757.087    747.32047   0.98058208 
   62600    290.36729   -714.37532    126950.56   -37065.893    3607.5279   -40673.421    746.68096   0.98238249 
   62700    293.90029    -460.4658     126838.2   -37037.023     3651.422   -40688.445    747.11725   0.98325271 
   62800    288.30553   -574.49677    126787.52   -37035.442    3581.9126   -40617.355    747.71104   0.98364572 
   62900    296.33299   -283.41736    126575.62   -36967.114    3681.6459    -40648.76     747.5701   0.98529243 
   63000    297.25383   -522.85489    126634.45   -36939.333    3693.0864    -40632.42    750.14552   0.98483472 
   63100    302.31341   -651.41178    126719.86   -36935.092    3755.9467   -40691.039     752.0963   0.98417097 
   63200     301.3847   -373.83111    127158.96   -36982.226    3744.4085   -40726.634    755.17058   0.98077242 
   63300    293.90745    -233.8401    127002.43   -37045.073    3651.5109   -40696.583    756.25516   0.98198126 
   63400    297.71653    -723.3894    127342.13   -36926.522     3698.835   -40625.357    758.66114    0.9793617 
   63500    297.72522   -267.93664    127205.95   -37010.087     3698.943    -40709.03    759.69539   0.98041014 
   63600    298.97115   -746.96179    127278.76   -37011.086    3714.4224   -40725.509    761.86872   0.97984933 
   63700    290.83399    -628.2888    127081.27   -37029.125    3613.3263   -40642.451    761.71661   0.98137203 
   63800    291.57589   -691.16384    126914.79   -37155.168    3622.5436   -40777.712     761.9582   0.98265936 
   63900     293.6128   -501.70674    126738.62   -37145.777    3647.8501   -40793.628    762.38265   0.98402524 
   64000    284.14053   -148.91472     126890.8   -37118.619    3530.1665   -40648.785    764.73257   0.98284511 
   64100    295.29748   -222.91655    127110.73   -36982.928    3668.7806   -40651.709    766.60015   0.98114461 
   64200     302.6708    -461.9521    127195.59    -36993.27    3760.3869   -40753.657    767.52061      0.98049 
   64300    304.93029   -449.49638    127366.87   -36888.024    3788.4589   -40676.483      768.871   0.97917147 
   64400    298.58837    -426.1085     127924.3   -36919.586    3709.6667   -40629.253    771.36052   0.97490475 
   64500    298.34923   -524.72774    127943.11   -36896.472    3706.6957   -40603.168    771.94519   0.97476135 
   64600    303.09854   -641.25572    127873.08   -36965.539    3765.7012    -40731.24    772.25187   0.97529526 
   64700    291.80844   -735.72936    127698.09   -36988.336    3625.4328   -40613.769    772.78053   0.97663168 
   64800     296.7719   -380.65495    127426.11   -37011.971    3687.0989    -40699.07    772.04342   0.97871621 
   64900    294.38747   -580.83798    127288.09   -36992.081    3657.4747   -40649.556    774.24199   0.97977745 
   65000    296.63671   -567.71536    127320.49   -36980.095    3685.4194   -40665.515    775.30191   0.97952816 
   65100    297.70701   -580.02282    127131.94   -36992.342    3698.7167   -40691.059    775.66485    0.9809809 
   65200    293.37874   -297.72505    127455.81   -36973.895    3644.9422   -40618.837    778.40113   0.97848821 
   65300    295.97659   -392.22881    127258.34   -36978.362     3677.218    -40655.58    778.59697   0.98000654 
   65400    296.28156   -377.64766    126849.23   -36929.307    3681.0069   -40610.314    777.60733   0.98316719 
   65500    295.95832   -842.44474     126705.8    -36983.95     3676.991   -40660.941    778.63435   0.98428015 
   65600    293.33209    -409.3071    126859.94   -37014.002    3644.3627   -40658.365    780.65248   0.98308424 
   65700    288.55518   -574.23187    126625.33   -37101.246    3585.0143    -40686.26    782.07624   0.98490567 
   65800    292.07298   -504.67291    126756.22   -37087.262    3628.7195   -40715.981    784.09978   0.98388862 
   65900    291.07671   -395.81041       126432   -37031.041    3616.3418   -40647.383    784.70687   0.98641173 
   66000    295.60014   -469.12934    126405.65   -36895.559     3672.541     -40568.1    786.28251   0.98661735 
   66100    299.75579   -740.92979    126778.32   -36818.013    3724.1708   -40542.184    789.28874   0.98371715 
   66200    302.50435   -406.48356    126660.14   -36769.777     3758.319   -40528.096    790.28809   0.98463495 
   66300    295.89319   -408.63422    126998.18   -36842.671    3676.1818   -40518.852    792.72087    0.9820141 
   66400     295.7897   -664.56956     127343.7   -36891.918     3674.896   -40566.814    795.26302   0.97934963 
   66500    299.97005   -744.96854    127200.62   -36936.762    3726.8328   -40663.595    796.35339   0.98045125 
   66600    301.63877   -572.79091     127052.6   -36995.187    3747.5649   -40742.752    797.17962   0.98159346 
   66700    293.12026   -313.86788    126899.06   -37013.569    3641.7309     -40655.3    798.14035   0.98278116 
   66800    298.76774    -362.8132    127307.82   -36924.207    3711.8953   -40636.102    799.96467    0.9796256 
[...]
   84700      291.158   -317.15243    126418.96   -37174.297    3617.3517   -40791.648    990.58941   0.98651345 
   84800    293.51056   -360.57377    126736.43   -37127.924      3646.58   -40774.504    993.61472   0.98404223 
   84900    295.02523    -554.2547    126867.11   -37106.358    3665.3983   -40771.757    995.57994   0.98302861 
   85000    298.13626   -474.09332    126579.46   -37041.729    3704.0498   -40745.779    995.47156    0.9852626 
   85100    291.42233   -315.08622    126709.74   -37030.557    3620.6358   -40651.193    996.97599   0.98424954 
   85200    294.17023   -554.18149    126953.51   -37030.522    3654.7757   -40685.298    999.44182   0.98235963 
   85300    294.40046   -663.92249    126774.09   -37071.111    3657.6361   -40728.748    998.98513   0.98374998 
   85400    288.05032   -210.85594    126657.98   -37078.253    3578.7419   -40656.995    999.58453   0.98465173 
   85500    295.80475   -262.13786    126800.05   -37023.751     3675.083   -40698.834    1001.9822   0.98354855 
   85600    298.23589   -348.68267    126896.53   -36999.576    3705.2875   -40704.864    1003.5289   0.98280071 
   85700    294.53497   -422.31213    127014.56    -37053.41    3659.3072   -40712.717    1004.4634   0.98188745 
   85800    292.02135   -643.20468    126962.16   -37059.198     3628.078   -40687.276    1006.6407   0.98229269 
   85900    293.58218   -484.21283    127271.83   -36943.686    3647.4698   -40591.155    1009.6189   0.97990261 
   86000    300.39897   -475.67104    127169.66   -36993.322    3732.1617   -40725.483    1008.9439   0.98068989 
   86100    297.51025     -476.926    127077.66    -37012.92    3696.2722   -40709.192    1009.0514   0.98139988 
   86200    292.24394   -157.46414    127184.66   -36960.251    3630.8434   -40591.095    1010.8738   0.98057428 
   86300      295.224   -604.36516     127177.4   -36990.914    3667.8678   -40658.782    1011.3676   0.98063023 
   86400    292.79148   -632.22469    127080.19    -36988.62    3637.6461   -40626.266    1010.6494   0.98138036 
   86500    296.55601   -473.68261     126966.9   -36976.809    3684.4167   -40661.226    1011.0401   0.98225605 
   86600    300.69484   -736.78647    127185.83   -36889.229    3735.8376   -40625.067    1014.0942   0.98056523 
   86700    296.32737   -349.03889    127281.67   -36876.498    3681.5761   -40558.074    1014.7206   0.97982693 
   86800    295.59897   -584.11524    127281.43   -36962.366    3672.5264   -40634.893    1016.3393   0.97982876 
   86900     298.7951   -284.31637    127291.35   -36944.973    3712.2351   -40657.208    1018.0342   0.97975241 
   87000    299.63493   -394.73899    127393.84   -36945.093    3722.6693   -40667.763    1021.3965   0.97896416 
   87100    293.27998    -586.8609    127304.08   -36978.771    3643.7153   -40622.487    1021.5371   0.97965437 
   87200    297.56332   -667.18692    127172.09   -37001.031    3696.9316   -40697.963    1022.1268   0.98067118 
   87300    293.28153    -564.6281    126932.14   -37000.807    3643.7345   -40644.542    1021.2272   0.98252502 
   87400     292.6062   -495.51751    126992.18   -37014.524    3635.3441   -40649.868    1022.8698   0.98206047 
   87500     294.0071    -725.1352    126922.22   -37039.031     3652.749    -40691.78    1023.7953   0.98260181 
   87600    295.60885   -480.30105    126933.55   -37036.184    3672.6492   -40708.834    1024.7451   0.98251411 
   87700    298.81428   -551.88273    126811.31   -37066.575    3712.4735   -40779.048    1026.0772   0.98346124 
   87800    295.98546   -323.58821    126884.13   -37038.984    3677.3281   -40716.312     1027.727   0.98289677 
   87900    293.61142   -533.17427    126562.96   -37079.552    3647.8331   -40727.385    1027.2356   0.98539101 
   88000    294.95624   -406.51705    126624.12   -37089.423    3664.5411   -40753.964    1029.1968   0.98491508 
   88100    297.28616   -458.93208    127061.95   -37022.175    3693.4881   -40715.663    1032.8937   0.98152122 
   88200    299.95789    -377.4614     127264.2   -36968.379    3726.6817    -40695.06    1035.9506   0.97996141 
   88300    296.63171    -700.5957    127360.71   -37021.046    3685.3572   -40706.404    1036.3732   0.97921882 
   88400    290.83025   -470.99776    127196.18   -37140.287    3613.2798   -40753.567     1036.223   0.98048543 
   88500    294.37672   -670.85834    127276.51   -37065.667    3657.3411   -40723.008    1037.5895   0.97986663 
   88600    295.44616   -479.45929    127032.82   -36980.231    3670.6279   -40650.858    1037.1999   0.98174632 
   88700    297.03535   -437.84926     126853.6   -36946.366     3690.372   -40636.738    1037.5346   0.98313338 
   88800    297.30853   -735.08805    126940.48   -36863.857     3693.766   -40557.623    1039.4051   0.98246045 
   88900    292.81956   -250.70541    126929.14   -36885.921     3637.995   -40523.916    1040.5868   0.98254822 
   89000    298.64395    -624.8915    127025.41   -36829.366    3710.3573   -40539.723    1041.8329    0.9818036 
   89100    289.68317   -641.95438    126872.18   -36930.763    3599.0284   -40529.792    1042.8102   0.98298933 
   89200     289.2017   -428.55272    126797.21   -36966.983    3593.0466    -40560.03    1043.5864   0.98357056 
   89300    292.67756   -720.22257    126857.45    -37007.43    3636.2308   -40643.661    1045.4835   0.98310349 
   89400    294.51445   -609.88461    126617.31   -37082.085    3659.0524   -40741.137    1045.9094   0.98496807 
   89500    294.89952   -387.02097    126874.26   -37135.566    3663.8365   -40799.403    1048.0196   0.98297326 
   89600    290.10986   -545.80038     126670.7   -37231.459    3604.3297   -40835.789    1048.1394   0.98455289 
   89700    295.04086   -403.95666    126611.42   -37204.415    3665.5924   -40870.008    1048.6251   0.98501389 
   89800    290.87646   -438.67447     126728.4   -37153.987    3613.8539   -40767.841    1051.2584    0.9841046 
   89900    281.97844   -424.88846     126728.1   -37240.936    3503.3047   -40744.241    1052.5274   0.98410697 
   90000    296.63937   -419.32713    126733.52   -37107.664    3685.4524   -40793.116    1054.7081   0.98406487 
   90100    288.07524   -371.85175    127070.85   -37104.955    3579.0514   -40684.006     1057.065   0.98145246 
   90200    292.23435   -627.83731    127070.06   -37164.181    3630.7244   -40794.905    1058.1951   0.98145863 
   90300    292.27303    -617.6535    127274.32   -37175.541    3631.2049   -40806.746    1059.9745   0.97988345 
   90400    288.48217   -189.09207    126802.85   -37165.921    3584.1072   -40750.028    1058.8086   0.98352682 
   90500    292.58067   -538.84051    127202.52   -37097.851     3635.027   -40732.878    1060.9434   0.98043657 
   90600    296.26703   -566.15508    126927.56   -36986.594    3680.8265    -40667.42    1060.7512   0.98256045 
   90700    296.07369   -265.18864    126695.14   -37004.083    3678.4243   -40682.507    1061.0007   0.98436298 
   90800    292.56993   -478.09145    126704.36   -37026.539    3634.8936   -40661.433    1062.3258   0.98429137 
   90900    290.94382   -536.47564    126738.81   -37115.933    3614.6908   -40730.624    1063.0284   0.98402377 
   91000    295.19002   -844.46339    126619.05   -37158.134    3667.4457    -40825.58    1064.0065   0.98495453 
   91100    288.82217   -668.70225    126510.63   -37117.125    3588.3314   -40705.456     1064.666   0.98579863 
   91200     290.7667   -566.27016    126454.55   -37053.119    3612.4902    -40665.61    1065.9485   0.98623578 
   91300    300.56231   -558.38469    127012.17   -36918.718     3734.191   -40652.909    1069.9164   0.98190591 
   91400    294.78893   -480.99497    127060.06   -36893.668    3662.4625   -40556.131    1071.7067   0.98153588 
   91500    296.50218   -719.86118    126557.73   -36886.542    3683.7479    -40570.29    1070.5794   0.98543172 
   91600    293.30147   -372.47537    126624.56   -36927.005    3643.9823   -40570.987    1072.8493   0.98491165 
   91700    294.85896   -339.02938    127029.03   -37027.484    3663.3325   -40690.816    1076.1135   0.98177559 
   91800    293.64587   -713.66953    126936.06   -36999.051     3648.261   -40647.312     1076.651   0.98249465 
   91900    294.57318   -408.42601    126624.29   -37037.357     3659.782   -40697.139    1074.9754   0.98491377 
   92000    294.78286   -539.87421    126903.39   -37042.621     3662.387   -40705.008    1078.5682   0.98274764 
   92100     289.4136   -539.43301    126785.22   -37109.744    3595.6793   -40705.423    1079.6558   0.98366358 
   92200    301.22511   -497.29543    126759.58   -37010.715    3742.4257   -40753.141    1081.1458   0.98386255 
   92300    299.48338   -489.78658    127147.58   -36877.875    3720.7863   -40598.661    1085.8006   0.98086023 
   92400    302.33851   -366.00216    126878.55   -36879.475    3756.2586   -40635.734    1086.0318   0.98294001 
   92500    292.41092   -490.36297    126941.08   -36921.066     3632.918   -40553.984    1087.8433    0.9824558 
   92600    296.27468   -548.79704    126885.36   -36899.439    3680.9214   -40580.361    1089.3865   0.98288722 
   92700    298.35906   -491.44936    126614.26   -36915.959    3706.8178   -40622.777    1089.4905   0.98499179 
   92800    296.28344   -647.87638    126699.97   -36981.919    3681.0303    -40662.95     1092.562   0.98432546 
   92900    300.49627   -702.69512    126654.62   -36953.212    3733.3706   -40686.583      1093.71   0.98467786 
   93000    296.51623   -480.39831     126605.1   -37008.989    3683.9225   -40692.912    1093.7021   0.98506301 
   93100     294.8327    17.714512    127021.97   -36913.895    3663.0063   -40576.901    1097.4856   0.98183018 
   93200    294.53466   -745.11898    127200.02   -36934.735    3659.3034   -40594.038     1100.074   0.98045582 
   93300    293.36203   -542.99486    127177.25   -36955.735    3644.7346   -40600.469    1101.1653   0.98063138 
   93400    295.41704   -502.79989    127129.46   -36996.076    3670.2661   -40666.342     1102.359   0.98100004 
   93500    297.46886    -543.4915     127071.2   -37036.743     3695.758   -40732.501    1104.6162   0.98144981 
   93600    293.23922    -551.4399    127040.34   -37130.161    3643.2089    -40773.37    1106.3412    0.9816882 
   93700    289.73483   -616.80808    127176.99   -37122.877    3599.6703   -40722.547    1108.2882   0.98063337 
   93800    294.16442    -331.4183     126903.3   -37068.553    3654.7035   -40723.256    1108.3393    0.9827483 
   93900    291.05263   -208.39208    126878.04   -37051.378    3616.0426   -40667.421    1109.9716   0.98294394 
   94000    295.55738    -275.9359     127210.8   -37060.832    3672.0098   -40732.841    1112.6924   0.98037278 
   94100    287.38402   -157.38605     127139.6   -37058.752    3570.4638   -40629.216    1113.1395   0.98092179 
   94200    298.79423   -592.06981    127679.69   -37038.147    3712.2244   -40750.371    1116.6452   0.97677244 
   94300    298.61244   -768.87565    127107.49   -37000.171    3709.9659   -40710.137    1113.9129   0.98116961 
   94400    295.99907   -707.32836    126820.93   -36993.218    3677.4972   -40670.715    1113.8799   0.98338661 
   94500    303.72876   -618.65085    126858.87   -36924.817    3773.5311   -40698.348    1114.6795   0.98309251 
   94600    293.34496   -834.91726    126844.35   -36984.839    3644.5225   -40629.362    1115.0164   0.98320504 
   94700    293.40889   -209.58527       126269   -37045.854    3645.3168   -40691.171    1113.0069   0.98768506 
   94800    293.37439   -323.35421    126319.61    -37007.76    3644.8882   -40652.648    1114.2807   0.98728936 
   94900    292.69906   -413.94747    126412.54   -36948.941    3636.4978   -40585.439    1115.9488   0.98656355 
   95000    298.73887   -369.53141    126272.96   -36941.941    3711.5366   -40653.478    1115.8428   0.98765406 
   95100    297.55708    -451.4732    126770.25   -36899.025     3696.854   -40595.879    1119.9032   0.98377971 
   95200    292.22759    -239.3033    126633.68   -36911.839    3630.6403   -40542.479    1120.7637   0.98484073 
   95300    305.69142   -249.12822    126675.39   -36778.274    3797.9152   -40576.189    1122.4594   0.98451646 
   95400    290.92121   -382.25907    126857.59   -36880.043    3614.4099   -40494.453    1123.6292   0.98310243 
   95500    297.48464   -329.99449    126700.17   -36868.812     3695.954   -40564.766    1122.3243   0.98432386 
   95600    299.36736   -287.69076    126773.17   -36864.807     3719.345   -40584.152    1124.2012   0.98375704 
   95700    294.92325   -402.45496    126975.39   -36939.305    3664.1312   -40603.436    1125.6231   0.98219033 
   95800    288.61298   -321.47993    126804.28   -37023.877    3585.7323   -40609.609    1125.3308   0.98351574 
   95900    296.93576   -619.52306    126701.81   -36963.071    3689.1347   -40652.205    1126.7445   0.98431114 
   96000    297.06563   -755.90817    126719.44   -37036.232    3690.7482   -40726.981    1127.3758   0.98417419 
   96100    296.89753   -241.35145    126699.66   -36981.289    3688.6597   -40669.948     1126.668   0.98432783 
   96200    296.34869   -460.55036    126941.25   -37026.309    3681.8409    -40708.15    1130.1114   0.98245452 
   96300    295.81499   -416.04204    126840.59   -36979.044    3675.2102   -40654.254    1130.1524   0.98323421 
   96400    300.47214   -629.07516    127058.16   -36968.306    3733.0707   -40701.377    1132.7563   0.98155049 
   96500    293.46819   -452.97478    126792.25   -37030.126    3646.0536    -40676.18    1133.9086   0.98360902 
   96600    294.22787     -553.142    126770.66   -37008.539    3655.4918   -40664.031    1136.0818   0.98377658 
   96700    291.11004   -625.90918    126921.84   -37123.517    3616.7559   -40740.273    1137.7168   0.98260473 
   96800    290.85103   -776.25264    126605.78   -37187.065    3613.5379   -40800.603     1137.178   0.98505771 
   96900     296.9386   -327.60762    126544.17   -37132.315      3689.17   -40821.485    1138.1599   0.98553735 
   97000    293.37035   -520.64357     126689.1   -37157.031     3644.838   -40801.869    1139.3656   0.98440991 
   97100    294.03753   -616.80336    126437.38   -37164.677    3653.1271   -40817.804    1138.7477   0.98636971 
   97200    284.70067   -493.31341    126018.37   -37179.765    3537.1257    -40716.89    1138.3325   0.98964937 
   97300    288.28178      -166.21    126501.76    -37166.87    3581.6175   -40748.488    1142.3299   0.98586771 
   97400    293.47769   -150.82025    126707.79    -37151.39    3646.1716   -40797.562    1144.4712   0.98426467 
   97500    301.50057   -362.88928    127161.87   -37026.316     3745.848   -40772.164    1148.1219      0.98075 
   97600    286.41612   -500.65632    126924.72   -37119.159    3558.4385   -40677.598    1147.9287   0.98258249 
   97700    292.70447   -515.73339     127304.3   -37011.347    3636.5651   -40647.912     1151.134   0.97965272 
   97800    292.90337   -481.77755    127138.55   -36961.816    3639.0362   -40600.853    1151.4354    0.9809299 
   97900    301.71407   -516.38142    127386.04   -36901.475    3748.5005   -40649.976     1153.567   0.97902409 
   98000    304.03657   -552.52854    127492.72   -36926.406    3777.3553   -40703.762     1154.701   0.97820491 
   98100    292.95115   -531.62062    127408.86   -37041.615    3639.6298   -40681.244    1156.3991   0.97884872 
   98200    299.03091   -588.92523     127234.8   -37027.902    3715.1649   -40743.067    1155.7679   0.98018785 
   98300    293.54969   -576.93418    127345.26   -37095.923    3647.0662    -40742.99    1159.1594   0.97933764 
   98400    289.53841   -431.66399    127577.58   -37084.163    3597.2299   -40681.393    1160.5174   0.97755426 
   98500    287.85845   -697.28289    127390.58   -37094.495     3576.358   -40670.853     1159.773   0.97898924 
   98600    287.06213   -185.00022    127394.27   -37116.845    3566.4645    -40683.31    1162.2127   0.97896084 
   98700    286.85127   -271.44949     127367.2    -37157.97    3563.8449   -40721.815    1161.9877   0.97916889 
   98800    293.61157   -558.10766    127291.33   -37119.449    3647.8349   -40767.284    1163.5549   0.97975257 
   98900    296.21299   -747.60516    127250.91   -37146.145     3680.155     -40826.3     1163.829   0.98006372 
   99000     295.0919   -325.65719    127059.55   -37217.276    3666.2266   -40883.502    1163.9538    0.9815398 
   99100    289.69994   -410.90453    127120.59    -37139.71    3599.2368   -40738.947    1166.3541   0.98106846 
   99200    291.77077   -414.01403    127313.57   -37085.841    3624.9647   -40710.806    1167.7577    0.9795814 
   99300    298.36001   -251.23134    127387.02   -37043.778    3706.8296   -40750.607    1170.3225   0.97901654 
   99400    295.17268   -592.25634    127318.73   -36987.755    3667.2302   -40654.985    1171.7361   0.97954171 
   99500     305.0506   -464.84101    127240.71   -36836.944    3789.9536   -40626.897    1172.1722   0.98014228 
   99600    302.78219   -321.17769    127213.35   -36868.716    3761.7709   -40630.486    1173.5926    0.9803531 
   99700    293.70374   -471.02437    127274.97   -36884.463      3648.98   -40533.443    1176.4167   0.97987848 
   99800     302.7868   -617.22416    127419.94   -36862.672    3761.8282     -40624.5    1178.4247   0.97876362 
   99900    291.26631   -443.46504    127180.52   -36951.417    3618.6974   -40570.114    1177.7507   0.98060617 
  100000    295.59193   -383.79632    127007.29   -36966.637    3672.4389   -40639.076    1178.0014   0.98194364 
  100100    297.33533   -587.20849    127047.01   -36885.151     3694.099    -40579.25    1179.5529   0.98163666 
  100200    303.08539   -589.40465    127255.05   -36861.501    3765.5379   -40627.038    1182.0947   0.98003186 
  100300    303.51404   -245.03659    126803.26   -36865.399    3770.8634   -40636.263    1180.2859   0.98352365 
  100400    297.28786   -446.03957    126961.44   -36901.036    3693.5092   -40594.545    1182.9359   0.98229825 
  100500     298.0905   -455.22632    127393.87   -36771.598    3703.4812   -40475.079    1185.8852   0.97896396 
  100600    296.85364   -460.75891    127554.61    -36857.85    3688.1144   -40545.964    1189.7278   0.97773029 
  100630    301.03322   -467.30363    127457.91   -36834.389    3740.0416    -40574.43    1189.7481   0.97847204 
Loop time of 113.479 on 6 procs for 100000 steps with 4169 atoms

Performance: 380.687 ns/day, 0.063 hours/ns, 881.221 timesteps/s
98.9% CPU use with 6 MPI tasks x no OpenMP threads

MPI task timing breakdown:
Section |  min time  |  avg time  |  max time  |%varavg| %total
---------------------------------------------------------------
Pair    | 90.046     | 90.522     | 90.968     |   3.0 | 79.77
Neigh   | 6.5456     | 6.5975     | 6.7377     |   2.6 |  5.81
Comm    | 12.842     | 13.446     | 13.925     |   9.3 | 11.85
Output  | 0.17467    | 0.17606    | 0.18263    |   0.7 |  0.16
Modify  | 1.9861     | 2.015      | 2.0423     |   1.4 |  1.78
Other   |            | 0.7226     |            |       |  0.64

Nlocal:        694.833 ave         701 max         685 min
Histogram: 1 1 0 0 0 0 0 1 1 2
Nghost:        1485.83 ave        1497 max        1474 min
Histogram: 1 0 1 0 0 2 1 0 0 1
Neighs:        0.00000 ave           0 max           0 min
Histogram: 6 0 0 0 0 0 0 0 0 0
FullNghs:      19735.0 ave       19969 max       19377 min
Histogram: 1 0 0 1 1 0 0 0 1 2

Total # of neighbors = 118410
Ave neighs/atom = 28.402495
Neighbor list builds = 7060
Dangerous builds = 0

undump              1
unfix               2
unfix               3
unfix               4


################################################
#######         Run Simulation         #########
################################################

reset_timestep      0
log                 log.run_${NAME}
log                 log.run_liquid_295K_500atm_ML
