LAMMPS data file via write_data, version 29 Oct 2020, timestep = 800000

4175 atoms
1 atom types

-0.6552910290334921 50.655291029028476 xlo xhi
-0.6552910290334921 50.655291029028476 ylo yhi
-0.6552910290334921 50.655291029028476 zlo zhi

Masses

1 18.015

Atoms # atomic

2396 1 2.8697580177464284 1.7501912832577937 0.973845908524881 1 1 0
107 1 0.4707695976027144 0.5357042351509373 0.10315369095651128 0 0 0
1505 1 4.76358403091457 -0.10334562599552188 0.03146487083596583 0 0 1
476 1 8.18374689859663 1.9848860321368371 1.229762439290427 0 0 0
3526 1 28.08890979689341 22.2040494317663 -0.2625353918481177 0 0 1
543 1 2.558711095719884 17.606144033594713 0.07624116680253346 0 0 0
312 1 11.919029812613223 -0.07761674700645327 0.4150856192075112 1 0 0
3680 1 15.898447491813798 1.3140041899804369 2.21560526147727 0 1 1
2416 1 6.672744418755396 -0.35122165660384097 8.57428003650193 0 1 0
1958 1 18.77580107421369 1.2517290400223302 -0.2541874496326282 0 0 1
3731 1 21.454065154010163 1.768214677318086 0.1481337329828103 0 0 1
1681 1 23.04192251722387 -0.006594643055579996 0.9327880151646106 0 0 1
305 1 24.88340162406475 1.3774030298710125 2.6545561023859694 0 0 0
515 1 48.21100399526355 22.958170956544716 14.429274533190673 0 0 0
2768 1 27.248368678216426 2.835703604463202 1.4222457530911385 0 1 0
1881 1 32.011960510361426 17.619070025939006 -0.507695526555246 0 0 1
516 1 30.951976977559845 0.298311150490418 6.430095652383873 0 0 0
1429 1 10.587434927978615 -0.4997715378975798 4.2266117873563065 0 0 1
2133 1 36.34344952082223 1.84182009460062 2.3225953279651996 0 1 0
2274 1 38.09124095714022 0.4217386746776757 0.8114058925668037 0 1 0
1592 1 42.954515034028724 1.9161139916971508 0.8017685478087107 0 0 1
1588 1 47.82650367940132 0.619616530603982 2.222189961205867 0 0 1
484 1 50.433465407187995 -0.16052583423846883 2.51509806939588 -1 0 0
1743 1 4.439582455358933 4.6609924163577166 1.9723355662305262 1 0 1
1769 1 6.678141314943973 24.615556269568472 10.073284243661236 0 0 1
1886 1 29.192780863587892 17.936168149128008 -0.6237358840046922 0 0 1
3918 1 12.8789680081178 2.222358356334996 1.1713671777810777 0 1 1
416 1 21.999874457191314 -0.502962351077052 16.287912209772795 0 0 0
3002 1 43.532871754837934 24.115099541485915 -0.17205639771941472 0 0 0
658 1 19.062892407243673 4.852423229706185 1.9742627750185302 0 0 0
512 1 21.99652600202529 4.38413436706319 1.389740841731094 0 0 0
3867 1 32.185758718481175 2.3420531826334026 1.6034539769534901 0 1 1
1776 1 36.616616356548725 6.016728688737405 2.3790076014815935 0 0 1
3825 1 36.49397579464307 4.099642761008057 0.5251061162862496 0 1 1
893 1 40.270645464580376 2.3966552357709503 0.961386416138992 0 0 0
388 1 45.767705739840714 5.316138034936728 1.9483856797987773 0 0 0
164 1 45.02902234996612 3.420320639702428 -0.03023802825790589 0 0 0
1527 1 50.31011139722584 4.861894668863111 0.6526075157582047 -1 0 1
2063 1 1.6885384215499877 8.02308732965615 1.6695267127151503 1 0 1
1950 1 23.368679129790703 5.843716129775395 -0.4859460478697819 0 0 1
1561 1 4.447930668739566 7.487155922135038 1.6593049435889995 1 0 1
2098 1 8.304716443077563 6.346393919778096 0.7512504241254232 0 0 1
182 1 40.976566615404884 16.415754024528944 16.083957595414944 0 0 0
1752 1 6.263915146788682 8.034804521528056 -0.5404956608059653 1 0 1
1767 1 9.484463494889935 7.478785281702301 3.1249409553259317 0 0 1
1408 1 12.735487586021653 6.819301399415527 -0.40295309603837093 0 0 1
100 1 12.024161677114837 6.896364925358583 2.4014303108443804 0 0 0
265 1 16.25593924931736 7.747028131418176 0.4280026290645349 0 0 0
423 1 17.750257666442632 7.223506239186642 2.5571413800248055 0 0 0
1460 1 24.64786263566912 7.9935713274661495 0.7163352904704774 0 0 1
144 1 25.396295645926873 8.105442861801029 3.319841233019964 0 0 0
342 1 29.64247877029174 7.838490104990836 1.007340819170802 0 0 0
2358 1 33.98597757009141 3.971327565899461 3.153295490877845 0 1 0
3960 1 32.322871415545556 8.592385125692626 1.1944460800840309 0 1 1
2893 1 48.83244579783442 24.971200943246664 9.126280702271028 0 0 0
2542 1 40.234622620436674 6.721277640689296 0.6616655752527301 0 1 0
736 1 47.61846281396717 7.384421038600729 1.6709919298587113 0 0 1
2580 1 1.7427058730332705 10.627235271218106 0.5942471895193584 0 1 0
2073 1 4.3722475256762054 11.420144906207021 1.2363358960700022 0 0 1
13 1 17.644991602293114 3.506245514072667 0.06559785520099481 0 0 0
2188 1 9.03633246001243 10.086595825827132 1.8594682529194513 0 0 0
439 1 11.17015125388009 10.805067108072427 -0.18144604379178336 0 0 0
913 1 12.777338670759617 9.577692249469278 1.8848520859303632 0 0 0
370 1 15.200951212189514 10.180926159435346 0.8655889604186819 0 0 0
2206 1 16.73119627937885 11.583369569687804 2.8648409234403047 0 0 0
1474 1 19.223761486399244 11.745373250793682 1.7375133354475785 0 0 1
2420 1 21.35788169865733 10.291310133012495 2.778842761063782 0 0 0
479 1 28.41635326613227 10.125453237039341 0.05578953945225518 0 0 0
3947 1 5.627229022429288 17.0647521326865 0.005340683920796896 0 0 1
1501 1 32.1226190139171 11.234321135023103 1.8084869826533492 0 0 1
2003 1 35.70943809962075 10.29228705958192 0.8589332903490621 -1 0 1
514 1 39.89278300404565 9.112317541404423 2.682903748004177 0 0 0
1954 1 45.85593734000235 9.68679207204544 0.8640333924029486 0 0 1
1689 1 46.93793770402722 12.016937230850228 -0.08049648804139709 0 0 1
861 1 49.40592494668002 12.88547569019782 0.666924873555792 0 0 0
673 1 1.3296504344954725 15.427537539352087 1.2302666673893483 1 0 0
2231 1 23.645517984065368 24.27331763120486 3.769709308865325 0 0 0
3806 1 4.971180112821909 14.13213463551392 0.1608865458206865 0 0 1
1916 1 9.559908378181554 14.389699781129742 -0.4996340070749691 0 0 1
333 1 26.990727199284553 24.8969987350212 12.409980085987728 0 0 0
1525 1 20.17730866992427 14.355387060975499 1.0229063237400193 0 0 1
829 1 24.814437561046773 13.006331669662089 1.509216090060241 0 0 0
1032 1 27.4321273301858 11.612790566828911 2.151990598555323 0 0 0
908 1 31.96946377279164 15.161500341594795 0.7386056301483552 0 0 1
676 1 18.11352192091162 15.385437881819847 -0.24349787113827087 0 0 0
501 1 34.47368140454302 15.840843358492126 1.3076526502292671 0 0 0
910 1 37.64342339281192 11.836489146623546 -0.6550302578030375 0 0 1
1674 1 39.00493991417818 13.958671964318764 0.5108416122785018 0 0 1
1836 1 41.58477180228484 13.244301811242256 0.8696303125631701 0 0 1
559 1 43.45469472131392 15.30689293737828 0.8248771863091262 0 0 0
2097 1 15.034550142790334 3.1201609999089595 -0.2844533023064695 0 0 1
3914 1 1.2141547935625874 6.078698402142141 -0.35825602842413085 0 1 1
936 1 15.99628690014831 -0.33409918564725183 11.161701404350923 0 0 0
166 1 39.278071888689105 -0.5911511835976163 10.841135493034475 0 0 0
1718 1 13.338777536643537 15.481819935811576 0.16637148910552302 0 0 1
2236 1 12.040033333477712 15.838140525494058 2.4676593684149113 0 0 0
1702 1 15.960829153065678 16.19507395227112 1.1172504352455437 0 0 1
2071 1 25.859396773785427 15.543661897472514 1.3000699348112335 0 0 1
1786 1 23.805317093303476 17.225348670493336 0.03163464466432542 0 0 1
431 1 28.01208979984651 18.327874653266758 1.7110142074657433 0 0 0
1461 1 39.18654365959454 4.627996112425675 -0.49717442598822653 0 0 1
551 1 33.2620141382362 24.77837848305635 16.222714757746644 0 0 0
1632 1 34.82299527090403 18.322867628525202 2.445726468132238 0 0 1
2714 1 37.63438977300602 20.26601834225347 13.256790623007715 0 0 0
2495 1 2.287647902043082 13.702983029450452 -0.5786066564384652 1 1 0
654 1 41.512718499465144 18.520940863010903 -0.6013103001431453 0 0 0
2056 1 -0.28093823695659453 24.940713058239982 2.9890109861342187 1 0 1
2022 1 10.160185403428981 18.95093174073576 -0.07043641027809833 0 0 1
613 1 37.51842612039027 8.214171897454703 0.8744069899485434 0 0 0
2401 1 2.418193706603518 21.432236906385224 1.4974024563150663 0 0 0
2652 1 7.277863313668083 21.128574850334452 0.990696865534133 1 0 0
77 1 6.813176668115069 18.630530504180534 2.145634200778625 0 0 0
1457 1 3.2727551563662622 3.9836749663617885 -0.6046796572554516 1 0 1
2657 1 10.925490903826578 19.103628847410352 2.5746231489543643 0 0 0
1182 1 15.20633527456901 19.038793523796265 1.5575960321983517 0 0 1
3603 1 17.130456822916525 20.88574968684376 1.5998416453926527 0 0 1
1351 1 21.053872825443893 18.517547567332954 -0.012054847587186113 0 0 1
3660 1 25.606276332322423 21.2305419513154 0.3613979696335643 0 0 1
11 1 25.192086049976457 18.816408625410602 1.8095896097943038 0 0 0
1583 1 32.55507013284518 19.519344225238388 1.5109051725170377 0 0 1
418 1 33.44405362328946 21.70630604408368 0.2184973601658824 0 0 0
35 1 37.219536354325236 18.830365893030717 1.2564069884124087 0 0 0
189 1 20.31560644192974 15.170323547948506 16.160548182749114 0 0 0
1996 1 49.4752669915475 18.492039238560558 2.113618225192018 -1 0 1
1356 1 38.365927490944486 0.9450844469428976 15.832127413854241 0 0 0
1053 1 6.70917653773995 10.596145863462548 0.20711304140694353 0 0 1
2246 1 45.76231793715601 21.763599018743452 13.88954665224325 0 0 0
1599 1 4.670128193012415 22.244213604618086 0.14772686307547322 0 0 1
585 1 11.157507994926682 23.242560498224712 1.1630982103147989 0 0 0
2277 1 13.643283055630683 22.274210938217117 0.2616138487733336 0 0 0
2402 1 15.238157910496767 22.9402335743962 2.307415970305316 0 0 0
571 1 37.485135431659145 0.19326322206180724 8.940021800709108 0 0 0
2348 1 12.234515805375292 6.001428519194556 14.929078074777273 1 0 0
3894 1 22.632978919912002 22.419529062280112 0.30489203342619464 0 0 1
2690 1 21.29705180562491 23.536104375033474 2.755774623998535 0 0 0
2601 1 25.876555564947598 23.719236373484772 1.9577298472896683 0 0 0
262 1 23.553186132102994 23.780561904925644 14.103030051780612 0 0 0
3893 1 29.46870391931486 22.055357941076466 2.399563070870205 0 0 1
3587 1 31.770675364752044 23.611936116989824 1.5511223894901347 0 0 1
3297 1 35.911070193997915 22.810312395897398 0.502653934108557 0 0 1
2446 1 37.427442160521124 21.40166893353863 2.2181963350949836 0 0 0
1025 1 43.94406871596586 24.868384812416952 12.183458312725046 0 0 0
2085 1 39.794686535483756 22.903536492914583 2.110478260281975 0 0 1
2124 1 27.752251763136854 24.853763260494233 15.230439218975024 0 0 0
1970 1 48.38895361542746 19.213880578425975 -0.5341440313480967 -1 0 1
1567 1 48.689606679017395 23.455320226112885 1.930530594620496 0 0 1
3484 1 10.825221380787967 0.9880525979989627 16.069524983643824 1 1 0
1108 1 4.868327225893977 0.1939623498422407 4.226680265569923 0 0 0
3363 1 1.8507760267167055 24.918274054877102 6.917296314285858 0 0 0
664 1 4.572084469941792 -0.31467736820152936 10.489988161652485 0 0 0
3684 1 10.998342449190273 1.7689025794070354 5.584343198362074 0 1 1
2719 1 14.71402344589499 0.6158933818972225 4.79687363134377 0 1 0
2864 1 17.86179338225394 24.581581943678007 14.551084902254795 0 0 0
524 1 19.142860742192877 0.91299506461363 5.86087923461803 0 0 0
2114 1 23.40494196732218 1.7906120950414515 5.459022582462415 0 1 0
9 1 38.532460045268195 15.566220004469969 14.822262784992565 0 0 0
2450 1 27.89522922696281 0.523402872272724 5.411122310172468 0 1 0
266 1 29.695593191049515 2.170870831531021 2.7743089056399697 0 0 0
1557 1 33.97926389636682 0.3690338952746166 2.3029235155847885 0 0 1
506 1 34.305881407351116 -0.061483724865660117 5.1865723200709875 0 0 0
2213 1 36.91797541877316 1.5622619140906324 4.9246754787764155 0 1 0
2541 1 7.969682147504573 9.731294983877149 15.708960940488023 0 0 0
2659 1 41.68837888832023 1.6406617488370383 5.227474475516084 0 1 0
3543 1 43.446731237220256 1.0873731279096774 3.364737218925849 0 1 0
685 1 45.39380434384188 2.208537952749004 4.951376098470405 0 0 0
1918 1 -0.049583284891473345 0.8034793493343526 4.729447256630454 0 0 1
394 1 1.0524126369443383 3.249912838359695 4.446796328300454 1 0 0
4 1 3.6257820103860467 2.510061367331115 3.4781684943169475 0 0 0
704 1 7.3082504475918775 4.383014916659687 2.2737300066900277 0 0 0
709 1 7.8298831489161635 4.933250040596134 5.240756447503614 0 0 0
1221 1 12.897096933802226 2.7932680190658723 3.8240665148444313 0 0 0
495 1 17.187434796301964 4.454669700671947 5.584496202180321 0 0 0
2300 1 14.902024784209514 3.07082583979385 6.465947463460121 0 1 0
860 1 18.203928194786627 2.6139315692269394 3.6450901871918067 0 0 0
2280 1 23.64053681138612 4.269252729190649 3.6075066397942273 0 1 0
441 1 26.404724765672412 4.451212582442463 3.6373244236377555 0 0 0
2174 1 27.352505685111787 3.0158149892028443 5.715996872410614 0 1 0
3513 1 31.59003549861199 2.6810816842663696 4.887552793993455 0 1 1
1165 1 38.23199523354255 5.076437184214528 4.529672252839338 0 0 0
472 1 41.312100929883165 5.479262285455841 3.182194978758265 0 0 0
313 1 39.689974705343225 2.883076655026166 3.661204573554614 0 0 0
303 1 44.341238205793104 4.379704514844093 6.069453448620047 0 0 0
1745 1 43.981371929879415 6.121023937808024 3.932995709971939 0 0 1
997 1 47.35732493884065 3.4612376427265295 3.387997911201629 0 0 0
1850 1 48.62902261440619 4.9096684527008065 5.762913754672162 -1 0 1
167 1 50.46274841757281 4.862865425205931 3.4011458397096384 -1 0 0
3029 1 -0.5206873305186577 7.537050217777347 3.4479050219281175 0 1 0
280 1 0.9882764013358158 7.310038532184702 6.126315023600359 0 0 0
652 1 6.891586773452991 7.436966949452922 6.015396872987096 1 0 0
1961 1 13.190635395615152 5.592401397651911 4.424545954639667 0 0 1
146 1 15.779561010718517 6.534424944992228 4.746347294623551 0 0 0
12 1 20.824448029692157 8.282614358278133 6.2130182257687965 0 0 0
1428 1 23.244952415749932 6.997376572747223 5.049567566073694 0 0 1
67 1 27.99328628724464 6.801911386804057 3.322918496848067 0 0 0
2332 1 29.31249980129447 6.742491105721394 5.793709367553651 0 1 0
210 1 33.68579816141028 6.845947265615954 3.07016414379077 0 0 0
1434 1 35.80626061979814 8.569550049068287 4.14666241270732 0 0 1
224 1 37.29467472178308 7.563959510656227 6.233678400575193 0 0 0
255 1 40.05707279326835 7.495730063945551 4.814260988805166 0 0 0
1973 1 43.99863303985627 8.768014314313957 4.748341821330145 0 0 0
327 1 48.446207577789515 7.676719280650953 6.663657875449408 0 0 0
154 1 1.316973057285985 12.518997313998604 4.211181101197197 0 0 0
2747 1 4.483907585055466 8.599562032468992 4.490081755910562 0 1 0
59 1 3.751157500358535 11.160963009117985 3.816292537687689 0 0 0
89 1 12.756092165570386 11.67854791998401 3.664289636028676 0 0 0
494 1 15.469135396259695 8.674659324940507 6.36185822590254 0 0 0
343 1 19.09941795522218 9.078283973263074 4.057185518665919 0 0 0
44 1 17.138420807704055 10.381067573423334 5.221102293630996 0 0 0
534 1 23.012806357557086 11.762457914500828 4.773969956031202 0 0 0
4121 1 21.751186346562793 10.578736756266823 7.078981266196565 0 1 1
786 1 25.636172796335547 10.716440087644195 3.98461893177742 0 0 0
1037 1 27.300225555654436 10.664971347076884 6.305975957667652 0 0 0
2570 1 29.85408285078404 10.894037737224936 5.959942832265066 0 0 0
3797 1 34.525099090605295 11.824678227731752 3.1041036459747664 0 1 1
1604 1 31.541073290188386 8.687135900187688 6.188098782810732 0 0 1
411 1 33.802903651702366 10.226312507303152 5.319759191638932 0 0 0
1521 1 37.69259659227498 10.497399990768269 3.8079038778291148 0 0 1
1914 1 41.66761708155064 11.305053873949726 2.8697289954170944 0 0 1
1451 1 44.35944243799711 10.679898190599108 2.822050633654859 0 0 1
358 1 45.67605457959786 13.055168997647119 3.535800381761619 0 0 0
1980 1 48.572418891938064 8.82076684327171 3.96108755043078 -1 0 1
659 1 48.476253826598224 11.778056612621375 3.9759609705439782 0 0 0
502 1 1.9637599241151986 15.218062536247903 3.7966979088326926 0 0 0
133 1 6.378325591692148 14.32793423777375 2.618594915073689 0 0 0
2411 1 4.58696668587622 15.759098169657229 4.189315469451139 0 0 0
330 1 9.496567051573608 14.874217499083294 2.3632652129544556 0 0 0
1858 1 10.037096967950724 12.31688139961343 3.2944198307510097 0 0 1
109 1 15.644255652117842 14.126128636142539 2.8743826747527113 0 0 0
686 1 16.21408185276644 15.0800421044838 5.724009140507795 0 0 0
1910 1 17.65934133416304 12.829342088605626 6.574298764601134 0 0 1
732 1 22.302897103883875 14.401752777760601 5.4491886831857075 0 0 0
521 1 30.062631865141906 12.283177885390204 3.5183895478894973 0 0 0
436 1 30.74311775044189 15.14659293831966 3.5333138642341684 0 0 0
660 1 35.5563025716871 14.69030393811927 3.603818128066872 0 0 0
688 1 38.362102128684256 14.801556062452576 3.058281732545521 0 0 0
1478 1 40.81198091437375 13.81049403589598 4.267565412987794 0 0 1
1648 1 42.5533728068469 15.607766572930238 5.133070684548913 0 0 1
2029 1 46.23234183529786 14.509304563776624 1.0738920898629103 0 0 1
2087 1 48.13543143913845 14.60876266028338 4.773487501136872 0 0 1
2235 1 -0.3986813994025155 11.382704405030035 2.7463092695488243 1 1 0
595 1 49.918071960564006 15.544541515599398 0.7584656746457574 -1 0 0
2824 1 0.8842594433112776 16.894344815283898 5.559204053762196 1 1 0
610 1 5.272060946923903 18.370095043054366 4.427349145051361 0 0 0
81 1 8.757366614099675 17.541101188384385 3.340166847387041 0 0 0
2629 1 13.353182805776147 14.18355905125901 4.382378518970654 0 1 0
1590 1 17.490267407349066 16.65258640343668 3.8473096824722512 0 0 1
3247 1 20.247744849623345 15.880135269156465 3.7329124683806922 0 0 0
365 1 24.145178104735184 15.9361995805473 4.030659663951127 0 0 0
319 1 26.543642478222125 15.862869117375936 5.643326041691991 0 0 0
3687 1 28.02240948906519 15.757494737660828 3.2046990782882037 0 0 1
2162 1 31.83313337175889 16.39540345812499 5.722016195304814 0 1 0
2079 1 34.54004998107884 16.505978732026286 5.652772979599191 0 0 1
631 1 38.67014755082827 17.499616777356945 3.3718270013806775 0 0 0
1435 1 43.26848850367777 17.13760585798491 2.932135706824466 0 0 1
575 1 45.715437420749346 18.057076785634756 4.038967717226688 0 0 0
3626 1 47.69279169458426 16.43957211631371 2.7032636822350864 -1 0 1
4115 1 0.3100532458048664 19.10241671493785 3.888266097082508 0 0 1
1926 1 2.743754900014222 19.074933655946104 2.6479774687679596 0 0 1
1808 1 7.320903650676974 21.089444089479112 6.085520493994262 0 0 1
483 1 13.48936047945193 18.046231320909243 3.3786895038635762 0 0 0
286 1 13.56196729940141 19.533166416568562 5.786794507498313 0 0 0
113 1 18.350426176455713 18.36131388041393 6.255860741117327 0 0 0
2059 1 18.730817624833175 19.98639896402125 3.89922713662754 0 0 1
2265 1 20.777957257298265 18.653188043842015 2.688972386040057 0 0 0
104 1 23.221645565686597 18.593607149355105 4.043863444541474 0 0 0
3693 1 22.16338245816534 20.486677902592557 6.205880996146891 0 0 1
2504 1 30.165092422096794 19.507084579583527 3.1646406089613697 0 0 0
274 1 30.51928829083442 18.913681066214238 5.917504929327614 0 0 0
348 1 34.16791114118695 19.39505958215398 5.212016497057742 0 0 0
2383 1 35.58187259188073 21.917550806833077 4.192922744851013 0 0 0
2455 1 40.95048490427492 18.568422742476617 2.3003534954984426 0 0 0
2390 1 39.9819326088139 21.422086152856302 5.716298921734546 0 0 0
2137 1 38.85653243933679 18.925320880355336 5.7885064790905165 0 0 0
1865 1 41.25585272007241 20.97291321033728 3.5390010010612025 0 0 1
2394 1 45.57749854192073 20.37916443110424 2.32375905754586 0 1 0
56 1 48.36938860683945 21.04846984292189 3.1797286431362006 0 0 0
1992 1 49.134248498990026 21.893938110680715 5.907678510091152 -1 0 1
457 1 2.1916891590784386 23.735040246599972 2.7648113825101355 0 0 0
1994 1 2.405879716261919 22.511544077870898 5.316302746002112 1 0 1
398 1 8.200301479262496 22.20872716503817 3.5790284029527237 0 0 0
2262 1 42.06837686021237 23.7687432274131 13.765181626185559 0 0 0
1746 1 11.196335725090167 21.65673412592724 3.3968023409493293 0 0 1
4146 1 10.45498880171135 23.85814066217116 5.519534409962563 0 0 1
3424 1 13.941064101221757 21.994426219396203 4.478837499778242 0 0 0
459 1 20.349340247611494 22.110690907930255 5.183597842231639 0 0 0
2593 1 20.358644217606656 1.8597926675485814 16.147210637846108 0 1 0
1534 1 27.795037771275013 23.494181807849476 3.9400703622656277 0 0 1
2798 1 33.31993918947794 23.621144908527523 3.902749815219199 0 0 0
2506 1 37.364693857369176 23.16580650643892 6.027514728933532 0 0 0
2699 1 44.30268281583866 24.218237442729762 2.466750439004122 0 0 0
261 1 43.85061029882955 22.062261711319522 3.8054756699304857 0 0 0
45 1 3.201695223742119 0.7028553591218081 8.308547796760172 0 0 0
3755 1 47.38317687266042 1.4595762735502995 -0.4640840887273747 0 1 1
598 1 5.266953617066904 1.0753255803790152 6.831902253329957 0 0 0
1304 1 22.61668708335287 14.136551933766555 15.56094274329541 0 0 0
1683 1 12.582826646504666 1.0871386767242925 7.791477884060935 0 0 1
326 1 16.981144902537853 1.602706703482867 7.701231008049092 0 0 0
1070 1 2.7267246919886166 9.56991716816735 16.358567438059477 0 0 0
532 1 20.987208836810623 2.7392661072254163 6.677544434926196 0 0 0
1763 1 22.21159780886896 2.6668982735883184 9.386701654813978 0 0 1
2814 1 25.989495744709373 0.9677874403287894 9.20699742940118 0 1 0
478 1 16.601036525836005 20.42751393858457 16.300309795634732 0 0 0
2720 1 33.532021042834906 1.176136793682645 7.452298858749915 0 1 0
3930 1 48.91055636322576 24.521606170768766 6.329954073019396 -1 0 1
140 1 38.54945400794113 2.4286911669709847 7.738246646035327 0 0 0
604 1 41.68181311653221 3.48005278865294 7.700517991456369 0 0 0
2658 1 46.47779199096231 0.8672624307515302 7.179108087894059 0 1 0
3113 1 49.33464352088275 0.6471147859391668 6.87570534144954 0 1 0
205 1 0.9516873730995599 4.474193595097548 6.9583750768558765 0 0 0
2303 1 2.3749197153334474 3.273186752194557 8.998240216758369 0 1 0
628 1 4.703678786769396 4.603465263818524 8.48046712302233 0 0 0
16 1 5.326379978503227 3.777834727239709 5.904952420793622 1 0 0
213 1 9.822567482684773 3.7130853579392484 6.97645587993616 0 0 0
1179 1 14.037353670292642 4.760926501422594 8.588092545525772 0 0 0
351 1 19.15537064793585 4.899316576470561 7.433678386369278 0 0 0
82 1 24.944691115309915 2.861029036595017 7.427023575726036 0 0 0
937 1 24.496223071839427 5.043380610408247 8.92505245544571 0 0 0
2752 1 29.3208978124694 3.781119638092382 9.139395548829805 0 1 0
285 1 29.821724717197263 3.9456041485808946 6.484656472655198 0 0 0
579 1 33.879834279460304 3.921487487357375 7.299106524977342 0 0 0
1288 1 36.66998531269555 4.100332949618057 6.6004574755178345 0 0 0
1760 1 37.18425876230939 5.874634480920864 8.62189696464992 0 0 1
1269 1 39.96182504096573 5.978346147171966 8.337002151923526 0 0 0
2477 1 44.3720338932019 5.970897313377349 8.407160938058428 0 1 0
353 1 49.84580452527712 3.5550051108868654 7.650277232728303 0 0 0
194 1 48.68212890412443 4.124843611501643 10.106327918454989 -1 0 0
293 1 4.947171253248174 7.287604627409086 8.0004241415585 1 0 0
706 1 11.785513839987212 5.805814012839177 7.016893568155388 0 0 0
375 1 11.326414585584548 8.289167842151572 5.851955665693734 0 0 0
607 1 16.02459680578834 5.938343205302118 10.172166984306068 0 0 0
1411 1 16.710705971122305 8.475875180875715 8.892599641459839 0 0 1
526 1 19.240926287649923 7.528569325383408 8.311688961861925 0 0 0
644 1 20.992143190474565 7.887789207465458 10.295833215004857 0 0 0
106 1 24.47934852022315 7.42608985516652 7.6038583655677545 0 0 0
669 1 26.805447176475305 8.086903238087912 6.767343712416205 0 1 0
2068 1 28.0645005239342 8.301619793676105 9.424880775815467 0 0 1
2395 1 32.36346632853369 5.844387447261717 5.508666713691373 0 1 0
156 1 30.579118228321093 7.265322642136005 9.049494799069471 0 0 0
3433 1 36.64890094937493 9.241102124792238 8.247884359307337 0 1 0
39 1 41.905950087427186 8.858181828714644 6.378834426073004 -1 0 0
1841 1 45.503227217062516 8.55844303869558 7.182267699263766 -1 0 1
381 1 50.54151061961443 8.734696005543157 7.941513580673478 0 0 0
187 1 3.380646342228557 11.799021562456545 6.7098141599442025 1 0 0
1806 1 2.9575124574382454 9.008068986790581 7.034795091315614 0 0 1
301 1 8.179091158676451 9.599587684075907 9.684894428593804 0 0 0
852 1 8.699644236691494 9.380299519378166 6.958517435656455 1 0 0
618 1 13.19816094225479 9.96746632510651 5.936800411160449 0 0 0
867 1 22.926356912932807 9.32151349732808 8.88761956181079 0 0 0
783 1 32.885848873089216 8.73503716264294 8.560210149025504 0 0 0
163 1 34.97573793144812 11.279084019307858 7.450895752718077 0 0 0
1466 1 39.00871811699112 12.460283126947854 5.883556891473762 0 0 1
1560 1 40.86344984665144 11.056012938390339 7.60070963563509 0 0 1
594 1 43.47497708816711 12.187629276032153 8.159683771255136 0 0 0
405 1 45.5676630276655 10.623570225319007 9.492391279907388 0 0 0
20 1 49.25707067247857 11.173169003259613 6.741481277034374 0 0 0
451 1 0.15467343557147772 12.944300326055306 6.691895472389951 1 0 0
3656 1 5.846295628052697 12.735910257449877 5.3167555372280955 0 0 1
1506 1 5.2249547499965905 15.206360530122979 6.889866319416384 1 0 1
7 1 8.92362352727489 13.76318408674044 8.171118017322412 1 0 0
1440 1 8.554171384497666 11.949865072443554 5.740515832172306 0 0 1
3468 1 13.040077968327104 11.469489064871924 8.255785851288719 0 0 0
413 1 11.611763058404366 13.66579532211439 8.65259569291908 0 0 0
2045 1 15.764794967504553 12.718069947662448 8.784359796612547 0 0 1
554 1 18.602724000811676 11.781066160707178 10.679884230748828 0 0 0
75 1 20.14893145514668 12.519139442654053 8.140723112226521 0 0 0
530 1 22.278429109654383 13.7858412481856 9.669995376644819 0 0 0
85 1 26.19494706091735 12.5237311759083 8.15291248526092 0 0 0
1640 1 24.718719431552664 14.886574464424609 7.743880200917086 0 0 1
128 1 30.384901781732577 12.52650048269389 8.1951576802505 0 0 0
165 1 31.38665976519156 15.179637777118934 8.12794517008817 0 0 0
1871 1 33.73400325851885 15.093566345211945 9.713979297425771 0 0 1
42 1 36.293087370712456 13.33025298118008 6.05361489219997 0 0 0
241 1 38.64308215148595 14.898029859005288 7.748955956878499 0 0 0
1448 1 44.365825612608646 13.497917205505411 6.138471913993034 -1 0 1
538 1 46.4206516879899 15.112850406708574 6.732293784954722 0 0 0
2164 1 50.30584135012661 15.426362785337634 6.689289826731048 0 0 0
623 1 3.131683059487651 17.19688836610696 7.3471326418007745 0 0 0
533 1 7.754702189963831 16.340728728344665 7.694136955028009 0 0 0
4138 1 12.423822662735097 15.024791953943442 10.610134317674483 0 1 1
2809 1 19.28013720401008 15.366874106821427 6.694946522841439 0 0 0
570 1 22.086361517482977 15.919411364179506 7.834037487406169 0 0 0
188 1 28.07977749725324 18.123990441522583 6.71515619622944 0 0 0
2244 1 29.33691221604189 16.873909908856227 8.952511007675165 0 0 0
3983 1 35.72267383907407 15.636183561401545 7.801235953291009 0 0 1
637 1 40.614890769736284 16.600532827738267 6.840842176113684 0 0 0
64 1 42.492765806687984 17.741664422395154 8.678837153275348 0 0 0
366 1 44.68366970423049 17.580556703853393 6.732258722098862 0 0 0
314 1 50.1607751458646 16.113196563229547 9.175282844447148 0 0 0
608 1 0.3782901718357252 20.745751839159603 5.890826867461203 1 0 0
945 1 0.9901155214553474 19.309338135901804 7.985722663585143 1 0 0
856 1 4.750772451402594 22.161580775218123 6.991274287944658 0 0 0
546 1 5.449769280844285 18.924402302167923 7.24769861972989 0 0 0
444 1 8.271520563612812 18.332599003972103 5.844218858310849 0 0 0
33 1 10.746595048776904 18.836878705098133 7.110700770751763 0 0 0
985 1 15.905759496385276 19.040235147691526 7.769179883376509 0 0 0
1847 1 20.138395131932803 19.845401087096565 8.078736129784469 0 0 1
2779 1 23.780989394449065 19.373206832887053 8.83334599313538 0 0 0
3643 1 26.419219511157287 20.213540085359895 7.52852976031614 0 0 1
2361 1 32.33092109656303 21.000215763975188 6.939488237614295 0 0 0
1488 1 36.44536057820918 19.748301350506928 6.758963797752424 0 0 1
609 1 46.47942843156493 20.380558445369676 5.690730585399196 0 0 0
3701 1 48.0501342505179 20.57527907727842 8.309248114658319 -1 0 1
1398 1 45.314057028280324 19.29804290433187 14.626728597870748 0 0 0
1120 1 6.260288844929303 24.41836209096611 7.4845681397042085 0 0 0
2311 1 10.14757984353559 21.63553104753438 7.32569185955956 0 0 0
276 1 15.849756848434541 21.95992016752794 8.408213813919701 0 0 0
697 1 15.13441920815403 24.01275583394705 6.4612692832022836 0 0 0
3173 1 19.08251464472356 23.60660940619014 7.185721325185086 0 0 0
2386 1 18.656616249497684 21.644957363820424 9.339919750888708 0 0 0
1477 1 15.908803849334522 22.577672167915615 14.645256990608495 0 0 0
117 1 23.991621516432037 22.990461826300436 6.112329638975167 0 0 0
2257 1 27.97762303663277 24.236932621444254 8.148297690197847 0 0 0
2729 1 26.608988910536745 22.567125985591026 6.549885562314839 0 0 0
544 1 11.832823644782536 14.102082046654688 15.887687885737538 0 0 0
442 1 32.72785706329981 23.66628687788471 6.535261187497973 0 0 0
4119 1 34.81013516197431 24.1078823066455 8.742465307788644 0 0 1
304 1 36.7326940335771 22.217975962787598 8.497157852918132 0 0 0
2214 1 41.19756582672091 24.125338524888683 8.838505724470952 0 0 0
1649 1 44.48663806254705 22.595261035988347 6.381935008011185 0 0 1
127 1 42.141443807836396 22.12439500107051 7.413405443750186 -1 0 0
421 1 18.812174776030165 5.530622544525328 15.66212106210801 0 0 0
130 1 33.55038543024424 20.970603744887107 14.592899983310042 0 0 0
30 1 43.95589076946657 22.841509129305777 15.47397195285252 0 0 0
639 1 5.548677368689026 1.8781257498290418 11.877510023484884 0 0 0
605 1 17.746940874845727 -0.36314660833350326 13.290230931226848 0 0 0
2233 1 9.092445951718648 -0.21748829869614195 9.28396182614761 0 1 0
2785 1 12.226773612982765 0.3933889594182125 12.173855546030293 1 1 0
267 1 3.9689676698012555 17.459619595798088 16.360250676483332 1 0 0
2641 1 31.861786174890035 22.77288473669469 14.715079570666928 0 0 0
143 1 21.59423589122369 0.9792879725904426 11.576136343497737 0 0 0
2243 1 19.119027776034827 24.155393928518926 0.6841122108726121 0 0 0
1995 1 29.08286259033245 1.0337095749141896 9.883420723491605 0 0 1
655 1 30.28283641059753 0.957301695448052 12.402577098871593 0 0 0
2111 1 34.912783234601996 0.9283907231045632 10.144469883547835 0 1 0
3566 1 40.1544867912413 1.8556696434716575 11.318480051770434 0 1 0
580 1 42.52138008909777 1.8042311328224194 9.889619247424074 0 0 0
689 1 29.31272515851322 22.174394183710536 15.784644387081784 0 0 0