
# Create simulation box of size 50 x 50 x 50 Angstrom
#
lattice	            sc 1
Lattice spacing in x,y,z = 1.0000000 1.0000000 1.0000000
region 	            all block 0 50 0 50 0 50 units box
create_box          1 all
Created orthogonal box = (0.0000000 0.0000000 0.0000000) to (50.000000 50.000000 50.000000)
  1 by 2 by 3 MPI processor grid

# fill box with 4175 randomly distributed atoms
#
create_atoms        1 random 4175 63782 all
Created 4175 atoms
  create_atoms CPU = 0.001 seconds
mass                1 18.015

# Define potential
#
pair_style          sw
pair_coeff          * * ML_mW.sw mW
Reading sw potential file ML_mW.sw with DATE: 2019-02-27

# Run minimization
#
minimize            1.0e-8 1.0e-8 10000 1000
WARNING: Using 'neigh_modify every 1 delay 0 check yes' setting during minimization (../min.cpp:187)
Neighbor list info ...
  update every 1 steps, delay 0 steps, check yes
  max neighbors/atom: 2000, page size: 100000
  master list distance cutoff = 6.0032907
  ghost atom cutoff = 6.0032907
  binsize = 3.0016454, bins = 17 17 17
  1 neighbor lists, perpetual/occasional/extra = 1 0 0
  (1) pair sw, perpetual
      attributes: full, newton on
      pair build: full/bin/atomonly
      stencil: full/bin/3d
      bin: standard
Per MPI rank memory allocation (min/avg/max) = 4.255 | 4.258 | 4.261 Mbytes
Step Temp E_pair E_mol TotEng Press 
       0            0    7792709.3            0    7792709.3    5898794.3 
     630            0   -45180.336            0   -45180.336   -154.07449 
Loop time of 1.15768 on 6 procs for 630 steps with 4175 atoms

99.8% CPU use with 6 MPI tasks x no OpenMP threads

Minimization stats:
  Stopping criterion = max force evaluations
  Energy initial, next-to-last, final = 
      7792709.32924461  -45180.0188663597   -45180.336116598
  Force two-norm initial, final = 2.0191930e+08 4.9721331
  Force max component initial, final = 1.0948746e+08 0.73126211
  Final line search alpha, max atom move = 0.053306038 0.038980685
  Iterations, force evaluations = 630 1000

MPI task timing breakdown:
Section |  min time  |  avg time  |  max time  |%varavg| %total
---------------------------------------------------------------
Pair    | 0.86245    | 0.98668    | 1.0344     |   5.8 | 85.23
Neigh   | 0.023627   | 0.024897   | 0.026286   |   0.6 |  2.15
Comm    | 0.07738    | 0.12577    | 0.25167    |  16.6 | 10.86
Output  | 0          | 0          | 0          |   0.0 |  0.00
Modify  | 0          | 0          | 0          |   0.0 |  0.00
Other   |            | 0.02033    |            |       |  1.76

Nlocal:        695.833 ave         704 max         685 min
Histogram: 1 1 0 0 1 0 0 1 0 2
Nghost:        1494.17 ave        1515 max        1468 min
Histogram: 1 1 0 0 0 0 1 1 1 1
Neighs:        0.00000 ave           0 max           0 min
Histogram: 6 0 0 0 0 0 0 0 0 0
FullNghs:      19997.0 ave       20462 max       19320 min
Histogram: 1 1 0 0 0 0 0 2 0 2

Total # of neighbors = 119982
Ave neighs/atom = 28.738204
Neighbor list builds = 26
Dangerous builds = 0

# Add velocity/set timestep
#
velocity            all create ${TEMP} 120598 rot yes dist gaussian
velocity            all create 225 120598 rot yes dist gaussian
timestep            5.0

# Define output
#
compute	            1 all msd
thermo	            100
thermo_style        custom step temp press vol etotal ke pe c_1[4] density

# Neighbor lists
#
neigh_modify        delay 0 every 1 check yes

# Set fixes
#
fix                 1 all momentum 10 linear 1 1 1 rescale
fix                 2 all nve
fix                 3 all temp/csvr ${TEMP} ${TEMP} 500.0 928347
fix                 3 all temp/csvr 225 ${TEMP} 500.0 928347
fix                 3 all temp/csvr 225 225 500.0 928347
fix                 4 all press/berendsen iso ${PRES} ${PRES} 1000.0 modulus 20000
fix                 4 all press/berendsen iso -950 ${PRES} 1000.0 modulus 20000
fix                 4 all press/berendsen iso -950 -950 1000.0 modulus 20000

# Run 0.5 ns equilibration
#
dump                1 all custom 1000 eq.${NAME}.dump id type x y z vx vy vz
dump                1 all custom 1000 eq.liquid_density_MLmW.dump id type x y z vx vy vz
run                 100000
Per MPI rank memory allocation (min/avg/max) = 3.506 | 3.508 | 3.511 Mbytes
Step Temp Press Volume TotEng KinEng PotEng c_1[4] Density 
     630          225    869.67124       125000   -42380.908    2799.4278   -45180.336 2.7295415e-33   0.99914793 
     700    143.25765   -760.41879    126342.82   -41508.602    1782.3975       -43291   0.27088228   0.98852862 
     800    177.14272    -979.2825    126875.18   -40712.214    2203.9922   -42916.206   0.62791303   0.98438077 
     900    196.07115   -1019.6052    127114.63    -40259.47    2439.4979   -42698.968    1.0971026   0.98252648 
    1000    204.60011   -905.89138    127495.66   -39960.538    2545.6144   -42506.152    1.4957994   0.97959011 
    1100    215.46576   -723.88522       127710   -39762.398    2680.8036   -42443.202    1.8356016   0.97794608 
    1200     220.0634   -772.03504    128137.27   -39793.621    2738.0071   -42531.628    2.2364272   0.97468512 
    1300    217.38682   -1030.3361    128191.43   -39785.851    2704.7054   -42490.556     2.696545   0.97427337 
    1400      221.009   -932.42854    128351.69   -39803.531    2749.7721   -42553.304    3.0263034   0.97305683 
    1500    217.54944   -856.49513    128604.13     -39749.9    2706.7286   -42456.629    3.3322759   0.97114681 
    1600    227.42792   -772.44756    128866.96   -39652.311    2829.6357   -42481.947    3.6356297   0.96916609 
    1700     225.5017   -1140.1522    128983.07    -39689.65    2805.6698    -42495.32    4.0038574   0.96829364 
    1800    222.08903    -785.1067    129150.54   -39776.068    2763.2098   -42539.277    4.3795151   0.96703805 
    1900    221.87165   -922.40631    129386.06     -39745.2    2760.5051   -42505.705    4.6907476   0.96527779 
    2000    230.86298   -801.58224    129590.85   -39710.883    2872.3744   -42583.257    4.9697765   0.96375235 
    2100    228.27079    -994.9839    129899.54   -39667.814    2840.1226   -42507.936    5.3336086   0.96146217 
    2200    227.39113   -862.02579    129885.74   -39710.534     2829.178   -42539.712    5.6576534   0.96156432 
    2300    224.29137   -736.60175    130093.13   -39703.566     2790.611   -42494.177    5.8212532   0.96003141 
    2400    230.84291   -1019.2136       130052   -39721.028    2872.1246   -42593.153    6.0429855   0.96033501 
    2500    229.93157   -876.78588    130230.69   -39690.643    2860.7859   -42551.429    6.4500984   0.95901733 
    2600    232.33689   -866.28835    130342.85     -39663.2    2890.7126   -42553.912    6.7541306   0.95819209 
    2700    228.14615   -893.87169    130222.36   -39715.416    2838.5719   -42553.988    6.9762902   0.95907872 
    2800     232.0264   -899.93111     130204.5   -39727.384    2886.8495   -42614.234    7.1625993   0.95921026 
    2900    229.61597   -1141.1622    130289.98   -39829.114    2856.8592   -42685.973    7.4296667   0.95858093 
    3000    227.87141   -930.84396    130372.73   -39888.349    2835.1535   -42723.502    7.7102913   0.95797249 
    3100    228.84993   -993.81352    130507.43   -39875.113    2847.3283   -42722.441    7.9872051   0.95698372 
    3200    230.40401   -879.40015    130560.19   -39927.853    2866.6639   -42794.517    8.2642937   0.95659706 
    3300    226.80557   -1048.5341    130612.34    -39922.71    2821.8925   -42744.603    8.5316624   0.95621511 
    3400    226.33631   -955.59673    130694.89   -39970.974     2816.054   -42787.028    8.8640396    0.9556111 
    3500      223.589   -876.30918    130806.58   -40003.667    2781.8722    -42785.54    9.0686388   0.95479514 
    3600    224.40303   -1080.0853    130872.46   -40040.585    2792.0004   -42832.585    9.1854899   0.95431456 
    3700    223.29761   -915.10934     130881.3   -40120.809    2778.2468   -42899.056    9.6127232   0.95425011 
    3800    225.64034   -951.62485    131174.73   -40066.566    2807.3949   -42873.961    9.8088399   0.95211546 
    3900    222.42235   -916.35889     131238.6   -40102.326    2767.3568   -42869.682    10.007337   0.95165209 
    4000    226.10968   -837.16572     131423.6   -40084.237    2813.2343   -42897.471    10.192234   0.95031251 
    4100    226.16681   -793.57606    131417.99   -40069.786    2813.9451   -42883.731    10.418029   0.95035308 
    4200    224.56944    -1055.291    131327.43   -40080.455    2794.0708   -42874.526    10.779165   0.95100839 
    4300    223.53118    -1019.075    131170.26   -40081.698    2781.1528   -42862.851    11.034178   0.95214796 
    4400    225.47041   -964.16701    131331.54   -40089.749    2805.2805   -42895.029    11.167656   0.95097863 
    4500     218.9074   -942.95588    131401.85    -40096.98    2723.6242   -42820.604    11.410035   0.95046979 
    4600    221.84509   -935.95848    131609.17   -40145.217    2760.1747   -42905.392    11.647716   0.94897258 
    4700    227.61916   -1080.5069    131643.43   -40065.603    2832.0151   -42897.618    11.771239   0.94872559 
    4800    222.51144    -737.8491    131818.73   -40144.095    2768.4653    -42912.56    11.873055   0.94746392 
    4900    228.42318   -853.85634     131953.1   -40034.472    2842.0186    -42876.49      12.1131   0.94649912 
    5000    229.06861   -913.10815    131963.63   -40001.087     2850.049   -42851.136    12.326037   0.94642359 
    5100    229.61953   -949.16805    131988.29   -40081.542    2856.9035   -42938.445    12.546172   0.94624674 
    5200    226.53937   -1100.1757    131848.04   -40137.525    2818.5804   -42956.105    12.667271   0.94725333 
    5300    224.56233    -844.9012    132127.82   -40124.136    2793.9823   -42918.118    12.845151   0.94524753 
    5400     226.8857   -852.80413    132136.32   -40166.799    2822.8895   -42989.689    13.038637   0.94518668 
    5500    223.56978   -933.58126    132470.74   -40211.568    2781.6331   -42993.201    13.399356    0.9428006 
    5600     227.0387   -961.82791    132512.12   -40238.567    2824.7931    -43063.36    13.591799    0.9425062 
    5700     222.9311   -1016.8544    132233.34    -40246.48    2773.6867   -43020.166    13.773226   0.94449324 
    5800    224.37642   -1129.5394    132235.27   -40270.024    2791.6692   -43061.693    13.973359   0.94447939 
    5900    219.45565   -984.26069    132184.43    -40292.39    2730.4456   -43022.835    14.121441   0.94484269 
    6000    221.83045     -864.077    132399.02   -40291.995    2759.9925   -43051.987    14.063689   0.94331133 
    6100    224.59719   -955.20436    132357.95   -40239.484    2794.4161     -43033.9    14.286004   0.94360402 
    6200    225.29187   -957.73657     132303.1   -40319.349    2803.0591   -43122.408    14.453232   0.94399518 
    6300    220.54092   -930.33834    132423.43   -40285.687    2743.9483   -43029.635    14.609488   0.94313742 
    6400    226.84165    -824.4717    132414.52   -40279.968    2822.3414   -43102.309    14.781957   0.94320088 
    6500    229.49251   -1013.4159    132705.41   -40233.286    2855.3231   -43088.609    15.175123   0.94113341 
    6600    223.63418   -765.66189    132908.18   -40310.811    2782.4343   -43093.245    15.262179   0.93969756 
    6700    221.17424   -1121.6783    132980.87   -40386.606     2751.828   -43138.434    15.345011   0.93918386 
    6800    223.80342   -959.65898    133162.25   -40320.999    2784.5401    -43105.54    15.459314   0.93790464 
    6900    228.52494   -1089.0075    133213.43   -40268.182    2843.2847   -43111.467    15.766245   0.93754428 
    7000    226.59575   -933.88193    133033.74   -40264.967     2819.282   -43084.248    15.874828   0.93881066 
    7100     228.5266   -970.34734    132942.91   -40299.736    2843.3054   -43143.042    15.922431   0.93945208 
    7200    223.80923   -998.32908    132909.03   -40350.985    2784.6123   -43135.598    16.065065   0.93969156 
    7300    218.99436   -900.31158    132931.52   -40406.533    2724.7062   -43131.239    16.123939   0.93953255 
    7400     224.8695   -887.19011    132998.76   -40430.655    2797.8041   -43228.459     16.24694   0.93905755 
    7500    220.15168   -913.44983    132880.86   -40397.312    2739.1054   -43136.417    16.311461   0.93989073 
    7600    221.11649   -820.28163    132991.77   -40476.955    2751.1095   -43228.064    16.375424   0.93910692 
    7700    228.69412   -1086.4781    132946.11   -40380.089    2845.3896   -43225.479    16.576825   0.93942947 
    7800    226.30426   -969.00001    132989.04   -40358.993    2815.6553   -43174.648    16.875401   0.93912622 
    7900    225.85754   -973.02829    133008.93   -40437.422    2810.0971   -43247.519    16.997761   0.93898577 
    8000    224.23211   -859.94213     133249.7   -40410.031    2789.8738   -43199.905    16.953781    0.9372891 
    8100     217.4187   -1058.2147    133074.53   -40508.559     2705.102   -43213.661    17.139825   0.93852287 
    8200    220.33029   -866.81676    133146.84   -40533.856    2741.3277   -43275.183    17.089801   0.93801317 
    8300    224.11194   -760.09401     133188.4   -40547.292    2788.3786   -43335.671    17.110873   0.93772046 
    8400    225.47612   -956.51779    133306.62   -40509.531    2805.3516   -43314.882    17.241782   0.93688889 
    8500     227.1728   -750.34508    133477.24   -40438.651    2826.4615   -43265.113    17.286293   0.93569131 
    8600    222.63916    -1020.887    133319.57   -40471.504    2770.0544   -43241.558    17.503778    0.9367979 
    8700    225.99511   -959.49808    133418.56   -40454.379    2811.8089   -43266.187    17.550635   0.93610281 
    8800     222.7314   -1013.5898     133563.1    -40494.55    2771.2021   -43265.752    17.710272    0.9350898 
    8900    221.55963   -969.03501    133716.83   -40576.267     2756.623    -43332.89    17.833738   0.93401472 
    9000    224.99166   -988.18155    133904.38   -40541.158    2799.3239   -43340.482    17.960007   0.93270651 
    9100    221.12636   -857.52395    133933.39   -40622.827    2751.2323   -43374.059    18.105971   0.93250452 
    9200    223.02531   -841.80309    133966.47   -40545.843    2774.8588   -43320.702     18.24975   0.93227425 
    9300    224.89561   -814.31322    134123.39   -40608.221     2798.129    -43406.35    18.439973   0.93118354 
    9400     224.8846   -840.01872    134025.03    -40568.54    2797.9919   -43366.532    18.345231   0.93186692 
    9500    226.80257   -853.97441       133921   -40587.908    2821.8552   -43409.763    18.428025   0.93259078 
    9600    225.47005    -1010.282    133875.29   -40568.738    2805.2761   -43374.014    18.431446   0.93290919 
    9700    228.62882    -893.6596    133919.47   -40502.356    2844.5772   -43346.933    18.618559   0.93260145 
    9800    227.45689   -1024.2745    133982.71   -40573.429    2829.9961   -43403.425    18.806946   0.93216126 
    9900    222.66227   -942.93996    134020.22   -40646.184    2770.3419   -43416.526    18.982122   0.93190033 
   10000     223.5341   -938.46905    134163.56   -40642.317    2781.1891   -43423.506    19.042903   0.93090475 
   10100    219.84571   -849.29747    134229.68   -40608.094    2735.2986   -43343.392    19.057271   0.93044613 
   10200    222.89909   -872.17904    134279.67   -40667.335    2773.2885   -43440.623    19.134934   0.93009976 
   10300    220.90671   -1009.8571    134152.29       -40675    2748.4995     -43423.5    19.197432   0.93098292 
   10400    221.85784   -1019.7254    134145.24   -40620.268    2760.3333   -43380.601    19.256005   0.93103184 
   10500    223.28076   -936.17814    134077.72   -40601.494    2778.0371   -43379.531    19.385473   0.93150072 
   10600    228.54757   -906.38865    134088.13   -40528.608    2843.5662   -43372.174    19.404985   0.93142838 
   10700    227.94182   -1089.2826    134131.77   -40509.384    2836.0295   -43345.414    19.343793   0.93112537 
   10800     230.9942   -914.76537    134091.09   -40487.568     2874.007   -43361.575    19.396855   0.93140784 
   10900     229.2654   -933.23013    134093.72   -40524.437    2852.4975   -43376.935    19.505029   0.93138957 
   11000    225.01633   -975.01395    134115.87    -40523.68    2799.6309   -43323.311    19.779654   0.93123575 
   11100    224.56443   -907.07354    134030.38   -40573.203    2794.0085   -43367.212    19.938886   0.93182974 
   11200    225.49911   -917.03607    134246.31   -40569.601    2805.6376   -43375.239     20.10244   0.93033093 
   11300    223.61267   -841.39416    134248.31   -40579.069    2782.1668   -43361.236     19.95428   0.93031703 
   11400    223.44966   -1023.9414    134047.33   -40596.466    2780.1386   -43376.605    19.940504    0.9317119 
   11500    223.59707   -905.67222    134016.88   -40622.888    2781.9727   -43404.861    19.944939   0.93192361 
   11600    228.09968   -928.53145    134186.55   -40623.958    2837.9937   -43461.952    20.104949    0.9307452 
   11700    232.06881   -976.60422    134113.47   -40535.973    2887.3772    -43423.35    20.253628    0.9312524 
   11800    226.29692   -928.46309    133973.95   -40623.278    2815.5639   -43438.842    20.458606   0.93222222 
   11900    226.20305   -968.07456    134048.92   -40634.033     2814.396   -43448.429    20.410627   0.93170087 
   12000    227.80581   -883.86696    134023.53   -40633.916    2834.3374   -43468.254    20.578935   0.93187735 
   12100    223.83065   -1064.8736    134184.15   -40595.781    2784.8788    -43380.66    20.467747   0.93076186 
   12200    224.00103   -976.63257    134124.83   -40611.563    2786.9986   -43398.561     20.54449   0.93117351 
   12300    221.44543    -1064.336    133927.74   -40635.613    2755.2022   -43390.816     20.57716   0.93254386 
   12400    228.17945   -853.74657    134049.73   -40616.069    2838.9862   -43455.055     20.77575    0.9316952 
   12500    222.68955   -1044.9815    134115.01   -40713.481    2770.6813   -43484.162    20.910023   0.93124173 
   12600    222.86533    -878.3039    134118.22   -40630.932    2772.8684     -43403.8    20.903256   0.93121944 
   12700    226.78041   -931.55715    134216.39   -40613.001    2821.5795   -43434.581    21.156616   0.93053831 
   12800    232.28833   -994.12497    134182.27   -40584.327    2890.1084   -43474.435    21.214637   0.93077492 
   12900    227.83714   -1016.7933    134463.46   -40640.151    2834.7272   -43474.879    21.444338   0.92882848 
   13000    227.28703    -960.2127    134445.35   -40589.261    2827.8828   -43417.144    21.485793   0.92895361 
   13100    225.71619   -859.93238    134481.08   -40604.049    2808.3385   -43412.387    21.445282   0.92870677 
   13200    232.79352   -874.55434    134433.99   -40526.184    2896.3939   -43422.578    21.487437   0.92903208 
   13300    229.68686   -911.69844    134474.64   -40580.471    2857.7412   -43438.213    21.780651   0.92875128 
   13400    222.89681   -954.75743    134554.55   -40669.387    2773.2601   -43442.647    21.763041   0.92819971 
   13500    226.13308    -1039.437    134503.02   -40714.728    2813.5254   -43528.253    21.861385   0.92855533 
   13600    222.26758   -836.30928    134702.56   -40742.215    2765.4313   -43507.647    22.050368   0.92717977 
   13700    225.91785    -946.7695    134863.93   -40747.439    2810.8475   -43558.286    22.192444   0.92607037 
   13800    228.18309   -905.51335     134981.5   -40659.845    2839.0315   -43498.876    22.170425   0.92526373 
   13900    227.81438   -1026.6734       134867   -40725.274     2834.444   -43559.718    22.281622   0.92604931 
   14000    228.59355   -854.84914    134977.53    -40722.58    2844.1383   -43566.718    22.145108   0.92529095 
   14100    224.82571   -964.11863    135137.34   -40719.425    2797.2592   -43516.684    22.318116   0.92419675 
   14200    225.88467   -923.13486    134938.78   -40774.047    2810.4347   -43584.481    22.415453   0.92555666 
   14300    228.02591   -874.63841    134966.36   -40837.263    2837.0758   -43674.339    22.464536   0.92536758 
   14400    226.73753   -837.72747    135064.72   -40804.353    2821.0459   -43625.399    22.489693   0.92469363 
   14500    227.03281   -854.62052    135146.59    -40756.83    2824.7198    -43581.55    22.542824   0.92413349 
   14600    227.70892   -884.95855    135278.85   -40766.495    2833.1318   -43599.627    22.577799   0.92322999 
   14700     226.1873   -1014.3195    135248.18   -40830.811       2814.2   -43645.011    22.625567   0.92343932 
   14800    226.03419   -1011.5198    135240.58   -40861.144     2812.295   -43673.439    22.623938   0.92349126 
   14900    218.30457   -1077.7048    135123.67   -40926.654    2716.1238   -43642.778    22.872142   0.92429028 
   15000    219.17354   -1005.1901     135066.4   -40926.255    2726.9355    -43653.19    22.807386   0.92468219 
   15100    216.79468   -957.23492    134900.95   -40942.642    2697.3379    -43639.98    22.822812   0.92581624 
   15200    225.51402   -941.02158    134865.88   -40861.123    2805.8231   -43666.946    22.929121   0.92605699 
   15300    224.69633   -838.33579    134925.16   -40869.399    2795.6495   -43665.048    22.930612   0.92565016 
   15400    218.16857   -1007.9239    134974.92   -40842.797    2714.4318   -43557.229    22.910796   0.92530886 
   15500    225.85309   -907.58668     135097.9    -40823.99    2810.0418   -43634.032    23.137918   0.92446658 
   15600    226.51619   -970.86395    135062.02   -40761.673     2818.292   -43579.965    23.107379   0.92471214 
   15700    220.38474   -975.64034    135105.15   -40863.579    2742.0052   -43605.585    23.159847   0.92441692 
   15800    222.73438   -924.94635    135094.71   -40857.282    2771.2392   -43628.522    23.226087   0.92448842 
   15900    222.46261   -989.16353    135132.54   -40897.424    2767.8578   -43665.282    23.231776   0.92422958 
   16000    225.13412   -1070.1555    135378.34   -40827.338    2801.0965   -43628.434    23.276275   0.92255154 
   16100    227.00718   -769.35423    135208.04   -40780.016    2824.4009   -43604.417    23.302483   0.92371352 
   16200     220.2409   -1156.0348     134975.6   -40838.179    2740.2155   -43578.394    23.247361   0.92530419 
   16300    220.85815   -1012.3058    134849.21   -40847.956    2747.8953   -43595.851    23.218699   0.92617144 
   16400    227.17077   -1058.7792     134901.8   -40749.174    2826.4363   -43575.611    23.488712   0.92581043 
   16500     226.5109   -948.29143    134888.95   -40747.329    2818.2263   -43565.555    23.304029   0.92589864 
   16600    225.90575   -895.87694    134876.02   -40733.331     2810.697   -43544.028    23.318491   0.92598738 
   16700    225.25031    -878.1794    134891.32   -40757.076    2802.5421   -43559.618    23.435985   0.92588233 
   16800    228.02586   -853.32617    134786.14   -40756.953    2837.0752   -43594.028    23.451523   0.92660483 
   16900      226.154   -932.96479    134801.25   -40716.882    2813.7857   -43530.667    23.537118   0.92650102 
   17000    226.90617   -908.76163    134639.11   -40746.647    2823.1441   -43569.791    23.521623   0.92761673 
   17100    226.36433   -768.59876    134815.44   -40656.593    2816.4026   -43472.996    23.492363   0.92640349 
   17200    227.66373   -800.66358    134990.16   -40670.329    2832.5696   -43502.898     23.74916   0.92520441 
   17300    225.92122   -893.17902    135086.11   -40723.933    2810.8894   -43534.822    23.915164   0.92454722 
   17400    229.86152   -1109.4672    135077.49   -40757.847    2859.9144   -43617.762    23.868004   0.92460622 
   17500    227.12093   -870.31865    134883.24   -40755.736    2825.8161   -43581.553    23.783044   0.92593783 
   17600    228.16179   -983.77534    134958.58    -40748.74    2838.7664   -43587.506    23.762529   0.92542088 
   17700    225.49938   -868.03681    134998.47   -40762.705     2805.641   -43568.346    23.879403   0.92514748 
   17800    226.25837   -1022.8628     134862.5   -40770.314    2815.0842   -43585.399    23.996804   0.92608022 
   17900    227.99615   -1117.4246       134672   -40728.315    2836.7056    -43565.02    23.976226    0.9273902 
   18000    228.97427   -860.26623     134765.8   -40658.737    2848.8753   -43507.612    23.886061    0.9267447 
   18100    225.21063   -839.76577    134903.76   -40746.359    2802.0484   -43548.407    24.217422   0.92579695 
   18200    228.29484    -950.3869     134901.9    -40750.36    2840.4218   -43590.782    24.346683   0.92580971 
   18300    230.47146   -924.65769    134955.32   -40669.881    2867.5031   -43537.384    24.445495   0.92544323 
   18400    223.39823   -738.29307    134938.09   -40734.158    2779.4988   -43513.656    24.415734   0.92556145 
   18500    230.54119   -1090.1222    134979.02   -40694.525    2868.3707   -43562.895    24.391294   0.92528075 
   18600    219.30627   -986.00594    134887.09   -40769.445     2728.587   -43498.032    24.478002   0.92591136 
   18700    224.53326   -972.25751    135085.19    -40722.85    2793.6207   -43516.471    24.527382   0.92455357 
   18800    227.82016   -985.68564    134966.56   -40700.803    2834.5159   -43535.319    24.544869   0.92536616 
   18900    223.55408   -974.22576    135014.37   -40738.386    2781.4377   -43519.824    24.528092   0.92503854 
   19000    223.01896   -869.01589    135042.13   -40711.081    2774.7798   -43485.861    24.707902   0.92484837 
   19100    225.37751   -815.71137     134925.5   -40773.999    2804.1247   -43578.123    24.753601   0.92564779 
   19200    227.23455   -912.07734    134856.87   -40748.667    2827.2298   -43575.897    24.624988   0.92611887 
   19300    231.22122   -915.38076     135000.3    -40697.74    2876.8315   -43574.572    24.864886   0.92513489 
   19400    226.81611   -854.40883    134884.99   -40712.847    2822.0237    -43534.87    24.884508   0.92592582 
   19500    229.96042   -1015.9157    134894.46   -40704.247    2861.1448   -43565.392    24.921198    0.9258608 
   19600    224.46894   -926.67274    134879.77   -40750.134    2792.8204   -43542.954    24.873745   0.92596163 
   19700     229.3635   -1055.6995    134832.22   -40721.421     2853.718   -43575.139    24.853559   0.92628816 
   19800    222.90759   -1007.5894    135014.84   -40760.693    2773.3942   -43534.087    24.967647   0.92503526 
   19900    228.28931   -920.66649    135183.16   -40768.719    2840.3531   -43609.072    25.233676   0.92388349 
   20000    221.62308   -962.00933    135298.66   -40816.954    2757.4125   -43574.367    25.351418   0.92309483 
   20100    222.07854   -876.27308    135061.47   -40769.659    2763.0792   -43532.738    25.256698   0.92471592 
   20200    220.25215   -968.05087    135090.02   -40815.319    2740.3555   -43555.674    25.330226   0.92452047 
   20300    226.75306   -1036.5426    135283.68   -40845.008    2821.2391   -43666.247    25.482181   0.92319703 
   20400    222.73649   -1029.8414    135153.68    -40850.25    2771.2654   -43621.516     25.67492   0.92408502 
   20500    226.31429   -865.62796    135144.14   -40817.075    2815.7801   -43632.855     25.71546   0.92415026 
   20600    224.76015   -925.92043    135026.54   -40853.646    2796.4435   -43650.089    25.645324   0.92495514 
   20700    226.00191    -843.3532    135160.45   -40784.209    2811.8934   -43596.102    25.650921   0.92403873 
   20800    224.77542   -992.11917    135269.71   -40786.712    2796.6335   -43583.346    25.549877   0.92329239 
   20900    226.70208   -897.43366    135216.36   -40821.848    2820.6049   -43642.453    25.611776   0.92365668 
   21000    219.91529   -1158.8756    135099.51    -40911.69    2736.1643   -43647.854    25.732913   0.92445558 
   21100    220.15284   -961.16607    134938.83   -40928.519    2739.1199   -43667.639    25.769195   0.92555633 
   21200    220.21558   -867.36634    135201.77   -40887.287    2739.9005   -43627.187     25.91849   0.92375631 
   21300    222.67504   -994.06842    135250.67    -40894.28    2770.5008   -43664.781     25.92936   0.92342236 
   21400    222.90119   -841.02617    135261.38   -40870.714    2773.3146   -43644.029    26.010379   0.92334924 
   21500    224.29354   -886.48027    135270.79   -40869.755    2790.6381   -43660.393    26.075911   0.92328501 
   21600     227.5394   -870.45834    135268.92   -40819.541    2831.0227   -43650.564    26.005227   0.92329775 
   21700     222.3739   -959.10855    135239.28   -40786.125    2766.7541   -43552.879    25.940668   0.92350012 
   21800    224.20161   -964.98673    135146.04   -40778.924    2789.4943   -43568.418    25.990018   0.92413725 
   21900    223.83827   -861.29056    135094.33   -40800.414    2784.9736   -43585.388    26.165595   0.92449102 
   22000    226.34577   -934.06773    134937.86   -40856.484    2816.1717   -43672.656    26.201995     0.925563 
   22100    227.41238   -909.72871     135173.9   -40792.807    2829.4424   -43622.249    26.401814   0.92394677 
   22200    227.43736   -884.82497    135124.62   -40834.726    2829.7531   -43664.479    26.521233   0.92428379 
   22300    225.97912   -1002.6205    135160.28   -40829.795    2811.6098   -43641.405    26.654197   0.92403993 
   22400    226.48303   -892.19469    135159.61   -40793.311    2817.8795    -43611.19    26.623374    0.9240445 
   22500    224.89554   -996.69463    135246.92   -40811.283    2798.1281   -43609.411    26.696121   0.92344798 
   22600    227.92702   -1070.8377    135100.17   -40781.007    2835.8455   -43616.852    26.740983   0.92445103 
   22700      227.978   -958.86751    135106.59   -40793.561    2836.4797   -43630.041    26.816289   0.92440709 
   22800    233.02695   -888.34811    135219.91   -40781.633    2899.2983   -43680.931    26.674738   0.92363239 
   22900    224.73079   -934.87693    135245.31   -40833.866    2796.0782   -43629.944    26.807946   0.92345894 
   23000    224.90666    -1004.488    135491.31   -40804.693    2798.2664    -43602.96    26.931507   0.92178229 
   23100    222.40011   -1155.2551    135500.97   -40917.319    2767.0802   -43684.399    26.973022   0.92171659 
   23200    230.12327   -1094.6583    135351.22   -40871.422     2863.171   -43734.593    27.039462   0.92273639 
   23300    222.41871   -998.95833    135265.59   -40911.263    2767.3116   -43678.574    26.987074   0.92332046 
   23400    227.35451   -1022.9955    135363.01   -40840.954    2828.7224   -43669.676    27.080142   0.92265597 
   23500    221.64173   -836.84449    135234.02   -40892.236    2757.6445    -43649.88    27.179612   0.92353605 
   23600    225.37679   -939.79345    135290.63    -40866.89    2804.1157   -43671.005    27.297392   0.92314963 
   23700    223.53247   -1002.6258    135445.32   -40898.824    2781.1689   -43679.992    27.237032    0.9220953 
   23800     221.6537   -903.42018    135323.11   -40956.267    2757.7934    -43714.06    27.487532     0.922928 
   23900    223.47878   -1060.2132    135498.69   -40959.739    2780.5009    -43740.24    27.568515   0.92173211 
   24000    222.36908    -993.0098    135559.68   -40876.682    2766.6941   -43643.376    27.570901    0.9213174 
   24100    224.74583     -977.385    135471.14   -40872.867    2796.2654   -43669.133    27.605917   0.92191957 
   24200    222.41073   -992.06576    135414.34   -40947.131    2767.2123   -43714.344    27.625685   0.92230627 
   24300    219.71532   -776.85746    135448.73   -40907.865    2733.6763   -43641.541    27.726055   0.92207207 
   24400    225.17256   -1031.8108    135724.86   -40960.934    2801.5747   -43762.508    27.911643   0.92019611 
   24500    221.97804   -987.10033    135692.72   -40909.168    2761.8288   -43670.997    27.723512   0.92041408 
   24600    224.74908   -827.89527    135496.74   -40891.141    2796.3059   -43687.447    27.806426   0.92174537 
   24700    221.32915   -810.79503    135596.07   -40917.145    2753.7554     -43670.9    27.603843   0.92107011 
   24800    227.09657   -963.52658    135784.16    -40913.39    2825.5131   -43738.903    27.723814   0.91979425 
   24900    226.05634   -875.20386    135690.84   -40865.629    2812.5706     -43678.2    27.788255   0.92042682 
   25000    225.45156   -1011.8872    135687.36   -40853.524    2805.0461    -43658.57    28.137099   0.92045041 
   25100    224.68527   -907.94593    135687.93    -40867.99    2795.5119   -43663.502    28.043103   0.92044656 
   25200    225.18338   -914.76123     135616.7   -40917.467    2801.7093   -43719.176    28.126988   0.92093002 
   25300    224.33823   -1012.5741    135587.56   -40924.393    2791.1941   -43715.587    28.111606   0.92112795 
   25400    225.76506   -963.37092    135630.92   -40930.044    2808.9466   -43738.991    28.188703   0.92083351 
   25500    221.94798   -831.23025    135743.21    -40900.77    2761.4548   -43662.224    28.215054   0.92007174 
   25600    219.81847   -1028.0782    135806.92   -40980.149    2734.9597   -43715.109    28.005131   0.91964014 
   25700    224.73635   -976.93107    136023.62   -40992.707    2796.1475   -43788.855    28.042465   0.91817502 
   25800    223.23263   -936.13319    135972.79   -40981.378    2777.4383   -43758.816    28.182436    0.9185183 
   25900    227.87905   -928.08511    135869.15   -40931.512    2835.2486   -43766.761    28.260708   0.91921893 
   26000    226.04647   -1042.7809    135860.36   -40860.534    2812.4479   -43672.982    28.419477   0.91927838 
   26100    226.30536   -851.65822    135868.47   -40933.383    2815.6689   -43749.051    28.451743   0.91922351 
   26200    226.83319   -905.06235    135883.21   -40911.675    2822.2362   -43733.912    28.265534   0.91912382 
   26300     222.6423   -1070.5001    135765.76   -40876.957    2770.0935   -43647.051    28.263989   0.91991889 
   26400    225.31038   -933.68738    135577.61   -40865.532    2803.2895   -43668.822    28.226031   0.92119557 
   26500    221.69723   -968.13754     135414.9   -40929.389     2758.335   -43687.724    28.493923    0.9223024 
   26600    225.57209   -756.52346    135395.55   -40966.497    2806.5457   -43773.043    28.376195   0.92243421 
   26700    222.99082   -885.13209     135522.7   -40974.442    2774.4297   -43748.872    28.432817   0.92156878 
   26800    222.60688    -908.6012    135543.38   -40907.485    2769.6529   -43677.138    28.520948    0.9214282 
   26900     221.4893   -1056.5627    135491.63   -40911.063     2755.748   -43666.811    28.270538   0.92178013 
   27000     220.2261   -958.44876    135334.27    -40952.68    2740.0314   -43692.712    28.216318   0.92285191 
   27100    220.74355   -964.77303    135507.95   -40952.658    2746.4694   -43699.127    28.319345   0.92166908 
   27200    222.99467   -812.32031    135588.68   -40957.105    2774.4776   -43731.582    28.477439   0.92112035 
   27300    219.78402    -1068.215    135592.56   -40985.454     2734.531   -43719.985    28.502815   0.92109398 
   27400     226.7439   -914.14441    135711.77   -40919.178    2821.1252   -43740.303    28.547579   0.92028487 
   27500    227.97195   -988.22005    135536.47    -40856.62    2836.4044   -43693.025    28.588093   0.92147514 
   27600    226.61999   -920.06219    135509.22   -40883.042    2819.5835   -43702.626    28.628805   0.92166044 
   27700    225.44682   -1037.1313    135710.37   -40886.326     2804.987   -43691.313    28.724195   0.92029441 
   27800    221.71084   -956.38103     135669.3   -40821.322    2758.5043   -43579.826    28.754594   0.92057296 
   27900    226.85648   -977.68169    135694.01   -40843.816    2822.5259   -43666.341    28.904043   0.92040535 
   28000    227.39216    -722.6835    135592.68   -40878.225    2829.1908   -43707.415    28.997434   0.92109314 
   28100    222.13464   -836.62165    135565.98    -40860.37    2763.7773   -43624.148    29.074683   0.92127461 
   28200    224.29729   -1032.7634    135515.84   -40909.448    2790.6847   -43700.133     28.82707   0.92161544 
   28300    222.69746   -841.75728     135373.2   -40905.459    2770.7797   -43676.238    29.083654   0.92258651 
   28400    224.76554   -1038.8601     135436.5   -40955.257    2796.5106   -43751.768    29.048806   0.92215536 
   28500    223.47106   -826.65456    135589.55   -40988.689    2780.4049   -43769.094    29.022765   0.92111441 
   28600     225.4952   -861.94585    135730.39   -40931.912     2805.589   -43737.501    29.253734   0.92015862 
   28700    222.94334    -917.4199    135760.52   -40935.843     2773.839   -43709.682    29.420215   0.91995442 
   28800    224.94374   -954.14501    135654.23     -40894.9    2798.7277   -43693.628    29.460568   0.92067526 
   28900    228.62651   -913.07545    135569.31   -40862.788    2844.5484   -43707.337    29.452199   0.92125195 
   29000    225.59043   -946.56108    135434.02   -40950.197    2806.7739   -43756.971    29.266433   0.92217219 
   29100    230.33156   -1067.0612    135294.33   -40900.448    2865.7625   -43766.211    29.084167   0.92312437 
   29200    224.20999   -1038.0776    135331.25   -40878.874    2789.5985   -43668.473    29.306177   0.92287251 
   29300    226.98294   -1008.3442    135291.12   -40943.642    2824.0993   -43767.741    29.427623   0.92314628 
   29400     222.8583   -1119.6176    135098.52   -41002.228     2772.781   -43775.008    29.615428   0.92446233 
   29500     222.2365   -1037.1235    135025.77   -41011.589    2765.0446   -43776.634    29.793144   0.92496042 
   29600    226.78765   -927.25437    135199.47   -40909.888    2821.6696   -43731.558    29.685846   0.92377202 
   29700    222.33231   -794.28817    135145.27   -40966.649    2766.2366   -43732.886    29.574721   0.92414254 
   29800    225.16876      -903.64    135246.64   -40939.033    2801.5275    -43740.56    29.539356   0.92344987 
   29900    221.84404   -784.24494    135229.47     -40963.1    2760.1616   -43723.261    29.746122   0.92356709 
   30000    226.81877   -959.40188     135143.3   -40930.394    2822.0567   -43752.451    29.967472   0.92415597 
   30100    224.77037   -963.98104    135044.26   -40928.425    2796.5708   -43724.996    29.998146   0.92483374 
   30200    220.51668   -942.27578    135056.61   -40931.968    2743.6467   -43675.615    29.965253   0.92474918 
   30300    224.67899    -899.0988    135113.23   -40897.121    2795.4337   -43692.555    29.995748   0.92436168 
   30400    226.40503   -895.39264    135328.42   -40890.095     2816.909   -43707.004    30.064443   0.92289183 
   30500    225.73143   -921.84945    135324.53   -40887.962    2808.5281    -43696.49    30.054049   0.92291835 
   30600    223.95941   -1023.8659    135330.07    -40881.07    2786.4809   -43667.551    30.128645   0.92288058 
   30700     221.2717   -870.90887    135333.25   -40893.903    2753.0407   -43646.944    30.136826   0.92285889 
   30800    226.08265   -854.85667    135359.55   -40836.075     2812.898   -43648.973    30.318615   0.92267958 
   30900    221.64842   -973.29505    135514.72   -40959.125    2757.7277   -43716.852    30.449285   0.92162305 
   31000    222.53414   -1005.9311    135409.67   -40995.811    2768.7477   -43764.559    30.513619   0.92233806 
   31100    225.70006   -823.45812    135398.58   -40987.463    2808.1379   -43795.601    30.466797   0.92241359 
   31200    222.01681   -934.42569    135413.36   -41006.598    2762.3111   -43768.909    30.504765   0.92231293 
   31300    220.45328   -919.47511     135307.5   -40955.436    2742.8579   -43698.294    30.465329   0.92303454 
   31400    222.98859   -915.71752    135283.24    -40909.59     2774.402   -43683.992    30.503407   0.92320005 
   31500    221.17463   -1006.7313    135313.72   -40953.748    2751.8329   -43705.581    30.569424    0.9229921 
   31600    228.97019   -891.62334    135456.75   -40885.784    2848.8244   -43734.608    30.685572   0.92201749 
   31700     223.1673   -864.92367    135463.95   -40921.062    2776.6255   -43697.687    30.857876   0.92196847 
   31800     226.3205   -929.38346    135385.81   -40856.891    2815.8573   -43672.748     30.84998   0.92250058 
   31900    227.23515   -902.85647    135438.78   -40840.944    2827.2373   -43668.182    30.911765   0.92213979 
   32000    227.06753   -934.86816     135686.6   -40835.147    2825.1518   -43660.299    31.000795   0.92045562 
   32100    229.60149   -884.77583    135656.46   -40853.081    2856.6791    -43709.76    31.001428   0.92066013 
   32200    220.50663   -1015.4426       135679    -40862.63    2743.5217   -43606.151    30.897521   0.92050716 
   32300     223.9963   -796.24144    135599.39   -40843.192    2786.9398   -43630.132    31.068909   0.92104762 
   32400    227.04933   -1099.6427    135784.81    -40907.42    2824.9254   -43732.346     31.34856   0.91978984 
   32500    225.83146   -938.90136    135764.31   -40933.708    2809.7727   -43743.481    31.358197   0.91992877 
   32600    225.24598   -886.35859    135848.53   -40880.806    2802.4882   -43683.294    31.250175   0.91935845 
   32700     227.7826   -914.34164    135921.84   -40951.067    2834.0486   -43785.115     31.24884   0.91886256 
   32800     226.7973   -1118.8626    135863.56   -40993.641    2821.7896    -43815.43    31.226193   0.91925671 
   32900    222.92305   -974.51177     135834.1   -40992.582    2773.5866   -43766.169    31.473305   0.91945607 
   33000    225.69649   -947.69572    135576.72   -41052.626    2808.0934   -43860.719    31.484125   0.92120157 
   33100    224.85206   -1054.6864    135573.65    -40991.13    2797.5871   -43788.717    31.589383   0.92122245 
   33200    225.91568   -886.04257    135605.63   -41035.436    2810.8205   -43846.257    31.563964    0.9210052 
   33300    225.00359   -797.48529    135760.64     -40971.7    2799.4724   -43771.173    31.603795    0.9199536 
   33400    222.51511   -927.30713    135667.02   -41066.406     2768.511   -43834.918    31.516472   0.92058845 
   33500     224.9601   -905.21744    135706.09    -41018.56    2798.9314   -43817.491     31.44938   0.92032342 
   33600    224.23082   -880.99615    135798.92   -40980.865    2789.8577   -43770.723    31.553889   0.91969428 
   33700    226.65325   -1004.9175    135683.48   -40982.746    2819.9974   -43802.743    31.763929   0.92047677 
   33800    226.39847   -794.99874    135528.67   -40986.698    2816.8274   -43803.526    31.626383    0.9215282 
   33900    226.19729    -924.5796    135660.53     -41003.5    2814.3243   -43817.824    31.673589   0.92063249 
   34000    229.93842   -844.10446    135730.59   -40974.791     2860.871   -43835.662    31.536574   0.92015726 
   34100    220.23269   -927.67957    135726.21   -41011.941    2740.1134   -43752.054    31.761028   0.92018696 
   34200    224.99431   -1024.8858    135564.62   -41024.896     2799.357   -43824.253    31.827747   0.92128383 
   34300    220.27687   -962.99876    135644.25   -41072.691     2740.663   -43813.354     31.92428     0.920743 
   34400    223.63099   -935.78217     135565.2   -41000.345    2782.3947    -43782.74    31.866524   0.92127987 
   34500    229.69076   -920.55095    135621.43   -41015.999    2857.7897   -43873.788    31.730452   0.92089794 
   34600     222.1788   -1020.6089    135412.12    -40997.19    2764.3267   -43761.516    31.654065   0.92232134 
   34700    221.99621   -879.70632    135543.97   -41061.779    2762.0549   -43823.834    31.868922    0.9214242 
   34800     223.7601   -842.06575    135621.49   -41044.119    2784.0011    -43828.12    32.112228   0.92089751 
   34900    223.34409   -862.61476    135673.76   -41055.922     2778.825   -43834.747    32.211754   0.92054274 
   35000     221.7111    -1004.909    135697.57   -41133.076    2758.5076   -43891.584    32.158769   0.92038118 
   35100    221.88261    -1041.764    135775.25   -41056.285    2760.6415   -43816.927    32.179446   0.91985459 
   35200    223.45611   -962.52926    135628.91   -41053.852    2780.2188   -43834.071     31.95584   0.92084715 
   35300    223.38018   -1013.8577    135673.51   -41026.995    2779.2741   -43806.269    32.008616    0.9205444 
   35400    222.85564   -1050.8012    135668.52   -41061.764    2772.7479   -43834.512    32.156784   0.92057826 
   35500    226.00105   -911.90172    135710.01   -40961.247    2811.8827    -43773.13    32.328855   0.92029683 
   35600    222.86178   -846.65106    135745.09   -41005.179    2772.8242   -43778.004    32.507748   0.92005903 
   35700    225.46526   -918.30338    135699.62   -40960.295    2805.2165   -43765.511     32.55194   0.92036731 
   35800    225.08101   -1051.7412    135787.16   -40985.639    2800.4356   -43786.075    32.447036   0.91977396 
   35900    227.54552   -955.66481    135477.44   -40933.742    2831.0989   -43764.841    32.382148   0.92187666 
   36000    226.52466   -968.79974    135456.24   -40893.974    2818.3975   -43712.372    32.320343   0.92202098 
   36100    224.03323   -933.95637     135499.4   -40902.693    2787.3993   -43690.092     32.45805   0.92172729 
   36200    224.39499   -996.39584    135572.55   -40940.023    2791.9003   -43731.923    32.471833   0.92122995 
   36300    220.86452   -1002.9272    135597.55   -40994.211    2747.9745   -43742.186    32.583915   0.92106011 
   36400    223.62735    -906.2684     135513.9   -40939.585    2782.3494   -43721.934     32.61383   0.92162866 
   36500     224.6689   -1014.8893     135556.9   -40922.643    2795.3082   -43717.951    32.618992   0.92133626 
   36600    224.13536    -929.2138    135640.61    -41051.08      2788.67    -43839.75    32.623792   0.92076766 
   36700    223.77881   -905.02121    135594.32   -40991.506    2784.2338    -43775.74    32.788312   0.92108204 
   36800    227.74963   -981.26402    135518.08   -40994.373    2833.6384   -43828.011    32.684993   0.92160021 
   36900    219.16018   -846.65835    135428.46   -41022.649    2726.7693   -43749.419    32.766442    0.9222101 
   37000    226.79036   -959.72235    135563.51   -40953.179    2821.7033   -43774.882    32.858235   0.92129134 
   37100    227.92047   -1001.9633    135630.07   -40938.476     2835.764    -43774.24    32.777021   0.92083923 
   37200    224.09125   -1031.6716    135519.78   -41004.084    2788.1212   -43792.205    32.705114   0.92158865 
   37300    221.25864   -874.78061    135593.32   -41014.256    2752.8781   -43767.134    32.767466   0.92108884 
   37400    221.02338    -819.4114    135543.83   -41050.353     2749.951   -43800.305    32.901778   0.92142511 
   37500    221.99231   -952.41007    135682.11   -41065.199    2762.0064   -43827.206    33.062354   0.92048609 
   37600    225.73922   -984.98495    135504.74   -41019.147     2808.625   -43827.772    33.079851   0.92169097 
   37700    226.18115   -836.88345    135433.92   -41023.526    2814.1235   -43837.649    33.126552   0.92217292 
   37800     221.7645   -953.28976     135567.2   -41127.607     2759.172   -43886.779    33.151816    0.9212663 
   37900     220.6169   -930.27159    135773.65   -41077.893    2744.8937   -43822.787    32.938466   0.91986549 
   38000    227.34251   -1005.9575    135784.04   -41063.143    2828.5731   -43891.716    33.169418    0.9197951 
   38100    226.22834   -916.02908    135695.89   -41034.664    2814.7107   -43849.374    33.112425   0.92039256 
   38200    221.94716   -959.55246     135703.4   -41049.137    2761.4446   -43810.582    33.224499   0.92034163 
   38300    224.58027   -966.44629    135560.29   -40991.424    2794.2055   -43785.629    33.258102   0.92131322 
   38400    222.37272   -1097.1147    135658.85     -41050.7    2766.7394    -43817.44    33.300267   0.92064391 
   38500    222.43206    -1117.591    135530.36   -41060.077    2767.4777   -43827.554    33.143467   0.92151667 
   38600    227.64343   -866.04824    135672.46   -41011.664     2832.317   -43843.981    33.135311   0.92055156 
   38700    224.79471   -1147.6552    135769.12   -41020.067    2796.8735    -43816.94    33.144366   0.91989614 
   38800    227.46717   -854.40287    135668.44   -41043.415    2830.1241   -43873.539    33.154493    0.9205788 
   38900    228.59756   -983.15793    135781.94    -41009.82    2844.1883   -43854.008    33.127186   0.91980931 
   39000    223.09338   -998.63456    135683.69    -41071.57    2775.7057   -43847.275    33.269336   0.92047534 
   39100    223.12483   -855.10701    135690.15    -41037.74    2776.0971   -43813.837     33.51815   0.92043155 
   39200    226.69291   -819.77411     135676.8   -41063.726    2820.4908   -43884.216    33.650717    0.9205221 
   39300    223.77228   -860.51421    135776.94   -41048.481    2784.1526   -43832.634    33.515043    0.9198432 
   39400    226.55572   -980.38694    135882.26   -41012.053    2818.7839   -43830.837      33.6351   0.91913025 
   39500     226.0182   -998.59242    135883.83   -40989.622    2812.0961   -43801.719    33.703569   0.91911961 
   39600    220.05308   -847.47899    135723.86   -41021.797    2737.8786   -43759.676    33.729008   0.92020292 
   39700    223.39344   -963.67795    135700.05   -40959.232    2779.4391   -43738.671    33.737904   0.92036436 
   39800    225.73755   -1025.1494    135580.52   -41026.127    2808.6043   -43834.732    33.874148   0.92117578 
   39900    226.74044   -859.70227    135588.53   -41068.947    2821.0822   -43890.029    34.019279   0.92112133 
   40000    217.47456   -977.09248    135488.33   -41092.866     2705.797   -43798.663    34.095917   0.92180256 
   40100     223.9253    -935.8695    135339.87   -40994.011    2786.0565   -43780.068     34.02075   0.92281372 
   40200    223.59398   -891.47243    135324.39   -41003.898    2781.9342   -43785.832    33.833428   0.92291928 
   40300     225.9489   -848.24619    135335.65   -40982.741    2811.2339   -43793.975     33.97785   0.92284252 
   40400    230.17419   -813.19757     135505.3   -40897.748    2863.8045   -43761.553    34.006892   0.92168715 
   40500    228.38177   -971.10338     135603.1   -40931.257    2841.5035    -43772.76    34.041738   0.92102239 
   40600    222.92725   -958.81604    135658.06   -40982.582    2773.6388   -43756.221    33.895226   0.92064926 
   40700    222.15795   -1099.1041    135481.75   -41024.389    2764.0673   -43788.456     34.11673   0.92184732 
   40800    220.37703   -1044.5251    135511.04   -41065.914    2741.9092   -43807.824    34.044444   0.92164808 
   40900    221.60635   -995.42657    135588.99   -41089.656    2757.2043    -43846.86     34.17585    0.9211182 
   41000    223.87902   -913.31589    135544.89   -40990.633    2785.4807   -43776.114    34.316923   0.92141793 
   41100    227.50365   -985.06215    135540.13   -40982.176     2830.578   -43812.754    34.265137   0.92145026 
   41200    226.44067   -1011.1945     135669.9   -40996.483    2817.3525   -43813.835    34.517919    0.9205689 
   41300    223.13491   -844.20361    135644.51   -41143.122    2776.2225   -43919.345     34.32361   0.92074122 
   41400    221.99726   -919.38449    135718.01   -41086.822    2762.0679    -43848.89    34.365199   0.92024254 
   41500    220.42913   -921.82703    135774.85   -41087.354    2742.5574   -43829.911    34.525994    0.9198573 
   41600    221.37599   -943.21796    135776.48   -41042.024    2754.3382   -43796.362    34.481407   0.91984629 
   41700    223.11967   -1133.5493    135666.68   -41027.953    2776.0329   -43803.986    34.704767   0.92059074 
   41800    219.91584   -924.44108    135560.74   -41034.187    2736.1711   -43770.359    34.775821   0.92131019 
   41900    224.44119   -1113.1121    135482.08   -41001.589    2792.4751   -43794.064    34.812193   0.92184509 
   42000    225.55157   -950.66447    135382.93   -40996.653    2806.2904   -43802.944    34.733968   0.92252022 
   42100    226.06203   -942.51802     135479.1     -40991.6    2812.6414   -43804.241    34.522558   0.92186537 
   42200    225.63299   -975.48122    135453.99   -40939.524    2807.3033   -43746.828    34.537735   0.92203627 
   42300    230.17867   -904.85085    135405.09   -40915.379    2863.8602   -43779.239    34.653129   0.92236922 
   42400    225.88222   -957.14041    135442.52   -40957.973    2810.4043   -43768.377    34.791423   0.92211438 
   42500    228.17749     -1019.28    135269.73   -40958.438    2838.9618     -43797.4    34.802898   0.92329226 
   42600    222.76716   -1034.2817    135253.59   -40955.321     2771.647   -43726.968    34.985448   0.92340242 
   42700    224.89341   -965.89716    135263.87   -40963.545    2798.1016   -43761.647    34.958515   0.92333225 
   42800    225.70438   -991.67898    135187.47   -40902.523    2808.1915   -43710.714    34.951645   0.92385407 
   42900    216.30575   -954.39255    134892.63   -40965.767    2691.2548   -43657.022    35.058659   0.92587335 
   43000    223.84623   -993.26621    135112.93   -40978.662    2785.0726   -43763.734    35.038599    0.9243637 
   43100    227.42143   -855.49349     135161.7   -40950.704     2829.555   -43780.259    35.114961   0.92403019 
   43200    226.17368   -979.72308     135410.8   -40905.574    2814.0306   -43719.604    35.164319   0.92233036 
   43300    224.24166   -969.55811    135163.53   -40923.821    2789.9926   -43713.813    35.050285   0.92401768 
   43400    224.77588   -909.79076    135179.42   -40882.101    2796.6393    -43678.74     35.14964   0.92390903 
   43500       228.25   -987.87594    135209.68   -40894.629    2839.8639   -43734.493    35.041593    0.9237023 
   43600    233.24453   -998.34307    135061.33   -40804.772    2902.0054   -43706.777    35.261261   0.92471688 
   43700     230.7642   -881.97157    135239.32   -40838.008    2871.1454   -43709.153    35.249573   0.92349984 
   43800    228.32835    -876.0683    135198.13   -40844.659    2840.8388   -43685.498    35.198507   0.92378117 
   43900    227.89017   -830.71087    135293.84   -40893.273    2835.3869    -43728.66    35.397743   0.92312768 
   44000    224.06709   -849.43339    135390.58   -40934.189    2787.8205   -43722.009    35.380776   0.92246812 
   44100    227.91302   -918.72021    135429.52   -40957.109    2835.6713    -43792.78     35.59288   0.92220285 
   44200     227.0979   -942.39442    135352.18   -40994.072    2825.5296   -43819.602    35.415722   0.92272984 
   44300    225.64404   -868.55257    135375.53   -40991.947    2807.4408   -43799.388     35.60814   0.92257065 
   44400    224.77812   -989.99993    135476.12   -40954.956    2796.6672   -43751.623    35.549863   0.92188568 
   44500    223.45843   -952.74442    135452.77   -40990.569    2780.2477   -43770.816    35.812377   0.92204455 
   44600    220.11758   -764.69816    135613.08   -41054.994    2738.6811   -43793.675     35.97512    0.9209546 
   44700    221.13145    -1013.303    135610.34   -41040.045    2751.2956    -43791.34    35.989424   0.92097323 
   44800    226.57911   -937.04108    135761.21   -41001.682    2819.0748   -43820.757    35.947673   0.91994977 
   44900    224.60991   -995.37791    135814.14   -40967.025    2794.5742   -43761.599    35.978808   0.91959123 
   45000     226.1951    -1113.081    135774.66   -40971.375     2814.297   -43785.672    36.062602   0.91985862 
   45100    226.55736   -986.39976    136029.55   -40913.717    2818.8043   -43732.522    36.230794   0.91813501 
   45200    229.54829   -1168.5633    135674.66   -40986.428    2856.0171   -43842.445    36.166441   0.92053657 
   45300    224.85144   -938.96136       135712   -41008.249    2797.5794   -43805.828    36.238915    0.9202833 
   45400    226.68185   -985.58298     135811.4   -40986.817    2820.3532    -43807.17    36.354136   0.91960975 
   45500    222.53008   -933.47364    135868.43   -40999.885    2768.6973   -43768.582    36.370625   0.91922379 
   45600    228.19689   -966.33013    135895.31   -40988.948    2839.2032   -43828.151    36.450455   0.91904198 
   45700     223.6867   -885.82614    135909.01   -41002.076    2783.0879   -43785.164    36.511255   0.91894932 
   45800    229.25305   -926.16434    136037.28   -40946.968    2852.3437   -43799.311    36.366635   0.91808284 
   45900    229.90481   -955.94639    136067.06   -40883.378    2860.4529   -43743.831    36.475171   0.91788187 
   46000    229.62341   -1008.4817     135869.5   -40870.092    2856.9517   -43727.044     36.49378    0.9192165 
   46100    230.70444   -1030.9008    135925.02   -40821.111    2870.4018   -43691.513    36.806855   0.91884105 
   46200    230.89567   -877.17253    135751.91   -40818.523    2872.7811   -43691.304    36.885859   0.92001274 
   46300    231.65315   -882.34956    135659.98   -40845.828    2882.2056   -43728.033    36.817215   0.92063621 
   46400    231.56289   -841.84529    135665.44   -40895.618    2881.0826   -43776.701    36.856869   0.92059913 
   46500    225.64707   -806.97745    135591.44   -40923.423    2807.4785   -43730.901    36.608157   0.92110161 
   46600    227.43357   -841.48208    135695.44   -40911.315     2829.706   -43741.021     36.71652   0.92039561 
   46700    225.46746   -873.20236    135804.18   -41001.803    2805.2438   -43807.047    36.892384   0.91965868 
   46800    225.77023   -898.29336    135962.77   -41047.314    2809.0109   -43856.324    36.893816   0.91858596 
   46900    225.85073   -872.54812    136010.89   -40979.805    2810.0124   -43789.818    36.781244   0.91826095 
   47000    222.01036   -1040.5239    135975.96   -40968.976    2762.2309   -43731.207    36.772422   0.91849683 
   47100    227.04208   -1060.8028    135900.75   -40953.393    2824.8351   -43778.228    36.788728   0.91900516 
   47200    227.20098   -994.23808    135990.77   -41006.979    2826.8121   -43833.791    36.938005   0.91839685 
   47300    223.14634   -1133.1736    135773.39   -41041.527    2776.3648   -43817.891    37.037663    0.9198672 
   47400    224.89081    -993.8145    135597.78   -40993.028    2798.0692   -43791.097    36.938945   0.92105856 
   47500    231.78481   -965.64514    135622.93   -40928.588    2883.8437   -43812.432    36.912647    0.9208877 
   47600     232.5763   -1038.5964    135629.12   -40893.121    2893.6913   -43786.812    36.851415    0.9208457 
   47700    228.19256   -1024.4032     135638.6    -40945.92    2839.1493   -43785.069    36.732954   0.92078133 
   47800    225.78629   -1184.8785    135401.45   -40960.239    2809.2108   -43769.449    36.634811   0.92239405 
   47900    223.60967   -1009.7288     135307.8   -41046.342    2782.1294   -43828.471    36.906762   0.92303246 
   48000     219.0058   -1014.1521     135253.3   -41063.578    2724.8485   -43788.427    37.035472   0.92340439 
   48100    226.67004   -883.58245    135247.03   -41023.567    2820.2062   -43843.773    37.298867   0.92344717 
   48200    223.37344    -1060.216    135329.27     -41051.9    2779.1903    -43831.09    37.282765   0.92288599 
   48300    224.61202   -884.73561    135148.55   -41038.647    2794.6005   -43833.248    37.087254   0.92412008 
   48400    227.85526   -943.06143    135072.16   -40957.313    2834.9526   -43792.265    37.063443   0.92464273 
   48500    225.16897   -938.47679    134822.98   -41021.651      2801.53   -43823.181    37.097372   0.92635168 
   48600    227.83833   -846.16697    134927.35   -41017.261     2834.742   -43852.003    37.206689   0.92563507 
   48700    231.79542   -735.32696    135347.13   -40983.598    2883.9757   -43867.574     37.44152   0.92276427 
   48800    225.81511     -1098.36    135476.37   -41023.439    2809.5693   -43833.009    37.503131   0.92188396 
   48900    230.24672   -781.64405    135593.94   -41026.044     2864.707   -43890.751    37.756445   0.92108458 
   49000    224.62435   -1136.3508    135591.38   -41062.104     2794.754   -43856.858    37.649012   0.92110202 
   49100    224.57987   -920.05281    135351.53   -41053.524    2794.2005   -43847.725    37.627809   0.92273427 
   49200    224.93578   -926.10159    135387.42   -41074.185    2798.6287   -43872.814    37.746093   0.92248965 
   49300    223.57878   -934.96375    135342.25   -41034.174    2781.7451   -43815.919    37.654355   0.92279748 
   49400    227.44398   -1019.6783    135474.93   -41019.002    2829.8355   -43848.837    37.898206   0.92189373 
   49500    226.58768   -887.21078    135597.84   -41044.087    2819.1815   -43863.269    37.939561   0.92105809 
   49600    226.60717   -1061.8255    135689.27   -41040.573     2819.424   -43859.997    37.886037   0.92043751 
   49700    226.29308    -949.8726    135609.96   -41049.269    2815.5161   -43864.785    37.753125   0.92097583 
   49800    223.42964   -981.23167    135473.92   -41107.526    2779.8895   -43887.415    37.842227   0.92190061 
   49900    230.10701   -941.93807    135571.37    -41000.27    2862.9687   -43863.238    37.981125   0.92123794 
   50000    229.11651   -983.41177    135656.83   -41036.437    2850.6449   -43887.082     38.03179   0.92065761 
   50100    226.46514   -991.06455     135548.1    -41067.72    2817.6569   -43885.377    37.796817   0.92139608 
   50200    226.38259     -920.352    135580.92    -41114.98    2816.6298    -43931.61    37.683051   0.92117303 
   50300    223.56983   -903.79874    135711.28    -41099.06    2781.6337   -43880.694    37.829162    0.9202882 
   50400      225.385   -1007.8137    135875.11   -41125.422    2804.2179    -43929.64    38.231155   0.91917858 
   50500      221.608   -919.80235    136000.89   -41159.808    2757.2249   -43917.032     38.34828    0.9183285 
   50600    219.94791   -989.05115     136088.5     -41178.5    2736.5701    -43915.07    38.361609   0.91773728 
   50700    219.51395   -1043.3205    135839.84   -41185.837    2731.1709   -43917.008    38.113284   0.91941727 
   50800    226.02776   -947.99007    135748.66   -41187.204     2812.215   -43999.419     38.12871    0.9200348 
   50900    221.54709    -986.8825    135742.82   -41102.547     2756.467   -43859.014    38.254924   0.92007437 
   51000    225.24344   -937.88925    135665.05   -41140.071    2802.4566   -43942.528    38.161328   0.92060183 
   51100    222.59825   -1044.8726    135603.26   -41158.538    2769.5455   -43928.083    38.152451    0.9210213 
   51200    221.28985   -1005.5104    135432.82   -41138.637    2753.2664   -43891.903    38.183149   0.92218038 
   51300    221.90438   -949.81172    135571.61    -41192.34    2760.9123   -43953.252    38.325433   0.92123633 
   51400    222.64419   -771.66441    135578.54   -41188.145     2770.117   -43958.262    38.285387   0.92118926 
   51500    226.01145   -989.63259    135753.85   -41192.242    2812.0122   -44004.254    38.308537   0.91999964 
   51600     224.7725   -792.28798    135786.65   -41149.566    2796.5973   -43946.164    38.516661    0.9197774 
   51700     223.6056   -1014.9232    135740.03   -41143.719    2782.0788   -43925.798    38.738807   0.92009326 
   51800    225.94669   -842.33931    135650.73   -41196.167    2811.2064   -44007.374    38.505704   0.92069897 
   51900    220.00131   -887.00222    135690.51   -41239.855    2737.2345   -43977.089    38.491536   0.92042909 
   52000     217.1607   -751.95487    135864.11     -41260.7     2701.892   -43962.592    38.440039     0.919253 
   52100    220.37087   -937.18736    135996.49   -41200.123    2741.8326   -43941.955    38.268453   0.91835817 
   52200    222.74721   -904.21025    136028.45   -41218.723    2771.3988   -43990.121    38.565414   0.91814241 
   52300    222.52803   -1024.5174     136040.2   -41194.324    2768.6718   -43962.996    38.646319    0.9180631 
   52400    223.50999   -932.54169    135987.77   -41150.926    2780.8892   -43931.816      38.8572   0.91841707 
   52500    225.54229   -973.97076    135915.66   -41146.549    2806.1749   -43952.724    38.788385   0.91890432 
   52600    220.65096   -917.66419     135815.7   -41180.452    2745.3174    -43925.77    38.602496   0.91958063 
   52700    222.17685    -1004.244    135800.85   -41193.457    2764.3024   -43957.759    38.589842   0.91968124 
   52800    224.24475   -942.40453    135806.21   -41139.918    2790.0311   -43929.949    38.781494   0.91964492 
   52900     228.3034   -914.52171    135737.38   -41137.938    2840.5283   -43978.466    38.850364   0.92011126 
   53000    228.13627   -871.36334    135888.42   -41106.485    2838.4489   -43944.934    38.916081   0.91908855 
   53100    225.84925   -864.36573    135946.27   -41160.507     2809.994   -43970.501    38.864362   0.91869748 
   53200    221.88906   -1162.6488    135970.31    -41153.38    2760.7217   -43914.102    38.792109   0.91853502 
   53300    223.26232   -950.25346    135950.94   -41145.453    2777.8077   -43923.261    38.956021   0.91866592 
   53400    223.02022    -912.6968    136040.24   -41231.787    2774.7955   -44006.583    38.962699   0.91806286 
   53500    224.58599    -907.7572    135924.72   -41248.502    2794.2767   -44042.779    38.904583   0.91884309 
   53600    221.78826   -894.73071    135864.36   -41264.428    2759.4676   -44023.896      38.8806   0.91925132 
   53700    219.46276   -908.31736    135899.49   -41284.875     2730.534   -44015.409    38.909946   0.91901372 
   53800    225.36937   -786.52023    135917.64   -41156.875    2804.0235   -43960.898    38.848947   0.91889096 
   53900    225.24083    -900.6287    136135.62    -41207.92    2802.4241   -44010.344    39.036784   0.91741966 
   54000    220.45384   -1023.0257     136117.7   -41183.624    2742.8649   -43926.489    39.025216   0.91754041 
   54100    224.72498   -1019.9999    135955.48   -41209.031    2796.0059   -44005.037    39.138765   0.91863523 
   54200     223.7498   -894.18601    136013.39   -41177.173    2783.8729   -43961.045    39.033631   0.91824412 
   54300    222.58597   -1060.3023    135959.87   -41145.726    2769.3926   -43915.119    39.272364   0.91860554 
   54400    223.58466   -977.66927    136060.44   -41171.225    2781.8183   -43953.043    39.138068   0.91792658 
   54500    222.75656   -889.17937    136132.55   -41147.771     2771.515   -43919.286    39.287327   0.91744034 
   54600     228.4518   -921.48591    135995.14   -41043.595    2842.3747   -43885.969    39.380484   0.91836729 
   54700    223.37529   -998.84825    135916.41   -41052.983    2779.2133   -43832.196    39.243657   0.91889928 
   54800    225.73324   -1050.7162    135752.32   -41118.438    2808.5506   -43926.989    39.237783   0.92000996 
   54900    227.76795    -945.5491     135845.6   -41169.979    2833.8663   -44003.845    39.208232   0.91937829 
   55000    220.86014   -1012.0127    135935.12   -41225.832      2747.92   -43973.752     39.27245   0.91877282 
   55100    225.03857   -1082.7794    136107.16    -41190.03    2799.9077   -43989.938    39.434478   0.91761146 
   55200    221.60457   -1105.5042    135884.19    -41199.18    2757.1822   -43956.362    39.443772   0.91911718 
   55300    225.17588   -906.38451    135867.52   -41141.367     2801.616   -43942.983    39.509041   0.91922995 
   55400    223.75329   -967.89704     136014.2   -41126.703    2783.9164    -43910.62     39.55834   0.91823861 
   55500    229.64863   -923.61644    135832.23   -41072.769    2857.2655   -43930.035    39.474845   0.91946876 
   55600    226.84569   -942.07159    135915.77   -41127.462    2822.3917   -43949.853    39.611862   0.91890363 
   55700    228.06351   -832.79705    135871.23   -41138.558    2837.5437   -43976.101    39.476526   0.91920481 
   55800    224.35167   -1039.1051    135830.86   -41157.832    2791.3613   -43949.193    39.537785   0.91947806 
   55900    229.05143   -919.68471    135935.82   -41121.789    2849.8353   -43971.624    39.561839   0.91876808 
   56000    227.01789   -966.24771    135922.05   -41116.359    2824.5341   -43940.893    39.534519   0.91886118 
   56100    232.48945   -1051.5524    136075.73    -41093.28    2892.6107   -43985.891    39.547361   0.91782339 
   56200    225.14746    -943.5425    136070.06   -41104.588    2801.2624    -43905.85    39.624195   0.91786167 
   56300     226.8731   -875.65721    136088.03   -41139.967    2822.7327     -43962.7    39.613469   0.91774043 
   56400    227.83429   -1112.3164    136028.18   -41129.385    2834.6917   -43964.077    39.607124   0.91814428 
   56500    222.18541   -1026.5579    135986.34   -41222.961    2764.4089    -43987.37     39.68023   0.91842671 
   56600    228.87306   -1122.3357    135893.97   -41238.391     2847.616   -44086.007    39.773154   0.91905098 
   56700    219.98162   -1042.5427    135868.27    -41267.33    2736.9896    -44004.32    39.803299   0.91922483 
   56800    223.83254   -952.12775    135816.82   -41180.179    2784.9024   -43965.082    39.657123   0.91957307 
   56900    221.54191   -968.14386    135876.65   -41164.459    2756.4025   -43920.861    39.616061   0.91916814 
   57000     226.4042   -961.03683    136003.47   -41111.769    2816.8987   -43928.668    39.549766   0.91831108 
   57100     226.3512   -1022.9992     135980.8   -41170.303    2816.2392   -43986.542    39.582276   0.91846415 
   57200    224.24569   -926.75469    135952.51   -41214.241    2790.0428   -44004.283    39.803142   0.91865525 
   57300    220.72799   -891.07958    136005.96   -41269.158    2746.2759   -44015.434    39.968523   0.91829424 
   57400    224.25365   -951.30919    136015.63   -41269.334    2790.1418   -44059.476    40.025022   0.91822895 
   57500    219.01885    -945.2946    135897.42   -41307.978    2725.0109   -44032.988    39.903834   0.91902768 
   57600    223.37744   -910.85274    135853.91   -41267.096      2779.24   -44046.336    39.936008   0.91932201 
   57700    223.57699   -890.29826     135855.2   -41312.177    2781.7228     -44093.9    39.886187   0.91931328 
   57800     218.3867   -940.17541    136028.21   -41332.248    2717.1457   -44049.394     40.12805   0.91814405 
   57900    222.42057   -943.42395    136022.87   -41285.734    2767.3348   -44053.069    40.070712    0.9181801 
   58000    221.19784   -905.04419       135789   -41292.094    2752.1216   -44044.216    40.040504    0.9197615 
   58100    221.86868   -905.29809     135851.5   -41212.263    2760.4682   -43972.732    40.072724   0.91933831 
   58200     226.9747   -979.72029    135868.84   -41162.645    2823.9967   -43986.642    40.248361   0.91922099 
   58300    229.33437   -1113.3444    135941.27   -41099.011    2853.3556   -43952.366    40.369699   0.91873122 
   58400    227.85939   -1126.3008    135902.32   -41117.128     2835.004   -43952.132     40.21459   0.91899455 
   58500    227.49403   -959.53495     135800.2   -41133.042    2830.4582     -43963.5    40.118938    0.9196856 
   58600    228.17863   -918.76907    135869.88    -41096.31     2838.976   -43935.286     40.28611   0.91921394 
   58700    226.84698   -1026.1306    135755.56   -41105.068    2822.4078   -43927.475    40.344305   0.91998803 
   58800    228.03003   -871.99382     135663.6   -41164.857    2837.1271   -44001.984    40.342318   0.92061167 
   58900      225.663     -790.634    135765.46   -41215.532    2807.6767   -44023.209    40.427615   0.91992094 
   59000    224.28446   -924.73713    135929.11    -41194.42     2790.525   -43984.945    40.152464   0.91881344 
   59100    228.35645   -961.37828    135794.33   -41195.288    2841.1884   -44036.476    40.048349   0.91972539 
   59200    227.31126   -1004.6368     135741.5   -41209.288    2828.1843   -44037.472    40.270701   0.92008335 
   59300    226.67637    -784.7203     135749.3   -41192.147     2820.285   -44012.432    40.471043   0.92003043 
   59400    223.05524   -905.90526    135934.05   -41236.404    2775.2313   -44011.635    40.597941   0.91878005 
   59500    224.58954   -918.88629    135950.01   -41201.165    2794.3209   -43995.486    40.507201   0.91867217 
   59600    224.57161   -1096.9579    136013.65   -41189.362    2794.0978    -43983.46    40.236069   0.91824235 
   59700    225.39374   -994.96043    136102.19   -41220.225    2804.3267   -44024.551    40.414621   0.91764497 
   59800     223.4655   -859.96401    136255.67   -41226.186    2780.3356   -44006.522    40.443045   0.91661136 
   59900    221.88118   -1045.9331    136267.74   -41220.793    2760.6237   -43981.417    40.510372   0.91653012 
   60000    221.71532   -930.04708    136193.44   -41257.687      2758.56   -44016.247    40.665164   0.91703012 
   60100    226.76834   -1000.9942    136245.01   -41228.389    2821.4292   -44049.818    40.540448   0.91668306 
   60200    229.84414   -824.41746    136234.54   -41214.768     2859.698   -44074.466    40.613908   0.91675347 
   60300    229.03872   -923.90086    136319.43   -41167.489    2849.6771   -44017.167    40.555323    0.9161826 
   60400    228.92272   -1003.5554    136332.19   -41111.386    2848.2339    -43959.62    40.508835   0.91609688 
   60500    225.59813   -1042.7205    136122.49   -41141.784    2806.8696   -43948.654    40.689559   0.91750813 
   60600    225.12982   -784.22549    136128.31   -41189.801     2801.043   -43990.844    40.645408   0.91746887 
   60700    225.78629   -957.48133    135984.88   -41200.572    2809.2107   -44009.782    40.634512   0.91843659 
   60800    229.20202   -980.04458    135969.12   -41152.952    2851.7089   -44004.661    40.509364   0.91854308 
   60900    226.49981   -948.78549    135844.05   -41153.449    2818.0882   -43971.537     40.54836   0.91938876 
   61000    226.07097   -960.96678    135782.82   -41205.383    2812.7527   -44018.135    40.603284   0.91980337 
   61100    225.89625   -929.36935    135889.74   -41243.295    2810.5788   -44053.874     40.53156   0.91907961 
   61200     225.3911   -943.22306    136098.18   -41243.947    2804.2938    -44048.24    40.639054   0.91767202 
   61300    223.22596   -790.35759    136049.69   -41241.687    2777.3553   -44019.043    40.745258   0.91799911 
   61400    220.93535   -1037.5008    136061.35   -41268.382    2748.8557   -44017.238    40.637112    0.9179204 
   61500    224.83151   -945.71206     136073.7     -41278.8    2797.3314   -44076.131    40.681776   0.91783712 
   61600    222.28631   -959.81357    136021.34   -41232.431    2765.6643   -43998.095    40.886858   0.91819044 
   61700    222.09747    -1112.385     136038.1   -41315.813    2763.3147   -44079.128    40.853389   0.91807732 
   61800    220.11387   -1017.4939    135996.03   -41373.209     2738.635   -44111.844    40.911665   0.91836133 
   61900    216.21073   -991.78828    136088.56    -41297.35    2690.0725   -43987.423    40.961144   0.91773688 
   62000    224.67617   -1028.9841    136075.45   -41241.097    2795.3987   -44036.496    40.969871   0.91782533 
   62100    223.87341   -959.87304    136121.89   -41248.646    2785.4108   -44034.057    40.951601   0.91751217 
   62200    226.16456   -971.06014    136026.97   -41209.371    2813.9171   -44023.288    40.809432   0.91815244 
   62300    224.50379    -915.4451    136065.49   -41236.329     2793.254   -44029.583     40.88998   0.91789251 
   62400    226.71874   -900.39806    136178.13   -41169.948    2820.8122   -43990.761    40.888633   0.91713324 
   62500    228.90165   -913.45948    136085.33    -41187.21    2847.9717   -44035.182    41.032747   0.91775869 
   62600    225.19491   -1001.6733    136214.74   -41206.433    2801.8528   -44008.285    41.151816   0.91688676 
   62700    222.43346   -860.56012    136156.17    -41240.44    2767.4951   -44007.935    41.174735   0.91728119 
   62800    223.80723   -904.15669    135969.37   -41240.628    2784.5874   -44025.215    40.943961   0.91854139 
   62900    227.16892   -878.28429     136100.3   -41189.094    2826.4132   -44015.507    40.924229   0.91765775 
   63000    230.12143   -875.41102    136108.92   -41150.646    2863.1481   -44013.794    40.878523   0.91759963 
   63100    228.22597    -975.4366    136247.44   -41135.411     2839.565   -43974.976    40.976896   0.91666672 
   63200    225.94853   -826.19721    136163.82   -41171.543    2811.2292   -43982.772    40.966954   0.91722967 
   63300    225.45554    -931.2452    136166.65   -41194.585    2805.0956   -43999.681    41.012365   0.91721058 
   63400    229.56976   -922.01808    136241.93   -41113.173    2856.2843   -43969.457     41.27157   0.91670379 
   63500    223.57933   -992.20018    136271.74   -41217.218    2781.7519    -43998.97    41.272185   0.91650327 
   63600    226.22408   -900.02065    136332.28   -41218.176    2814.6577   -44032.833    41.379696   0.91609626 
   63700    222.41542   -1041.9984     136347.9   -41221.596    2767.2707   -43988.867    41.229556   0.91599131 
   63800    221.68696   -998.78188    136385.24   -41332.218    2758.2073   -44090.425    41.159469   0.91574055 
   63900     217.8499   -935.00284    136380.44   -41310.033    2710.4669     -44020.5    41.194965   0.91577278 
   64000    221.70636   -818.53095    136253.29   -41291.202    2758.4487   -44049.651    41.176748   0.91662731 
   64100     223.7275    -904.1189    136278.13    -41200.26    2783.5954   -43983.856    41.175273   0.91646027 
   64200    229.10418   -868.23349    136323.54   -41205.147    2850.4916   -44055.639    41.405722   0.91615497 
   64300    230.02152   -960.44427     136502.2    -41120.08     2861.905   -43981.985    41.676779   0.91495592 
   64400    230.02623   -981.19526    136356.69   -41158.793    2861.9636   -44020.757    41.530264   0.91593223 
   64500    227.00918   -860.69415    136212.24   -41148.464    2824.4257    -43972.89    41.428961   0.91690356 
   64600      224.391   -1015.2588    136245.56   -41201.309    2791.8506    -43993.16    41.451861   0.91667933 
   64700    224.54884   -1037.5151    136348.52   -41202.902    2793.8145   -43996.716    41.372255   0.91598717 
   64800    227.17019   -1017.6418    136278.19   -41219.311    2826.4291    -44045.74    41.368941   0.91645989 
   64900    221.67793   -921.29533    136293.75   -41191.432    2758.0949   -43949.527    41.745727   0.91635526 
   65000    229.04115   -792.19125    136436.45   -41156.492    2849.7074   -44006.199    41.855295   0.91539681 
   65100    221.70226   -1006.0029     136420.4   -41182.936    2758.3976   -43941.334    41.647079   0.91550451 
   65200    225.64714   -881.39199    136297.25   -41173.608    2807.4794   -43981.087    41.545686   0.91633173 
   65300    229.53311   -986.12182    136348.24   -41187.496    2855.8282   -44043.324    41.661727   0.91598905 
   65400    228.21953    -995.8376    136369.53   -41118.315    2839.4849     -43957.8    41.825951   0.91584605 
   65500    226.95235   -761.79109    136255.29   -41192.235    2823.7188   -44015.954    41.572646    0.9166139 
   65600    223.51957    -1016.498    136256.38    -41234.88    2781.0084   -44015.888    41.843512   0.91660659 
   65700    219.51179   -1053.3037    136249.08   -41285.184     2731.144   -44016.328    41.662639   0.91665565 
   65800    223.69005   -1007.5328     136184.7   -41292.192    2783.1295   -44075.321    41.518972   0.91708898 
   65900    220.61622   -943.85073    136271.87   -41253.012    2744.8852   -43997.897    41.587071   0.91650238 
   66000    230.85493   -925.70269    136460.79   -41146.324    2872.2742   -44018.598    41.657851    0.9152335 
   66100     229.3736   -812.16715    136347.65   -41102.625    2853.8437   -43956.469     41.59219   0.91599297 
   66200    225.71485   -991.31838    136423.53   -41077.788    2808.3218    -43886.11    41.810399   0.91548348 
   66300    225.80212   -858.94595    136352.95   -41123.842    2809.4077   -43933.249    41.718542   0.91595736 
   66400    227.06461   -917.50634    136318.13   -41168.035    2825.1154   -43993.151    41.658541   0.91619135 
   66500    226.02932   -994.70914    136435.09    -41175.16    2812.2345   -43987.394    41.879592   0.91540591 
   66600    227.58173   -874.42899    136391.33   -41190.868    2831.5494   -44022.418     41.92679   0.91569967 
   66700    222.08186   -1011.3809    136447.91   -41220.193    2763.1206   -43983.314    41.788889   0.91531993 
   66800    225.02835   -976.54784    136332.96   -41144.915    2799.7805   -43944.696    41.940966   0.91609171 
[...]
   84600    217.81491   -970.87818    135563.97   -41298.542    2710.0316   -44008.574    46.550161   0.92128826 
   84700    221.50711   -947.49804    135568.21   -41310.794    2755.9695   -44066.763    46.605081   0.92125946 
   84800    223.98642   -966.05089    135652.02   -41277.179    2786.8169   -44063.995    46.852506   0.92069023 
   84900    225.53344   -1041.2016    135526.36   -41248.666    2806.0647    -44054.73    46.605807   0.92154392 
   85000    224.91529   -1034.7597    135535.39   -41197.577    2798.3738   -43995.951    46.612046   0.92148252 
   85100     223.3134    -913.2318    135664.42   -41196.168    2778.4433   -43974.611    46.666283   0.92060609 
   85200    225.33003   -957.24464    135702.83   -41200.813    2803.5339   -44004.347    46.665573   0.92034555 
   85300    221.43116   -800.95937    135650.59   -41226.724    2755.0246   -43981.748    46.791963   0.92069994 
   85400    225.05933   -878.99462    135689.82   -41216.021    2800.1659   -44016.187     46.87032   0.92043374 
   85500    226.76546   -738.64493    135671.96   -41164.239    2821.3934   -43985.632    47.008625   0.92055495 
   85600    220.76059   -1056.8016    135608.16   -41139.247    2746.6814   -43885.929    46.757152   0.92098803 
   85700    226.38119   -758.96548    135712.54   -41179.388    2816.6124       -43996    46.676328   0.92027964 
   85800    226.25948   -848.33608    135534.95   -41180.738     2815.098   -43995.836    46.602917   0.92148552 
   85900    226.60911   -1096.2877    135584.21   -41079.514    2819.4481   -43898.962     46.71575   0.92115072 
   86000    224.77953   -784.67882    135445.73   -41133.625    2796.6847    -43930.31    46.547925   0.92209252 
   86100     226.1615   -805.17727    135480.57    -41115.44    2813.8791    -43929.32    46.504879   0.92185534 
   86200    228.97015   -836.37426    135416.92   -41090.925     2848.824   -43939.749    46.505563    0.9222887 
   86300    227.25856   -1002.3438    135469.03   -41129.044    2827.5286   -43956.573    46.729357   0.92193387 
   86400    227.62407   -909.90922    135637.84   -41144.452    2832.0762   -43976.528    46.773519   0.92078652 
   86500    227.26772    -1000.925    135414.26   -41126.847    2827.6426    -43954.49    46.898107   0.92230679 
   86600    227.89722   -919.01892    135553.51   -41058.577    2835.4747   -43894.052    46.793513   0.92135931 
   86700    228.82006   -782.46998    135604.22   -41056.282    2846.9566   -43903.238    46.796099   0.92101477 
   86800    221.88675   -800.19433    135698.58   -41122.498     2760.693   -43883.191    46.827743   0.92037437 
   86900      226.856   -963.93596    135665.27   -41082.079    2822.5199   -43904.599    46.904154    0.9206003 
   87000    224.41316   -957.48007    135653.15   -41086.582    2792.1263   -43878.709    47.208191   0.92068258 
   87100    226.50875   -989.17162     135585.6   -41128.474    2818.1994   -43946.674    47.170828   0.92114129 
   87200    224.68998   -973.54448    135525.89   -41131.633    2795.5705   -43927.203    46.885772   0.92154709 
   87300    225.38181   -1027.9371    135494.29   -41133.819    2804.1782   -43937.998    47.187131   0.92176204 
   87400    226.79187   -978.27165    135581.67   -41139.053     2821.722   -43960.775     47.17783     0.921168 
   87500    225.56948   -913.46409    135587.51   -41152.983    2806.5131   -43959.496    46.972945   0.92112831 
   87600    225.50894   -968.78234    135615.96   -41174.437      2805.76   -43980.197    47.127197   0.92093507 
   87700    222.70412   -1046.2657    135643.56   -41191.832    2770.8626   -43962.695    47.175425   0.92074764 
   87800    228.21504   -1032.9115    135433.76   -41180.046     2839.429   -44019.475    47.223414   0.92217399 
   87900    226.29079   -955.35183    135488.35   -41194.644    2815.4876   -44010.132    47.172613   0.92180246 
   88000    225.62458   -848.55914    135385.14   -41226.327    2807.1987   -44033.526    47.021424   0.92250518 
   88100    225.14828   -926.66183    135484.11   -41153.426    2801.2726   -43954.698    47.150375   0.92183126 
   88200    228.74702   -933.87863    135516.03   -41127.237    2846.0478   -43973.284    47.266166   0.92161413 
   88300    224.63711   -788.84968    135441.45   -41153.004    2794.9127   -43947.916    47.487601   0.92212161 
   88400    217.58724   -936.71774    135549.14   -41249.733     2707.199   -43956.932    47.377398   0.92138903 
   88500    223.22272   -917.46076    135518.03   -41151.764     2777.315   -43929.079    47.226316   0.92160057 
   88600    225.35889   -1010.8515    135460.51   -41110.799     2803.893   -43914.693    47.176813   0.92199186 
   88700    230.27328   -999.34043    135553.31    -41088.94    2865.0374   -43953.977    47.219938   0.92136067 
   88800    228.99468   -944.34833    135536.12   -41020.857    2849.1291   -43869.986    47.194717   0.92147753 
   88900    227.91349   -996.20243    135517.22   -41076.379    2835.6771   -43912.056    47.297826   0.92160607 
   89000    229.08938   -836.30046    135744.74   -41071.372    2850.3074   -43921.679    47.333607   0.92006135 
   89100    227.59642   -1025.1169    135685.64   -41192.511    2831.7321   -44024.243    47.343976   0.92046215 
   89200    224.89394   -979.46514     135731.5   -41226.286    2798.1081   -44024.394    47.351112   0.92015111 
   89300    223.15627   -1039.9178    135715.19   -41243.935    2776.4883   -44020.423    47.510674   0.92026173 
   89400    220.64957   -774.47499    135910.53   -41270.747    2745.3001   -44016.047    47.447041   0.91893901 
   89500     218.0734   -1048.2317    135866.91    -41308.41    2713.2477   -44021.658    47.511905   0.91923403 
   89600    218.28339   -980.58435    135862.08   -41352.865    2715.8604   -44068.726    47.373103   0.91926671 
   89700    220.35837   -864.17126    135859.56   -41310.559     2741.677   -44052.236    47.409828   0.91928378 
   89800    222.34601   -899.45673     135797.5   -41286.207    2766.4071   -44052.614    47.630457   0.91970393 
   89900    219.90565   -827.09144    135767.37   -41352.539    2736.0444   -44088.584    47.571486   0.91990801 
   90000    225.23448   -1081.5284    135692.38   -41269.645    2802.3452   -44071.991    47.900499   0.92041641 
   90100    222.92327   -972.22047     135870.1   -41276.607    2773.5893   -44050.197    48.137372   0.91921245 
   90200    227.61525   -854.07944    135772.83   -41313.629    2831.9664   -44145.595    47.930348     0.919871 
   90300    222.16457   -928.86997    135755.03   -41314.122    2764.1496   -44078.272    47.851129    0.9199916 
   90400    219.88998   -808.38462    135837.54   -41299.113    2735.8494   -44034.962       47.725   0.91943284 
   90500    221.84573   -886.93208    135970.87   -41255.131    2760.1826   -44015.314     47.63346   0.91853123 
   90600     231.0455   -1100.8167    135781.71   -41170.737    2874.6452   -44045.382    47.784244   0.91981086 
   90700    227.51513   -994.09194    135799.39   -41170.632    2830.7208   -44001.352    48.037737   0.91969114 
   90800    224.41184   -964.27158    135657.77   -41201.182    2792.1099   -43993.292    47.908147   0.92065125 
   90900    218.32986    -1031.485    135587.14   -41293.805    2716.4385   -44010.244    47.968319   0.92113082 
   91000     220.2844   -764.21831    135627.63   -41306.755    2740.7568   -44047.512    47.965327   0.92085579 
   91100    222.07299   -881.90877    135717.04   -41291.768    2763.0102   -44054.778    48.008925   0.92024913 
   91200    225.80711   -922.89364    135742.76   -41257.293    2809.4698   -44066.763    47.965719    0.9200748 
   91300    225.01207   -962.94065    135846.08   -41155.024     2799.578   -43954.602    48.001097   0.91937504 
   91400     224.4987   -867.11557    135847.85   -41121.376    2793.1906   -43914.566    47.882828   0.91936302 
   91500    226.15352   -894.94727    135771.73   -41131.623    2813.7798   -43945.403    47.942765   0.91987849 
   91600    222.03905   -881.19486    135842.65   -41165.959    2762.5879   -43928.547     48.18304    0.9193982 
   91700    224.01806   -930.34725    135959.65   -41232.201    2787.2106   -44019.412    48.341196   0.91860707 
   91800    223.97543   -958.31889    136013.31    -41205.38    2786.6802   -43992.061    48.355042   0.91824462 
   91900     226.1354   -1005.8229    136028.05    -41215.93    2813.5543   -44029.484    48.511977   0.91814516 
   92000    224.68133   -1071.5548    135984.16   -41240.223    2795.4629   -44035.686    48.348882   0.91844147 
   92100    221.90299    -914.0125    135995.45   -41278.438     2760.895   -44039.333    48.574568    0.9183652 
   92200    226.39091   -933.95859    135987.67   -41221.838    2816.7333   -44038.571    48.334323   0.91841773 
   92300    227.13382   -992.39006    135808.76   -41137.194    2825.9765   -43963.171    48.279515   0.91962766 
   92400     229.5852   -966.49037    135937.67    -41138.56    2856.4764   -43995.037    48.261449   0.91875555 
   92500    223.66184   -921.06689    135983.21    -41198.27    2782.7785   -43981.049    48.372958   0.91844788 
   92600    228.58287   -891.81163    135932.66   -41171.424    2844.0055   -44015.429    48.447629   0.91878941 
   92700    223.77394   -946.67358    136017.31   -41160.064    2784.1732   -43944.237    48.562409   0.91821765 
   92800    222.79787   -1015.6843     136067.1   -41214.195    2772.0291   -43986.224    48.719067    0.9178816 
   92900    228.42312    -971.3841    136045.04   -41179.885    2842.0179   -44021.903    48.782612   0.91803049 
   93000    225.86684   -964.78571    136046.79   -41198.005    2810.2129   -44008.218    48.507622   0.91801868 
   93100    229.35401   -948.90976    136033.86   -41131.328    2853.5999   -43984.928    48.624657   0.91810593 
   93200    224.68923   -878.52994    135956.37   -41139.195    2795.5612   -43934.756    48.597068   0.91862918 
   93300    224.17348   -966.43069    135948.35   -41156.365    2789.1443   -43945.509    48.808666   0.91868337 
   93400    224.68726   -857.97962    136042.85   -41186.769    2795.5367   -43982.306    48.954781   0.91804525 
   93500    220.40936   -908.57724    135989.16   -41238.401    2742.3115   -43980.713    48.870566   0.91840771 
   93600    221.99575   -758.19477    136226.66   -41307.364    2762.0491   -44069.413    48.838095   0.91680652 
   93700    222.22407   -1083.4584    136231.13    -41267.08    2764.8899    -44031.97    48.894837   0.91677642 
   93800    223.15306   -865.08505    136061.31   -41236.777    2776.4484   -44013.225    48.703385   0.91792069 
   93900    222.99999   -1081.9245    135997.47     -41221.7    2774.5438   -43996.244    48.937881   0.91835158 
   94000    225.29503   -1033.8329    135978.76   -41231.773    2803.0985   -44034.872    48.957905   0.91847792 
   94100    225.18329   -896.64293    136051.18   -41235.661    2801.7083   -44037.369    49.114762   0.91798905 
   94200    223.33595   -1108.3269    136014.88   -41231.593    2778.7238   -44010.316     49.14424   0.91823403 
   94300    223.68358    -941.0723     136113.4   -41186.195     2783.049   -43969.244    49.040055   0.91756942 
   94400    225.77244   -1008.5685    136008.31   -41178.049    2809.0383   -43987.087     48.83826   0.91827839 
   94500    224.64056   -977.61883    135896.43   -41118.373    2794.9557   -43913.329    48.983508   0.91903441 
   94600    228.62351   -1089.2333    135946.36   -41153.166    2844.5111   -43997.677     48.86151   0.91869685 
   94700    223.53049   -835.98579    136108.47   -41179.923    2781.1443   -43961.067    49.085388   0.91760261 
   94800    225.97252   -1084.2839    136108.35   -41170.855    2811.5277   -43982.383     49.02992   0.91760347 
   94900    222.94495   -896.81209    136132.18   -41138.092    2773.8591   -43911.951    49.303835   0.91744279 
   95000    224.87611   -897.02286    136227.77   -41118.862    2797.8864   -43916.749    49.319566   0.91679904 
   95100    230.91323   -1008.0361    136028.49   -41125.731    2872.9995   -43998.731    49.206436   0.91814217 
   95200    223.37935   -1096.7263    136097.91   -41155.773    2779.2638   -43935.037    49.253126   0.91767381 
   95300    230.06367   -1088.8577    136014.13   -41059.829    2862.4294   -43922.258    49.252205   0.91823911 
   95400    229.69616   -864.65681    135800.88   -41124.875    2857.8569   -43982.732    49.356105   0.91968101 
   95500    228.39006   -1160.6532    135865.67   -41134.227    2841.6065   -43975.834    49.327893   0.91924242 
   95600    224.00065   -909.61111    135731.81   -41128.693     2786.994   -43915.687    49.200379   0.92014901 
   95700    223.63774   -768.53589    135884.44   -41186.123    2782.4786   -43968.602    49.640047   0.91911546 
   95800    226.75806   -904.65045    135890.56   -41230.363    2821.3014   -44051.665    49.415971   0.91907407 
   95900    224.53429    -885.7083    135908.73   -41189.913    2793.6335   -43983.546    49.581668   0.91895119 
   96000    225.19892    -920.2284    135893.72   -41277.743    2801.9027   -44079.646    49.372404   0.91905273 
   96100    227.58215   -801.20114    136109.88   -41221.454    2831.5547   -44053.009     49.49785   0.91759313 
   96200    223.18743   -1054.6808    136101.19   -41266.824    2776.8759     -44043.7    49.528588   0.91765173 
   96300    225.92019   -877.77882    135968.53   -41221.893    2810.8766    -44032.77    49.564289   0.91854708 
   96400    227.95941   -890.32207    135934.62   -41217.759    2836.2485   -44054.007    49.617914   0.91877617 
   96500    221.97059   -913.55053    136025.07   -41260.405    2761.7362   -44022.141    49.693086   0.91816524 
   96600    220.60054   -1053.4525     136086.1   -41258.404    2744.6901   -44003.094    49.656831   0.91775349 
   96700    218.98438   -1074.8238    136057.85    -41336.77     2724.582   -44061.352    49.541757   0.91794403 
   96800    215.95021   -836.12789    135964.79   -41391.974    2686.8312   -44078.805    49.715736   0.91857229 
   96900    223.59558   -1045.6353    136015.42   -41317.621    2781.9541   -44099.575    49.905331    0.9182304 
   97000    221.17962   -992.42308     136071.9   -41315.951     2751.895   -44067.846    49.781071   0.91784926 
   97100    223.81607   -869.66534    136027.62   -41312.266    2784.6975   -44096.964    49.782109   0.91814805 
   97200    224.22596   -880.61973    136010.91    -41322.39    2789.7972   -44112.188    49.672322   0.91826085 
   97300    221.85911   -983.73697    136049.54   -41312.627    2760.3491   -44072.976    49.695847   0.91800011 
   97400    219.61488    -926.9136     136138.3   -41314.968    2732.4267   -44047.395       49.753   0.91740158 
   97500    226.52852   -1045.9061    136114.14   -41212.406    2818.4455   -44030.851    49.808525   0.91756441 
   97600    220.75226   -968.85548    136097.89   -41282.238    2746.5777   -44028.816    49.912052   0.91767395 
   97700    222.62851   -983.24587     136125.1   -41203.799    2769.9219   -43973.721    49.948205   0.91749051 
   97800    227.82036   -890.85489    135994.08   -41191.465    2834.5184   -44025.983     50.00234   0.91837446 
   97900    229.77262    -906.2253    136043.02   -41154.893    2858.8083   -44013.702    50.094025   0.91804412 
   98000    229.09401   -928.84697     135930.4   -41187.111     2850.365   -44037.476    49.976522   0.91880473 
   98100    224.53552   -953.96315    135878.58   -41256.756    2793.6488   -44050.405    50.093664   0.91915508 
   98200    227.57529   -844.95531    136011.36   -41222.209    2831.4692   -44053.678    50.113671   0.91825781 
   98300    221.32849   -970.25169    135911.56   -41229.271    2753.7471   -43983.018    50.157512   0.91893209 
   98400    225.30494   -850.21159    135898.27   -41234.064    2803.2218   -44037.285    50.251787   0.91902196 
   98500    220.75188   -907.39601    135866.53   -41229.079     2746.573   -43975.652    50.442716    0.9192366 
   98600    221.11097   -1072.1197    135901.01     -41249.9    2751.0409   -44000.941    50.410118    0.9190034 
   98700    221.62908   -1017.0899    135843.23   -41304.076    2757.4871   -44061.563    50.344295   0.91939429 
   98800    225.04575   -854.41416    135822.44   -41269.219     2799.997   -44069.216    50.246467   0.91953502 
   98900    227.23972   -1028.8623    135806.11   -41276.239    2827.2941   -44103.533     50.25998   0.91964558 
   99000      218.544   -961.77928    135779.25   -41314.406    2719.1028   -44033.509     50.36824   0.91982752 
   99100    220.81642   -885.61065    135828.67   -41241.522     2747.376   -43988.898    50.470571   0.91949287 
   99200    221.55498   -954.70338    135931.29   -41224.072    2756.5651   -43980.637    50.470654   0.91879869 
   99300    226.50245   -948.88383    136003.56   -41179.035    2818.1211   -43997.156    50.614658   0.91831045 
   99400    231.98722   -1004.1859    135925.92   -41158.787     2886.362   -44045.149    50.615016   0.91883498 
   99500     231.6774   -853.17644    135916.91   -41038.915    2882.5073   -43921.423     50.42966   0.91889588 
   99600    230.38861   -1026.7339    136006.18   -41076.303    2866.4724   -43942.775    50.341359   0.91829275 
   99700    229.51397   -987.74254    135767.86   -41108.923    2855.5901   -43964.514    50.339275   0.91990471 
   99800    226.64576    -999.2578    135801.95   -41127.017    2819.9041   -43946.921    50.458797   0.91967379 
   99900    225.10539   -944.20977    135902.22    -41181.72     2800.739   -43982.459    50.684915   0.91899519 
  100000    225.46952   -1047.5046    135883.27   -41192.005    2805.2695   -43997.274    50.416182   0.91912339 
  100100    225.77152    -983.5065    135931.94   -41122.884    2809.0269   -43931.911    50.535871   0.91879432 
  100200    228.04671   -766.74802    136005.48    -41134.39    2837.3347   -43971.725    50.539657   0.91829752 
  100300    226.06917   -895.17098    136064.94   -41115.396    2812.7303   -43928.127    50.682422   0.91789619 
  100400    224.16581   -1042.0807    136024.78   -41142.919    2789.0489   -43931.968      50.6774    0.9181672 
  100500      228.464   -939.22253    136173.55    -41051.25    2842.5265   -43893.777    50.758085   0.91716412 
  100600     224.9734   -1067.6808    136132.47   -41132.632    2799.0968   -43931.729     50.93594   0.91744086 
  100630    230.71552   -993.55782    136024.93   -41117.712    2870.5397   -43988.252    50.897238   0.91816617 
Loop time of 72.121 on 6 procs for 100000 steps with 4175 atoms

Performance: 598.993 ns/day, 0.040 hours/ns, 1386.558 timesteps/s
98.5% CPU use with 6 MPI tasks x no OpenMP threads

MPI task timing breakdown:
Section |  min time  |  avg time  |  max time  |%varavg| %total
---------------------------------------------------------------
Pair    | 56.26      | 57.78      | 58.662     |  11.6 | 80.11
Neigh   | 5.047      | 5.0772     | 5.1202     |   1.0 |  7.04
Comm    | 5.7828     | 6.7125     | 8.2886     |  35.3 |  9.31
Output  | 0.17674    | 0.17752    | 0.18092    |   0.4 |  0.25
Modify  | 1.7446     | 1.7626     | 1.7797     |   1.0 |  2.44
Other   |            | 0.6117     |            |       |  0.85

Nlocal:        695.833 ave         706 max         683 min
Histogram: 1 0 0 0 1 1 1 1 0 1
Nghost:        1450.17 ave        1475 max        1436 min
Histogram: 1 2 1 0 0 0 1 0 0 1
Neighs:        0.00000 ave           0 max           0 min
Histogram: 6 0 0 0 0 0 0 0 0 0
FullNghs:      18666.7 ave       18860 max       18295 min
Histogram: 1 0 0 0 1 0 0 2 0 2

Total # of neighbors = 112000
Ave neighs/atom = 26.826347
Neighbor list builds = 5550
Dangerous builds = 0

undump              1
unfix               2
unfix               3
unfix               4


################################################
#######         Run Simulation         #########
################################################

reset_timestep      0
log                 log.run_${NAME}
log                 log.run_liquid_density_MLmW
