LAMMPS data file via write_data, version 29 Oct 2020, timestep = 800000

4175 atoms
1 atom types

-0.6025094676831451 50.60250946767955 xlo xhi
-0.6025094676831451 50.60250946767955 ylo yhi
-0.6025094676831451 50.60250946767955 zlo zhi

Masses

1 18.015

Atoms # atomic

1470 1 2.519991174790781 1.2208894483421133 2.8661824458842533 0 0 1
2268 1 4.127249345100824 0.7775760109673442 0.7097785594849739 1 1 0
1800 1 25.940631559169596 6.433624501457682 -0.29795420790459987 0 0 1
2476 1 8.891002787570432 0.6366834302672448 1.3937802901223406 0 1 0
379 1 11.424768436944936 0.7872280059299159 2.615083743020835 0 0 0
400 1 16.042051725465733 0.9323882804907098 3.2846974750977824 0 0 0
3760 1 23.571835471856826 1.7867636522261088 1.817405390536237 0 1 1
1565 1 26.089893430138215 1.883503520380812 0.81351218110041 0 0 1
67 1 32.32074085881018 0.9272439492974553 0.43044679071134073 0 0 0
3629 1 38.14290419029318 1.6120961644700325 2.2429669180825407 0 1 1
4120 1 36.36982822487657 0.9300962432907782 0.24762148975717135 0 1 1
659 1 40.749828829290934 0.607537182098862 2.712366161090948 0 0 0
372 1 42.04105372614359 2.9855881913287354 2.903976655973187 0 0 0
83 1 44.80972826074017 2.1115451660551856 3.4627465279122633 0 0 0
2702 1 23.034130000479607 -0.3790257646077039 10.0411674472268 0 1 0
475 1 49.404252096784205 2.0315905493825173 3.1402508246666447 0 0 0
2201 1 0.5071617622144771 2.7669821933422805 1.8378570933535916 0 1 0
1982 1 1.2940509473667086 5.153529686059061 2.7735716291286776 0 0 1
458 1 6.130122542899687 4.814765161142745 1.480316811252178 0 0 0
751 1 8.968010705080664 5.5814738371222425 -0.0764650102008434 1 0 0
3982 1 12.272103071989862 3.3761359601825918 1.5801520265426983 0 1 1
1998 1 14.950180620639017 3.0089719892352544 2.0068899491696355 0 0 1
1905 1 19.874546274751584 4.141195862134678 0.5388908004439712 0 0 1
3960 1 23.24263489966729 6.081418729132849 0.3679114375803948 0 1 1
2674 1 22.41104894858911 3.3288926711641453 -0.11484971452868659 0 1 0
2351 1 32.04573400536377 24.77139872790461 9.580545881043477 0 0 0
34 1 32.329691883664694 5.133433185146697 2.513044017930233 0 0 0
245 1 30.26719766826328 5.8406077587820215 1.0152318666377942 0 0 0
1787 1 35.0156446223405 5.70820867556763 1.7824542739929923 0 0 1
3941 1 37.42019666085638 4.242149198630957 2.6166232199937536 0 1 1
131 1 39.419592819972294 5.188989373525928 0.6662269746766394 0 0 0
589 1 42.00014615880765 3.9647759966184664 0.16214126342461432 0 0 0
578 1 0.7449915675767478 7.289025842354054 0.9448536820322764 0 0 0
667 1 23.57334587922333 24.797970435098257 15.032648650590984 0 0 0
1410 1 10.185856386136381 7.645507030181502 1.3196415953953493 0 0 1
343 1 9.485714248806682 9.677961108750852 3.3346599327098754 0 0 0
33 1 19.435555165375614 12.48105825539664 -0.016936680197183418 0 0 0
1918 1 14.881019080052537 7.912223093197964 0.5054723536541148 0 0 1
705 1 15.82499046056046 6.957076899078062 2.895290161542909 0 0 0
1854 1 40.70300372541388 8.372737314957117 -0.11391737064151991 0 0 1
239 1 20.034789501512922 8.202226733819023 1.654392004904094 0 0 0
1215 1 22.369822710514267 7.032759186841213 2.65971256078845 0 0 1
1693 1 26.83708679375628 7.9084349970506675 2.0309173377430145 0 0 1
1531 1 28.35757719040146 5.525090962015236 3.1492028405734827 0 0 1
2065 1 30.460767490860178 8.511075389266443 0.004202402541448547 0 0 1
9 1 35.473734126199645 8.20609741573111 2.512532790980855 0 0 0
1764 1 44.9737173035539 -0.5722609458304788 3.9473406423828887 0 0 1
511 1 39.76321892782801 7.391892872681949 2.208743979699239 0 0 0
597 1 44.18009774381696 7.241193354786534 1.3481547131695057 0 0 0
575 1 46.82203115104731 5.95450050536059 1.7074659213682746 0 0 0
1720 1 -0.5673884882991346 24.960971136940795 5.380636027256798 1 0 1
3888 1 11.084754415214329 23.59719005277829 -0.20629718866679264 0 0 1
1983 1 1.582565169773293 9.277440739787355 2.7900570859318803 1 0 1
78 1 5.772754445861778 9.89321563367558 0.8876266052644293 0 0 0
424 1 7.962121736079791 11.318310009026272 1.5934678657010943 0 0 0
2197 1 13.369349034911835 12.045302441963461 1.6224436663838993 0 0 0
1856 1 15.581377489516704 10.548511567220919 0.6561766296638827 0 0 1
1406 1 21.275521765682715 10.632813982123142 0.966658829155497 0 0 1
296 1 23.850392147400292 11.62588444693712 1.9019707553454084 0 0 0
109 1 26.757043730181422 12.371503581454943 1.9801923044041896 0 0 0
556 1 29.943404166315226 9.85232618162254 2.532523949124115 0 0 0
1775 1 35.21894585522489 9.870511865784195 0.07689765871869125 0 0 1
389 1 41.49966763531832 11.021471321128702 0.11201976523187296 0 0 0
538 1 43.41703988268958 11.277007073936506 2.0380994655964417 0 0 0
1592 1 45.38319536102095 9.608220367148457 0.5190479581624097 0 0 1
1898 1 47.716093840247055 9.563732987461286 1.911796503361196 0 0 1
2691 1 0.357819302578379 11.617761741040145 1.9292807015224498 1 1 0
447 1 4.911689385905177 14.096626441142675 0.6814849986858071 0 0 0
112 1 8.550593901102632 15.87523578420258 2.1255163854803527 0 0 0
684 1 10.64796381384362 15.660657451969737 0.17710433701405948 0 0 0
1501 1 12.631958173692242 14.770159240800472 1.7372236370983227 0 0 1
183 1 18.154724672563056 13.246952384757916 2.393907448148267 0 0 0
2172 1 41.49298161942164 -0.02833894817885807 13.41047693936361 0 1 0
1533 1 22.6095319974824 13.887688785982508 2.964301900779965 0 0 1
1972 1 29.510948997163318 12.630290864088959 1.4625639377156654 0 0 1
560 1 31.97809426482156 13.199606756776666 -0.12854898229658313 0 0 0
1567 1 34.318003993919405 12.564034789095276 0.8719158849941546 0 0 1
29 1 35.758549344289705 14.761433440750045 -0.04108078092952305 0 0 0
27 1 39.469283106582324 12.298175321253108 1.4653823086978512 0 0 0
47 1 40.86392472964931 14.759421415779297 2.4446955804234456 0 0 0
456 1 43.658983134370885 14.05681465689005 2.6905307175030146 0 0 0
255 1 45.31264144661449 14.313290247761495 0.8526276023630348 0 0 0
405 1 48.09903763205213 13.834255794185312 0.5960027087187041 0 0 0
341 1 48.91593407333592 12.069430114623769 2.4204326128740474 0 0 0
2066 1 0.5646455949550455 16.836456423310455 1.0451987264803122 0 0 1
600 1 46.251446327752376 1.2625774133117522 -0.1507780741437189 0 0 0
2053 1 6.068720768301932 16.51714553846649 1.116391144687495 0 0 1
662 1 24.202084183458776 16.755045483319442 0.21882954936008991 0 0 0
1818 1 13.422576590791577 18.404194112266747 1.3177996300955266 0 0 1
1901 1 17.109485701649515 15.921793666090615 2.271835451705257 0 0 1
1877 1 14.906301761764288 16.099847377897582 0.6915976740814116 0 0 1
674 1 19.50526775936583 17.182493330861515 1.7094085239462986 0 0 0
1609 1 21.876683348836284 15.822400971369074 1.2454676163689342 0 0 1
3706 1 26.086661746551552 16.81786669508358 2.249834019240165 0 0 1
1461 1 43.65686445886561 -0.21261691352966466 -0.5423246590261874 0 0 1
531 1 30.064479871120067 15.090112069537117 2.4384071393905202 0 0 0
104 1 28.777227247743305 17.56083710453267 1.6811956733541993 0 0 0
742 1 32.63818133006356 17.471743325125836 2.5575795919115074 0 0 0
1859 1 33.93693011747162 19.126201939557983 0.906238607214489 0 0 1
201 1 36.025849464016076 17.064780771446397 1.708791102696967 0 0 0
266 1 38.43767058424707 18.23519798376806 1.334600525358003 0 0 0
1733 1 40.89960230440235 16.915240853531447 0.6752882535257887 0 0 1
2348 1 44.63724714901991 17.257576846963776 0.6440005998394214 0 0 0
2241 1 47.26044325006124 17.956471026305003 1.1386992264722942 0 0 0
2046 1 49.18208825282255 16.353831236375044 -0.0268195361320952 0 0 1
127 1 0.8820682638000161 19.642255683586537 1.1180778301224916 0 0 0
1969 1 3.689778951830422 20.392680851004062 1.2225555921266211 0 0 1
105 1 8.715578800179603 20.619203009424854 2.4292313843250595 0 0 0
3767 1 9.003475359318195 19.776018355805114 0.029359777281078747 0 0 1
548 1 14.419054179774 20.739838732947444 0.31447550743719277 0 0 0
3687 1 16.983867094817537 20.793888703203088 1.0465866031819462 0 0 1
1985 1 19.011716135394632 19.23653244470089 -0.21282461470053382 0 0 1
3843 1 21.46454034517723 20.369000633260395 0.9063717627336747 0 0 1
2514 1 9.471179728162738 1.1640053753375033 14.548781779080945 0 1 0
2670 1 25.809468334244638 20.923242822193856 1.6173245931643634 0 0 0
1959 1 29.88068823928802 21.523242054578724 1.1180271378551168 0 0 1
3789 1 27.906229040193523 20.03777215698223 0.1054669777123648 0 0 1
303 1 30.71968701498663 19.290302875075675 2.803614886250392 0 0 0
1863 1 34.853077654779085 21.314172892401583 2.044723347229403 0 0 1
661 1 42.764381962009296 18.80715267568861 1.8357614617459395 0 0 0
2795 1 43.08230408342037 21.573864315592758 1.3249023000819833 0 0 0
154 1 46.856715618919665 20.52568811242526 0.06595167985511396 -1 0 0
1680 1 2.2503654870145424 24.197911845874806 1.6768786554401056 0 0 1
4146 1 6.7191175699017505 22.88851278829268 1.9324931283638764 0 0 1
324 1 31.627979141677738 16.19011529696264 0.06231621263100806 0 0 0
2027 1 12.914691132350322 22.57466407870839 1.5822230657631002 0 0 1
1448 1 17.563510137477085 23.53132512835382 0.533788803195242 0 0 1
1723 1 20.380844129217156 23.175840867476612 0.8026932413694663 0 0 1
4038 1 25.994759840561525 23.6075771050505 1.6054960811743584 0 0 1
3874 1 28.866716906898436 23.8210632669863 1.8660055811712013 0 0 1
1423 1 49.03101482810405 24.05618998862951 1.1907667256881056 0 0 1
2047 1 5.4676371415158345 7.102136027882609 -0.5202780892037973 0 0 1
723 1 49.157071715902774 -0.05845110240719409 9.311877467513884 0 0 0
471 1 39.32614637269164 22.772018790367934 2.3133655529130266 0 0 0
335 1 5.3468742119263 12.327067614617013 15.965507991042728 0 0 0
631 1 45.65626954836797 21.97518377883517 1.9353836726866622 0 0 0
1220 1 50.22138069522818 23.922538667310622 13.578646122015302 -1 0 0
759 1 20.453988383286287 4.019587244062099 15.688630521705651 1 0 0
452 1 6.3370145839457335 2.056210138393205 4.7695205746527805 0 0 0
2095 1 12.437049328515082 0.47724927052059685 5.244313321127782 0 0 1
2337 1 14.750591265946515 1.6174281850691372 5.851965866932333 0 1 0
1607 1 18.73738813524983 1.1848488528143781 3.5235847724208487 0 0 1
198 1 19.624271597504823 0.7680116617089205 5.980020232659427 0 0 0
100 1 22.509323829708848 0.9047265054068254 6.082280863919157 0 0 0
2524 1 23.115698602495474 3.0228408912976157 4.295685734888147 0 1 0
3910 1 29.794417530301445 2.3255714248115984 4.1902988917620485 0 1 1
612 1 32.0746629551967 2.445304738274163 2.76096150418159 0 0 0
2229 1 34.301032602081094 1.9067880133927968 4.659572340210385 0 1 0
3750 1 36.51247813440078 0.2564438703567675 3.895998545171582 0 1 1
1676 1 38.297491184878766 0.6868960607674042 5.9697784207038085 0 0 1
1957 1 49.49120429642596 8.161573732089796 -0.1891794275974128 0 0 1
2640 1 49.886055135148894 2.0097862378041276 5.896584003872887 0 1 0
2235 1 3.7363287621323558 2.7480691363018552 4.791034997926264 1 1 0
92 1 4.109010589609192 4.942832744269034 3.3188615342849612 0 0 0
113 1 7.8567413721013075 2.9831752201607307 2.7608660496282686 0 0 0
1082 1 9.73672312423335 4.5367662806580915 4.377776383174478 0 0 0
492 1 11.192612748051927 2.8561357787142168 6.184416930220767 0 0 0
18 1 11.475012050742206 5.816576927851635 2.9237740426857615 0 0 0
2288 1 16.457685495825412 3.875318196169551 5.969782990043133 0 1 0
2308 1 16.687869476162714 4.55925536480645 3.497741401743461 0 1 0
1667 1 19.239883239188146 3.866571655375444 3.0202508297255135 0 0 1
2077 1 21.592115065933736 5.0100989803935745 4.125575598024415 0 0 1
2523 1 25.406388150374735 3.894290402232267 5.30729081752204 0 1 0
2104 1 27.11367762019786 3.157976518153125 3.0842322331719956 0 0 1
144 1 37.00902653277602 4.828978153248707 5.295005588850713 0 0 0
1914 1 38.81437049605027 3.197256168934478 6.434015249221479 0 0 1
450 1 41.27089043598713 3.5542283324286936 5.490419192948513 0 0 0
226 1 47.0452054588697 3.147827906268782 1.8616977411299747 0 0 0
12 1 45.829135483515074 2.5213767298363106 6.053984914875308 -1 0 0
2398 1 0.35433899563208404 8.692544013682332 5.1711768865090875 1 1 0
1517 1 4.389883860376241 6.729792630405278 5.54288600821112 0 0 1
318 1 8.852926207602593 6.524049727608624 6.158629171235004 0 0 0
656 1 8.076851687405139 9.390802639758684 5.6256270522397065 0 0 0
297 1 13.58397557622839 7.183248609640847 4.309567824342544 0 0 0
5 1 18.083212652194295 8.6925301943281 3.501144571177501 0 0 0
459 1 18.56239284745591 7.976828019164216 6.037816209977858 0 0 0
606 1 20.87491902823585 6.508713103116207 6.320810581093511 0 0 0
350 1 24.689929514395292 8.077048543662444 3.710289925152427 0 0 0
2242 1 25.276884376813484 6.570269014036201 5.85375806260422 0 1 0
271 1 29.430535569083528 7.82878200223923 4.425921015446272 0 0 0
241 1 31.787958748001788 6.623962530108285 4.670689496068186 0 0 0
58 1 33.638576519304806 8.660144531339535 4.587217309251702 0 0 0
425 1 37.41762981025454 7.447017553057211 6.025148113641928 0 0 0
332 1 37.91415393621669 8.760592252750783 3.686508976693214 0 0 0
394 1 42.29722210558876 7.29399940823646 3.5035388393034177 0 0 0
2029 1 41.81217987898721 6.279777941492702 5.909002506297031 0 0 1
118 1 48.034799057216375 6.303712710532757 4.06860427249425 -1 0 0
621 1 -0.40045256983160016 6.001218092507573 4.820037968983786 1 0 0
1413 1 3.993567150779123 10.29432604727825 2.889529462353796 0 0 1
439 1 5.146952525326457 9.559901036476255 5.284107428397987 0 0 0
466 1 11.880830948095742 11.117688750556555 3.9865201347182397 0 0 0
213 1 13.285304689003993 9.537300600550106 5.725964607734021 0 0 0
153 1 16.89279811319828 11.037041168132316 3.180437782550217 0 0 0
382 1 15.157172187603896 11.696781994668468 5.22808886405079 0 0 0
477 1 21.204874898763528 11.331994018761696 5.620742660902938 0 0 0
143 1 24.15196346373175 10.631523129933388 4.562814407555631 0 0 0
1633 1 27.18608364372596 10.461720911279246 3.806486520134067 0 0 1
530 1 28.361683611111697 12.02912347300978 5.792593841440121 0 0 0
348 1 31.824944505587634 10.637363398644062 4.331642315155602 0 0 0
552 1 38.591020957008936 11.4396166112622 3.902195992593473 0 0 0
148 1 40.58226039943489 11.547951608099192 5.613169569279398 0 0 0
1487 1 42.53453199082442 9.940514206052397 4.215703868735546 0 0 1
489 1 45.1011530504221 10.061597044734585 5.555024924500487 0 0 0
56 1 47.36478453152347 8.833877908328603 4.709550123553606 0 0 0
541 1 49.176843573980904 9.66535022547377 6.577617497586246 -1 0 0
16 1 1.4033172340583269 13.563456822392055 3.788562874844753 1 0 0
633 1 1.0854080141693019 13.11116305998615 6.409544816890619 0 0 0
1861 1 4.232932685643259 13.276959638531565 3.222752407086689 0 0 1
634 1 5.5982251756688495 14.135518127254604 5.590551059282332 0 0 0
1699 1 7.624694393790849 13.592628137709683 3.479538629084221 0 0 1
803 1 10.191231277818444 13.26165977829215 4.612673351856037 0 0 0
115 1 12.279580353736005 15.13447086187629 4.484895268705835 0 0 0
215 1 14.672807779374123 14.290765068417551 5.759818923858601 0 0 0
1037 1 18.910495886248196 15.598663241335611 6.139435100222566 0 0 0
1770 1 20.036359163905345 13.508519851224177 4.205531445754099 0 0 1
524 1 25.89985312294003 14.455864147895772 3.592241453095326 0 0 0
433 1 23.721108586171614 14.73011735224233 5.452803090274584 0 0 0
342 1 28.388909148734367 14.338207005693953 4.590998781685842 0 0 0
188 1 32.40544481047307 15.059789298205429 4.181374804317804 0 0 0
545 1 33.72981477993142 12.710115046660487 3.643173532379145 0 0 0
536 1 36.3059322465987 12.342530500551813 4.991602688086219 0 0 0
337 1 37.11438092440993 14.915284246596952 5.3698612955073335 0 0 0
688 1 41.33682461210698 13.991773202194848 6.122920765109741 0 0 0
609 1 44.0543607690031 14.512486711493153 5.258780570977097 0 0 0
463 1 45.854049289288625 12.592536688779685 6.079852426712904 0 0 0
37 1 48.15792702167016 13.359408670577473 4.705081939203135 0 0 0
2135 1 0.589872978587022 16.048479000909552 3.6903794340790306 0 0 0
496 1 2.737653182956577 17.542992158129614 4.692367865528283 0 0 0
79 1 4.7563618897272795 18.279870023535082 2.960186897245306 0 0 0
617 1 8.461882112735246 17.418174795348662 4.479329082619287 0 0 0
1956 1 11.140019209128985 17.564614265587196 5.180522180345339 0 0 1
709 1 16.44290477332986 16.598027146830237 5.418330610316155 0 0 0
779 1 20.344124925072972 17.95333385891073 6.21801238084784 0 0 0
416 1 24.266453020259323 18.620861395079498 3.789019234416222 0 0 0
279 1 28.387591824743943 15.685440777261316 6.877843524600851 0 0 0
1506 1 28.1673288204408 18.5574381596698 5.8692275526448325 0 0 1
42 1 35.29163161744681 16.48410489939806 4.293855420327913 0 0 0
490 1 39.620852909116564 15.78477354508513 4.746315704230667 0 0 0
54 1 44.92483739744874 17.32799859301669 5.500523381281907 0 0 0
601 1 47.45760356479542 17.843459585141353 3.910495835840342 -1 0 0
1571 1 49.2175462678575 15.904091105481662 4.589552498448567 0 0 1
323 1 1.4138081724551976 19.946739879472183 5.253492039274101 0 0 0
17 1 -0.3513930551369124 20.808069961064795 3.3532112593560472 0 0 0
2052 1 3.6838880976697963 21.330823876425136 5.565623893560618 0 0 1
352 1 6.793132100909882 19.383942577334842 4.277094424124278 0 0 0
668 1 11.221942724828322 21.341562153868082 3.4770697320716746 0 0 0
4021 1 12.72604847524054 19.05121329347312 3.6870977693542377 0 0 1
367 1 15.258754999045486 19.243052238956587 5.061275685778056 0 0 0
587 1 17.48390375480254 20.559178373771438 3.7324686416662907 0 0 0
1794 1 19.673888723601898 18.916736510561904 3.799667441212293 0 0 1
2739 1 22.009883415161568 20.04934225696029 3.5638635832229086 0 0 0
1 1 26.19774913891167 20.1957077515832 4.518852844659035 0 0 0
562 1 30.5829631454515 19.836222553108612 5.40366596337728 0 0 0
485 1 35.23994770701893 18.70382934670677 5.616401770513064 0 0 0
2575 1 36.28165273078534 20.811450235774693 4.035465892425988 0 0 0
108 1 40.18218132626643 18.387278768496444 5.0720746333040765 0 0 0
10 1 38.84399660402228 20.10864701649301 3.301697382493612 0 0 0
191 1 43.060576891446914 18.83018334764567 4.4397206505483595 -1 0 0
209 1 44.06757951638359 20.972142678275024 6.009768863469159 -1 0 0
1649 1 48.285955534418804 20.361845406377817 4.333753465885943 0 0 1
602 1 -0.05341930964681474 23.63382101055982 3.043864889248798 0 0 0
14 1 3.099623834823258 24.953359515383077 13.012858019526426 0 0 0
2619 1 4.107122841105819 22.42935069114027 2.8469216301682536 0 0 0
2453 1 11.519842238618889 22.473501635309617 6.209839036181984 0 0 0
3623 1 13.518102039433177 24.00056203567598 5.853768081325904 0 0 1
2370 1 13.895811214751248 24.665449475836137 3.061054834412383 0 0 0
1712 1 17.94815032789655 22.70876815105607 5.538616319066824 0 0 1
710 1 -0.28518061697059854 21.82489720402838 15.335421358941822 1 0 0
2088 1 2.467179428451803 15.22522920391463 -0.25683640976693395 0 0 1
422 1 22.042077027873745 22.41928984685316 5.124836845299104 0 0 0
2695 1 30.22094400056056 22.29404594179981 6.293786562213228 0 0 0
1602 1 33.67029737778948 23.525694405186226 1.117107485385079 0 0 1
3495 1 30.09604248264273 24.097262591059835 4.33414798347567 0 0 1
2324 1 33.81919165940637 24.40593718434561 5.500142914718737 0 0 0
2231 1 37.657860414102075 24.233262332263372 3.6744854466511896 0 0 0
383 1 36.02922516738654 22.92493350995313 5.6096696112721585 0 0 0
675 1 41.9325973329841 23.177887348411193 3.194070798684696 0 0 0
357 1 41.88534085639043 22.670126134576034 5.9817319716062105 0 0 0
500 1 46.18554312121999 21.982571586323978 4.749662953635247 0 0 0
1323 1 0.8542137766337421 0.6782343747564912 7.0984959265717595 0 0 0
947 1 0.6715539210699213 0.45929953395894496 9.97228439019423 0 0 0
2456 1 4.634208989008224 1.4403338533356886 8.94810612028941 1 1 0
2289 1 9.19953251147966 2.144599997924612 8.135417092038397 0 1 0
3704 1 32.292521083275375 24.97220554495159 3.088150806267621 0 0 1
2545 1 13.300418019134375 0.19066387593097067 9.654894574258863 0 1 0
363 1 15.454247187054523 0.11016937889155942 8.257744206409905 0 0 0
497 1 17.29888504369388 1.786332295522771 9.612213332150967 0 0 0
449 1 23.2187386018142 1.616139540302156 8.443154054326945 0 0 0
434 1 25.731536282571007 2.396907120200202 7.544095123990012 0 0 0
305 1 27.44134339609304 0.36285623775555154 7.185048662982448 0 0 0
4121 1 30.04393862192355 1.5732520389414901 6.6822516617805565 0 1 1
2379 1 32.54427159645647 0.37801277508752895 6.44753652232788 0 1 0
510 1 40.55954286506157 13.340012505178294 16.034986362128222 0 0 0
654 1 43.06349046010237 1.947506883004685 6.727709213397453 0 0 0
603 1 42.902090618704364 2.3833421646631385 9.500907994329978 0 0 0
2433 1 47.753015488662356 0.6196435818799548 7.0089489283186275 0 1 0
258 1 26.657559701982898 -0.07882645197118632 15.456360331399353 0 0 0
174 1 1.1517167933237977 4.496699807032607 8.780481334083008 1 0 0
322 1 2.7554869199745258 2.651410790315902 7.416093257991594 1 0 0
967 1 6.563857691825153 2.7602724236650094 7.535583280100633 0 0 0
145 1 6.457673130544763 5.722468918950464 6.962448628241677 0 0 0
1386 1 12.363546927703542 4.587068880824426 7.928046472814746 0 0 0
905 1 14.473677853805752 5.736080601458415 6.65031099396689 0 0 0
82 1 18.440699217740335 2.9226034638471603 7.256793012449541 0 0 0
836 1 19.88876554189538 4.782348303587207 8.156524559554434 0 0 0
2313 1 22.09706954973161 3.8378446190567885 9.620922110982997 0 1 0
126 1 28.36621891842822 5.444770926070057 8.621570470763153 0 0 0
2701 1 30.538152593515594 3.676106087506838 8.334476891384433 0 1 0
220 1 32.447933230332126 5.441461767322606 7.036611666293784 0 0 0
696 1 34.83013870255145 3.9397386839980175 6.539085713811363 0 0 0
2653 1 35.77440578166083 3.3493870180158885 9.249896427087945 0 1 0
2184 1 38.609780626254505 3.546263159990298 9.052037837416925 0 1 0
671 1 46.05641631280713 5.417748703821539 6.167721482844163 0 0 0
540 1 50.339006405846135 4.47123718267516 7.229046328988718 -1 0 0
1851 1 48.010770544997015 5.274766713153685 8.348196705510619 0 0 1
687 1 2.0281607360109626 6.974210193516657 9.347520272329202 0 0 0
476 1 2.4299873017801747 8.325828950496195 6.927609749632643 0 0 0
365 1 10.658618900596112 6.878512575806808 8.246148651972234 0 0 0
211 1 14.48712720858275 8.909759002936152 9.420371530432428 0 0 0
988 1 16.319909848582558 7.323804041192688 7.809236615160689 1 0 0
516 1 23.20867829968515 7.374020732602075 7.691485010728519 0 0 0
592 1 22.485824792267696 9.822378485145917 8.512963710196466 0 0 0
518 1 27.89573212283847 7.415853079181414 6.626917571355574 0 0 0
43 1 33.371289828935446 7.375074802577203 8.935584859912707 0 0 0
94 1 35.03875282054969 8.489585529540314 7.0864385869772635 0 0 0
281 1 39.79078401373347 7.29893842288837 7.48044843071162 0 0 0
958 1 39.30528493908034 5.979955080806894 9.806453434293289 0 0 0
581 1 43.87319136264294 6.5102891695202585 7.584865505866656 0 0 0
25 1 44.52186087369786 9.08936026252013 8.222501257443591 0 0 0
648 1 48.481880621014085 7.917219384787762 8.694383822653663 -1 0 0
2316 1 2.848437508863106 11.029185621342124 7.145790443300312 0 0 0
415 1 5.531031187145389 11.726289647965201 7.1218828031595836 0 0 0
98 1 5.529624089379258 12.364306867944148 9.902950554292218 1 0 0
2025 1 8.307919563936897 11.101027999434192 7.747628574067377 1 0 1
596 1 11.959435752970258 9.274431131442254 8.174441518708228 0 0 0
708 1 16.851452406719535 12.115646293075864 7.5128920192428446 0 0 0
321 1 19.14337471800704 10.39291230288195 7.017814850932315 0 0 0
3302 1 20.030664117087763 9.86582440437537 9.471711126521388 0 1 0
593 1 25.67025880529168 11.673259307676288 7.061082816371643 0 0 0
283 1 27.353977724017327 9.711993606571843 8.261880640968396 0 0 0
1512 1 29.557627381119648 10.798264294079521 9.004790277668679 0 0 1
474 1 31.360169798543083 11.714826988752286 7.001462771628583 0 0 0
438 1 35.897505730210966 11.251450575582815 7.485542819735855 0 0 0
224 1 38.1646812642679 11.216190779997078 9.356935801654023 0 0 0
663 1 40.116934061884606 10.076524160251425 7.93894499576591 0 0 0
291 1 42.47513536466933 10.265968146049506 9.294572957995433 0 0 0
289 1 1.548416543719716 15.234536149762448 7.85676156623099 0 0 0
1398 1 7.962882660407745 15.410053130440595 6.429723301364495 1 0 0
36 1 9.754483861267001 13.549924993397905 7.261239103555853 0 0 0
170 1 12.490591646485633 14.279992654533944 7.885099549138705 0 0 0
625 1 18.60674852514521 14.154219595396045 8.324598897534003 0 0 0
192 1 20.98476586166986 13.830888048627763 9.64864325829713 0 0 0
103 1 22.601110757284694 12.642134897272998 7.620588397653902 0 0 0
225 1 25.837255933308146 14.503918313139176 7.2462334965774335 0 0 0
512 1 28.61132485008245 15.452686784580635 9.856833963326734 0 0 0
678 1 31.24175441497492 14.601316726543484 6.562553296876696 0 0 0
435 1 33.67989990752436 11.912020735515481 8.759497886080462 0 0 0
347 1 34.5137211609989 14.62882465392215 9.05530017720585 0 0 0
488 1 38.8294785384513 13.894497168217207 9.782655995810696 0 0 0
583 1 41.23441146965496 14.344996551935106 8.686039013563018 0 0 0
187 1 45.768867135316626 13.561206794912962 8.692456755057602 0 0 0
20 1 49.70424393433109 12.363026822790738 6.69161789132797 0 0 0
71 1 49.82083470251918 12.85409571312596 9.488616974100237 0 0 0
616 1 3.7222599013524436 16.08436256877904 6.652719076448974 0 0 0
237 1 4.896516647388132 17.91647646249007 8.25316865025151 1 0 0
167 1 7.237527436965046 16.722509390652437 8.934403002144618 0 0 0
331 1 8.82477123005498 18.44936288435656 10.0331998204232 0 0 0
408 1 13.179998500332735 16.85466658967301 8.65005676896139 0 0 0
1330 1 15.884915873052194 17.53833144227413 8.072576384487355 0 0 0
3415 1 17.044377592311193 15.812525222312857 9.853438397073656 0 0 0
570 1 22.965295150534367 17.48579400164143 5.911721527376975 0 0 0
229 1 22.32761388032151 16.374873315591223 9.168576712451147 0 0 0
417 1 32.32314350628948 16.38039571460576 8.185871923302756 0 0 0
101 1 36.947786655107876 15.549814837379412 8.15568052463647 0 0 0
361 1 36.83625304236615 18.24590753643627 7.9688277816575805 0 0 0
481 1 41.03134951024879 16.914762976375776 9.561589346118481 0 0 0
519 1 45.33102567693723 17.92224935913477 8.125440028455044 0 0 0
175 1 50.51034479686917 16.738051842006204 7.1734755187983605 0 0 0
542 1 0.20414839787962258 19.431114557057153 7.433770717726608 0 0 0
1823 1 5.852649495775535 19.893874594932804 6.724333722113389 0 0 1
205 1 7.404362201492244 20.437801710536053 10.683116459979322 0 0 0
235 1 10.846100502230724 18.14658566562079 7.905393792629031 0 0 0
543 1 12.044164343125367 20.604039807063852 8.126363157107434 0 0 0
2816 1 17.058620075835336 19.5918123764344 9.425534389128082 0 1 0
533 1 14.854176060617231 20.659144651397146 7.497473239963075 0 0 0
2194 1 19.59904262320598 20.00633239870683 7.886408171173672 0 0 0
577 1 24.712873108749715 21.767174969312997 5.9987665578333615 0 0 0
1881 1 24.255612902719665 19.48449276677694 7.570576813110673 0 0 1
217 1 26.86922579885921 18.806455560162668 8.37284162824751 0 0 0
645 1 32.74983019418603 18.682381114092664 6.521664338605274 0 0 0
294 1 32.85332595545506 20.38812073954003 8.86126251337745 0 0 0
91 1 39.66633286390008 18.646976849739495 7.570777659838754 0 0 0
284 1 47.03705109561231 20.105531637912506 8.873367073459727 -1 0 0
673 1 48.923534228564506 20.813773358494274 7.156069244462012 0 0 0
672 1 2.914786024107675 23.13064806547536 7.674984411394977 0 0 0
2632 1 5.105105401375741 23.66393895644787 9.177177611978717 0 0 0
238 1 6.913907858647775 21.978460454365226 8.394237307240338 0 0 0
1862 1 12.248034818659985 8.419251799912141 -0.28225092294588106 0 0 1
2559 1 9.20301215262686 23.469728618021655 7.150834062930101 0 0 0
2114 1 15.766578253957285 23.1709611640778 7.533945430641214 0 0 0
1886 1 16.064439562197432 23.833750934550284 10.056723815901092 0 0 1
2817 1 20.235741784331935 22.51300408760759 7.019507144761111 0 0 0
2633 1 21.31280579466893 24.865790525320847 8.413275236395007 0 0 0
2446 1 25.731784626527723 23.80082395011244 7.552172747942009 0 0 0
2355 1 23.97232120312169 24.653464586824263 9.766508277145723 0 0 0
165 1 28.210404238372558 22.5645380047009 7.982893340532364 0 0 0
26 1 32.68972794577216 22.940648310601567 7.59685077455824 0 0 0
182 1 37.60050691421897 22.812338893276685 7.947513825729759 0 0 0
636 1 39.94656855914049 21.36775176201949 7.770928146541575 0 0 0
2305 1 44.83690409623317 21.73843835555703 8.601243420782925 0 0 0
2747 1 49.76708672793106 23.47829972397697 7.8398307023272125 -1 0 0
30 1 47.74914274192399 24.70025329318964 9.33994402892548 0 0 0
22 1 5.784571619426603 0.6888372825969935 13.194100818144994 0 0 0
527 1 11.22671436257543 2.5946945429889285 12.676728252813614 0 0 0
133 1 19.40204756086824 0.7759854048196468 11.206375648592164 0 0 0
227 1 45.250558688061275 5.472144123760556 16.142997205907914 -1 0 0
2210 1 22.944759556114416 0.6046987147571536 12.53590142443145 0 1 0
627 1 21.177688531815708 2.5723629752289376 11.84135861404787 0 0 0
2274 1 26.94919729154521 1.586544702086202 11.278187864958884 0 1 0
503 1 37.96771401614971 23.61148891999654 0.0007446589893737032 0 0 0
96 1 31.391696649551616 0.4950670152634369 10.89307876252662 0 0 0
399 1 45.75705455202345 23.77113171382931 12.991271746977688 0 0 0
371 1 35.752776492183486 0.6259906159987845 9.87589915939333 0 0 0
3381 1 36.13007134082848 0.3356648342346412 12.708807507008734 0 1 0
2365 1 40.27558944245537 1.9590434840367754 10.266267186619402 0 1 0
121 1 39.942446940336794 2.4810204585686684 13.030573080339297 0 0 0
123 1 44.921195338709126 0.8573373431037234 10.735308337640165 0 0 0
875 1 48.03042196327739 1.4162426207531196 11.349692689320564 0 0 0
1314 1 0.6900540827431838 2.9369792251079714 11.119991865399683 1 0 0
2303 1 2.5383569071278083 3.2811895612562507 13.252683398054225 0 1 0
509 1 4.561915254210812 2.4266577100311117 11.627601222716905 0 0 0
32 1 6.743093966476635 4.3274904183177245 11.385997106548999 0 0 0
263 1 9.255038788172689 3.238127742710334 10.498792813796111 0 0 0
1376 1 13.05501320799844 2.961903632326132 10.310499767540259 0 0 0
234 1 12.751430869331836 5.634889979213172 11.717278291847355 0 0 0
493 1 15.845837404746696 3.556843647121145 11.018375745115904 0 0 0
286 1 17.021878857925408 5.221928569408423 13.04939617375733 0 0 0
470 1 24.069068048516847 5.605585664333655 9.600822105913421 0 0 0