
# Create simulation box of size 50 x 50 x 50 Angstrom
#
lattice	            sc 1
Lattice spacing in x,y,z = 1.0000000 1.0000000 1.0000000
region 	            all block 0 50 0 50 0 50 units box
create_box          1 all
Created orthogonal box = (0.0000000 0.0000000 0.0000000) to (50.000000 50.000000 50.000000)
  1 by 2 by 3 MPI processor grid

# fill box with 4175 randomly distributed atoms
#
create_atoms        1 random 4175 63782 all
Created 4175 atoms
  create_atoms CPU = 0.000 seconds
mass                1 18.015

# Define potential
#
pair_style          sw
pair_coeff          * * ML_mW.sw mW
Reading sw potential file ML_mW.sw with DATE: 2019-02-27

# Run minimization
#
minimize            1.0e-8 1.0e-8 10000 1000
WARNING: Using 'neigh_modify every 1 delay 0 check yes' setting during minimization (../min.cpp:187)
Neighbor list info ...
  update every 1 steps, delay 0 steps, check yes
  max neighbors/atom: 2000, page size: 100000
  master list distance cutoff = 6.0032907
  ghost atom cutoff = 6.0032907
  binsize = 3.0016454, bins = 17 17 17
  1 neighbor lists, perpetual/occasional/extra = 1 0 0
  (1) pair sw, perpetual
      attributes: full, newton on
      pair build: full/bin/atomonly
      stencil: full/bin/3d
      bin: standard
Per MPI rank memory allocation (min/avg/max) = 4.255 | 4.258 | 4.261 Mbytes
Step Temp E_pair E_mol TotEng Press 
       0            0    7792709.3            0    7792709.3    5898794.3 
     630            0   -45180.336            0   -45180.336   -154.07449 
Loop time of 1.12743 on 6 procs for 630 steps with 4175 atoms

98.6% CPU use with 6 MPI tasks x no OpenMP threads

Minimization stats:
  Stopping criterion = max force evaluations
  Energy initial, next-to-last, final = 
      7792709.32924461  -45180.0188663597   -45180.336116598
  Force two-norm initial, final = 2.0191930e+08 4.9721331
  Force max component initial, final = 1.0948746e+08 0.73126211
  Final line search alpha, max atom move = 0.053306038 0.038980685
  Iterations, force evaluations = 630 1000

MPI task timing breakdown:
Section |  min time  |  avg time  |  max time  |%varavg| %total
---------------------------------------------------------------
Pair    | 0.87636    | 0.9777     | 1.0395     |   5.8 | 86.72
Neigh   | 0.023813   | 0.024545   | 0.025138   |   0.3 |  2.18
Comm    | 0.043696   | 0.10547    | 0.20787    |  17.8 |  9.35
Output  | 0          | 0          | 0          |   0.0 |  0.00
Modify  | 0          | 0          | 0          |   0.0 |  0.00
Other   |            | 0.01972    |            |       |  1.75

Nlocal:        695.833 ave         704 max         685 min
Histogram: 1 1 0 0 1 0 0 1 0 2
Nghost:        1494.17 ave        1515 max        1468 min
Histogram: 1 1 0 0 0 0 1 1 1 1
Neighs:        0.00000 ave           0 max           0 min
Histogram: 6 0 0 0 0 0 0 0 0 0
FullNghs:      19997.0 ave       20462 max       19320 min
Histogram: 1 1 0 0 0 0 0 2 0 2

Total # of neighbors = 119982
Ave neighs/atom = 28.738204
Neighbor list builds = 26
Dangerous builds = 0

# Add velocity/set timestep
#
velocity            all create ${TEMP} 120598 rot yes dist gaussian
velocity            all create 205 120598 rot yes dist gaussian
timestep            5.0

# Define output
#
compute	            1 all msd
thermo	            100
thermo_style        custom step temp press vol etotal ke pe c_1[4] density

# Neighbor lists
#
neigh_modify        delay 0 every 1 check yes

# Set fixes
#
fix                 1 all momentum 10 linear 1 1 1 rescale
fix                 2 all nve
fix                 3 all temp/csvr ${TEMP} ${TEMP} 500.0 928347
fix                 3 all temp/csvr 205 ${TEMP} 500.0 928347
fix                 3 all temp/csvr 205 205 500.0 928347
fix                 4 all press/berendsen iso ${PRES} ${PRES} 1000.0 modulus 20000
fix                 4 all press/berendsen iso 450 ${PRES} 1000.0 modulus 20000
fix                 4 all press/berendsen iso 450 450 1000.0 modulus 20000

# Run 0.5 ns equilibration
#
dump                1 all custom 1000 eq.${NAME}.dump id type x y z vx vy vz
dump                1 all custom 1000 eq.liquid_density_MLmW.dump id type x y z vx vy vz
run                 100000
Per MPI rank memory allocation (min/avg/max) = 3.506 | 3.508 | 3.511 Mbytes
Step Temp Press Volume TotEng KinEng PotEng c_1[4] Density 
     630          205    778.67162       125000   -42629.746    2550.5897   -45180.336 2.7295415e-33   0.99914793 
     700    131.32375     350.2901     125056.3     -41848.9    1633.9172   -43482.817   0.23529034   0.99869811 
     800    163.73931    262.83997    124901.68   -41148.363    2037.2284   -43185.591   0.55572366   0.99993447 
     900    183.47021    531.08186    124720.98   -40769.938    2282.7182   -43052.656   0.94500968    1.0013832 
    1000    189.03886    470.02297    124686.86    -40528.45    2352.0028   -42880.452    1.3265661    1.0016572 
    1100    199.93954    413.80341    124816.96   -40367.175     2487.628   -42854.803    1.6229977    1.0006131 
    1200    197.10707    719.52504    124718.29   -40411.651    2452.3866   -42864.037    1.9862025    1.0014048 
    1300    200.24524     201.8417    124730.64   -40393.507    2491.4315   -42884.938    2.3044542    1.0013056 
    1400    197.24966    548.69823     124690.7    -40408.14    2454.1608   -42862.301    2.5867204    1.0016263 
    1500    202.57573     405.0607    124894.31   -40370.626    2520.4272   -42891.053    2.8757683   0.99999342 
    1600    209.03927    421.97971    124721.24   -40303.782     2600.846   -42904.628    3.1454439    1.0013811 
    1700    210.26174    378.10498     124695.1   -40341.119    2616.0557   -42957.175    3.4789591     1.001591 
    1800    204.15542    457.67946    125033.24   -40430.721    2540.0815   -42970.802    3.7888694   0.99888232 
    1900    204.59871    563.02143    124996.14   -40427.476    2545.5969   -42973.073    4.1573959   0.99917878 
    2000    210.10683    486.72217     125151.8   -40408.611    2614.1284   -43022.739    4.3108708   0.99793605 
    2100    206.46743    423.37321    125183.65   -40395.409    2568.8473   -42964.256    4.5914879   0.99768214 
    2200    207.01809    542.26234    125314.95   -40434.438    2575.6986   -43010.136    4.8893172   0.99663682 
    2300    207.61758    644.47285    125444.26   -40442.466    2583.1574   -43025.624    5.1524572   0.99560944 
    2400    204.88593     376.2923    125471.75   -40456.361    2549.1705   -43005.531    5.3850783   0.99539128 
    2500    211.03288    501.98427    125466.75   -40434.697    2625.6502   -43060.347     5.617533   0.99543099 
    2600    212.74239    372.01195    125474.79   -40411.478    2646.9198   -43058.398    5.8950438   0.99536721 
    2700    209.75075    433.65368    125320.25   -40455.337    2609.6982   -43065.035    6.2728812   0.99659469 
    2800    208.45408    560.05625    125309.52   -40453.693     2593.565   -43047.258    6.4414156   0.99668001 
    2900    206.94874    509.61309    125269.89   -40531.595    2574.8357    -43106.43    6.5407037    0.9969953 
    3000    206.75028    405.14205    125383.47   -40582.581    2572.3666   -43154.947    6.7514222   0.99609216 
    3100    207.18203    416.94963    125304.58   -40554.222    2577.7383    -43131.96    6.8488023   0.99671928 
    3200    205.28705    476.36466    125384.74   -40595.883    2554.1612   -43150.045     7.077995   0.99608209 
    3300    204.21581     329.9927    125516.93   -40586.566     2540.833   -43127.399    7.3694233   0.99503307 
    3400    205.65447    472.69872    125575.98   -40610.484    2558.7326   -43169.217    7.5867567   0.99456514 
    3500    208.52988    553.44164     125987.9    -40648.88    2594.5081   -43243.388    7.8699894   0.99131335 
    3600    205.63976    535.49723    126187.45   -40696.285    2558.5495   -43254.834    8.0250101   0.98974577 
    3700     199.1705    481.95238    126293.74   -40766.956    2478.0597   -43245.015    8.1364854   0.98891275 
    3800    205.35379    349.58186    126232.69   -40722.023    2554.9916   -43277.014    8.3636802   0.98939105 
    3900    203.82913    479.14635    126090.29   -40754.247    2536.0219   -43290.269    8.6102536    0.9905084 
    4000    204.36559    341.76627    125976.88   -40760.353    2542.6964   -43303.049    8.8434459   0.99140013 
    4100    205.90141    580.03366    126030.69   -40748.941     2561.805   -43310.746     8.956756   0.99097682 
    4200    204.01407    576.81484    126189.97    -40758.09    2538.3229   -43296.413    9.1397149     0.989726 
    4300    209.10708    293.89394    126218.48   -40772.736    2601.6896   -43374.426    9.3408624   0.98950244 
    4400    206.74636    325.77681    126226.84   -40772.791    2572.3178   -43345.109    9.5041917   0.98943687 
    4500    199.74071     399.3925     126396.4   -40780.518    2485.1541   -43265.672    9.5498901   0.98810957 
    4600    205.95137    128.41168    126478.28   -40824.159    2562.4266   -43386.585    9.6203707   0.98746986 
    4700    205.04532    616.63564     126480.1    -40758.78    2551.1537   -43309.934    9.9253094   0.98745563 
    4800    206.31997    315.63548    126386.81   -40827.922    2567.0127   -43394.935    9.9859988   0.98818453 
    4900    208.42896     449.8004    126374.48   -40714.458    2593.2525    -43307.71    10.284682   0.98828094 
    5000    206.64079    403.16095       126617   -40662.581    2571.0043   -43233.585    10.432605   0.98638801 
    5100    205.95061    557.01094    126521.77   -40723.633    2562.4171   -43286.051    10.580327   0.98713046 
    5200    205.53137     480.1694    126675.32   -40782.139     2557.201    -43339.34    10.702645    0.9859339 
    5300    203.80481    580.99571    126640.39   -40756.139    2535.7193   -43291.858    10.904615    0.9862058 
    5400    205.99362    525.49768    126557.54   -40788.277    2562.9522   -43351.229    11.070278   0.98685143 
    5500    205.91731    452.58991    126412.28    -40797.49    2562.0028   -43359.493    11.369887   0.98798541 
    5600    206.66882      382.184     126334.1   -40810.415     2571.353   -43381.768    11.587501   0.98859685 
    5700    204.79716    530.80644    126431.97   -40815.392     2548.066   -43363.458    11.839538   0.98783157 
    5800     202.4893    413.17142    126396.39   -40844.896    2519.3519   -43364.248     12.04242   0.98810963 
    5900    204.98034    489.32234    126422.47   -40859.956    2550.3452   -43410.301    12.178103   0.98790582 
    6000    202.08966    473.73544    126352.29   -40864.593    2514.3795   -43378.973    12.320547   0.98845453 
    6100    201.64772    396.36469    126276.81   -40799.424     2508.881   -43308.305    12.404029   0.98904537 
    6200    204.58444    358.71699     126290.5   -40876.326    2545.4193   -43421.746    12.554683   0.98893813 
    6300    202.73494    380.21348    126244.05   -40841.966     2522.408   -43364.374    12.640967   0.98930202 
    6400    204.77068    460.62138     126359.4   -40818.431    2547.7365   -43366.168     12.80831   0.98839886 
    6500     205.1903    457.32456    126478.88   -40779.987    2552.9575   -43332.944    12.979081   0.98746517 
    6600     204.1389     580.8014    126614.66   -40858.532    2539.8761   -43398.408    13.238916   0.98640625 
    6700    201.86055    533.37823    126734.48   -40917.166     2511.529   -43428.695     13.37124   0.98547362 
    6800    202.10006    385.71957    126758.48   -40845.573    2514.5089   -43360.082     13.64002   0.98528703 
    6900    206.61391    492.11265    126656.02    -40798.14    2570.6699    -43368.81    13.851269   0.98608414 
    7000    209.38186    395.57249    126690.23    -40797.22    2605.1083   -43402.329     14.01399   0.98581782 
    7100    205.80079    430.05342    126673.07   -40822.145     2560.553   -43382.698    14.202859   0.98595139 
    7200     206.5219    464.92533     126677.4   -40885.602    2569.5251   -43455.127    14.359203   0.98591771 
    7300    202.52109     420.3699    126605.62   -40935.901    2519.7474   -43455.649    14.546684   0.98647671 
    7400    206.02515    473.24067    126581.94   -40964.056    2563.3446     -43527.4     14.75174   0.98666121 
    7500    205.22007    546.62179    126632.49   -40928.052    2553.3278    -43481.38    14.879369   0.98626735 
    7600    200.64189     580.0044    126775.93   -40998.246    2496.3665   -43494.612    14.970389   0.98515144 
    7700    205.75714     460.4436    126881.04   -40907.826      2560.01   -43467.836    14.974248   0.98433535 
    7800    208.83287    360.82148    126851.64   -40904.643     2598.278   -43502.921    15.233856   0.98456351 
    7900    203.32168    534.18012    127095.62   -40967.351    2529.7083   -43497.059    15.261964   0.98267348 
    8000    206.87037    533.53495    127066.65   -40948.386    2573.8607   -43522.247    15.383955   0.98289752 
    8100    199.99187    526.46069    127091.98    -41018.86     2488.279   -43507.139    15.497294    0.9827016 
    8200    200.74846    404.00262    127027.16   -41040.533    2497.6925   -43538.226    15.640836   0.98320308 
    8300    201.91153    565.77517    127395.82   -41038.368    2512.1634   -43550.531    15.797532   0.98035786 
    8400    204.85705    595.75698    127811.19   -41013.358    2548.8111   -43562.169    15.931947   0.97717179 
    8500    205.89994    278.70283    127841.22   -40958.416    2561.7867   -43520.203    16.009281   0.97694225 
    8600    205.47415    502.60739    127967.43   -40993.172    2556.4891   -43549.662    16.079429   0.97597877 
    8700    206.22618    679.85064    128035.31   -40985.524    2565.8457   -43551.369    16.144248   0.97546132 
    8800    206.21084    433.89845    128043.82   -41023.088    2565.6549   -43588.743    16.335087    0.9753965 
    8900    201.12561    461.05848    128067.55   -41107.994     2502.385   -43610.379    16.300813   0.97521577 
    9000    205.37409    393.02378     128036.9   -41072.842    2555.2441   -43628.086    16.436814   0.97544918 
    9100    200.29724    550.74248    128124.85   -41144.149    2492.0785   -43636.228    16.504227   0.97477959 
    9200    205.06162    405.33352    128170.98   -41064.278    2551.3564   -43615.635    16.767832   0.97442876 
    9300    203.75449    374.14801    128087.31   -41126.331    2535.0933   -43661.424     16.78976   0.97506527 
    9400    204.59822    404.85555    128131.81    -41087.35    2545.5908   -43632.941    16.693597   0.97472669 
    9500    203.53049    390.29226    128174.23   -41107.493    2532.3063   -43639.799    16.873291    0.9744041 
    9600    206.10599    513.21527    128169.48   -41092.285    2564.3504   -43656.635    16.968464   0.97444021 
    9700    208.10937    602.35143     128124.5   -41034.613    2589.2762   -43623.889    17.147797    0.9747823 
    9800    206.21321    491.29959    127967.08   -41096.937    2565.6843   -43662.622    17.218137   0.97598141 
    9900    203.43627    339.15414    128018.58   -41176.858     2531.134   -43707.992    17.223541    0.9755888 
   10000    200.23264    396.08675    127929.32   -41167.672    2491.2748   -43658.947    17.313716   0.97626948 
   10100    204.65739    412.11759    127959.51   -41138.236     2546.327   -43684.563    17.459703   0.97603912 
   10200    199.69102    621.99078    128268.35   -41190.887     2484.536   -43675.423    17.643726   0.97368908 
   10300    203.57259    329.91287    128229.96    -41193.68    2532.8301    -43726.51    17.540876   0.97398061 
   10400    203.88403    487.09313    128343.98   -41142.048    2536.7049   -43678.753    17.608327   0.97311529 
   10500    202.95579    463.76978    128364.65     -41118.1    2525.1558   -43643.255     17.83437   0.97295861 
   10600    207.15116    393.15404    128398.45   -41053.576    2577.3543    -43630.93    17.851469   0.97270247 
   10700    209.69516    405.81253    128167.62   -41047.536    2609.0065   -43656.543    17.979691   0.97445429 
   10800    208.22223    423.22353     128195.6    -41036.82    2590.6805     -43627.5    18.143106   0.97424167 
   10900     208.0793    544.95288    128235.97   -41065.314    2588.9021   -43654.216    18.271497   0.97393495 
   11000    207.94439    573.46901    128300.43   -41071.782    2587.2235   -43659.006    18.278059   0.97344562 
   11100    205.37793     436.0401    128374.76   -41118.816    2555.2919   -43674.108     18.24497   0.97288195 
   11200    207.03654    500.46391    128496.58   -41112.899    2575.9282   -43688.827    18.364723   0.97195966 
   11300    205.94033    332.92776    128533.67    -41115.23    2562.2892   -43677.519    18.373019   0.97167919 
   11400    206.15011    372.94065    128536.62   -41126.883    2564.8994   -43691.782    18.607355   0.97165692 
   11500    204.46536    529.60418    128602.65   -41155.447    2543.9378   -43699.385    18.727933   0.97115801 
   11600     203.1325    513.31495    128575.09   -41165.866    2527.3545    -43693.22    18.876784   0.97136616 
   11700    207.92185    482.25049    128584.74   -41069.301    2586.9431   -43656.244    18.951845   0.97129327 
   11800    205.17891    414.60157    128480.24   -41128.964    2552.8157    -43681.78    19.021098   0.97208326 
   11900    203.90739    462.83633    128317.74   -41129.049    2536.9956   -43666.044    18.986469   0.97331427 
   12000    205.78991    483.61209    128418.51   -41117.981    2560.4177   -43678.399    19.182238   0.97255056 
   12100     202.2595    437.60658    128356.29   -41073.748    2516.4927    -43590.24    19.257195   0.97302195 
   12200    207.03318    544.71192    128438.78   -41070.993    2575.8864   -43646.879    19.397295   0.97239703 
   12300    205.15445    383.49453    128470.49   -41080.884    2552.5113   -43633.395    19.268482   0.97215706 
   12400    204.28472    405.96161    128316.17   -41058.324    2541.6903   -43600.014    19.600001   0.97332617 
   12500    200.16075    370.72921    128397.17   -41135.526    2490.3802   -43625.906    19.804341   0.97271217 
   12600    204.88939    282.73426    128308.78   -41057.057    2549.2136    -43606.27    19.851728   0.97338227 
   12700    206.25662    431.11044    128151.12   -41034.772    2566.2245   -43600.997    19.922251   0.97457979 
   12800    209.73441     442.8235    128436.45   -41011.011    2609.4948   -43620.506    19.992879   0.97241471 
   12900    203.93439    403.18661    128267.74   -41068.906    2537.3315   -43606.238    20.025087   0.97369367 
   13000    207.49248    357.72105    128225.61   -41026.166    2581.6009   -43607.767    20.067702   0.97401366 
   13100    205.87862    606.64783    128023.43    -41026.76    2561.5214   -43588.282    20.225223   0.97555183 
   13200    213.84004    221.53968    128142.53    -40968.63    2660.5767   -43629.207    20.482685   0.97464514 
   13300     206.7971    471.66878    128180.34   -41015.417    2572.9491   -43588.366     20.61758    0.9743576 
   13400    206.70301    470.66013    128295.34   -41106.984    2571.7784   -43678.762    20.716291   0.97348427 
   13500    202.81974     452.6671    128423.37   -41151.779    2523.4632   -43675.243    20.848899   0.97251374 
   13600    204.84649    437.79766    128285.36   -41179.394    2548.6797   -43728.074    20.839718   0.97355994 
   13700    204.07698    571.38147    128351.12   -41186.264    2539.1056    -43725.37     20.84817   0.97306116 
   13800    209.03162    540.96043    128360.58   -41117.019    2600.7508    -43717.77     21.09429   0.97298943 
   13900    207.20468    563.58512    128496.59   -41153.972    2578.0201   -43731.993    21.157661   0.97195959 
   14000    205.60972    437.93444    128761.97   -41140.193    2558.1759   -43698.368     21.23068   0.96995636 
   14100     205.9187    418.76358    128585.92   -41150.503    2562.0201   -43712.523    21.132524   0.97128436 
   14200    201.78985    527.29069    128558.96   -41186.155    2510.6494   -43696.804    21.230189   0.97148802 
   14300    205.83925    519.56279    128527.27   -41232.069    2561.0316   -43793.101    21.333064    0.9717276 
   14400    205.24325    605.90906    128685.74   -41195.799    2553.6163   -43749.415    21.306625   0.97053091 
   14500    207.44419    516.44026     128868.8   -41155.483    2581.0001   -43736.483    21.504939    0.9691523 
   14600    207.28546    571.23523    128948.24   -41177.245    2579.0251    -43756.27    21.651537   0.96855523 
   14700    206.59045    591.38474    128915.05   -41227.611    2570.3779   -43797.989    21.666031   0.96880461 
   14800    199.37625    412.84645    128871.36   -41268.198    2480.6196   -43748.818    21.712254   0.96913305 
   14900    195.61347     364.6879    128896.07   -41320.811    2433.8035   -43754.614    21.879387   0.96894727 
   15000    199.59824    430.83301    128737.96   -41322.225    2483.3815   -43805.606    21.755875   0.97013727 
   15100    199.16653    464.24876    128676.87   -41336.075    2478.0102   -43814.086    21.971873   0.97059784 
   15200    204.81297    387.90182     128717.9   -41269.265    2548.2627   -43817.527    22.049923   0.97028847 
   15300    204.00178    478.29863    128701.03   -41278.221      2538.17   -43816.391    22.221946    0.9704156 
   15400    199.92432    401.85082    128722.03   -41269.395    2487.4387   -43756.833    22.326321   0.97025733 
   15500    205.60393    378.16611    128828.02   -41251.374    2558.1037   -43809.478    22.407805   0.96945906 
   15600    206.36204    473.09725    128766.91   -41188.781    2567.5361   -43756.317     22.40533   0.96991915 
   15700    200.88861    513.96244    128897.42   -41263.822    2499.4362   -43763.259    22.528483   0.96893705 
   15800    203.62698    394.43789    128936.48   -41252.268    2533.5068   -43785.775    22.586075   0.96864353 
   15900    201.66415    388.36569    128934.26   -41283.565    2509.0854   -43792.651    22.701618   0.96866023 
   16000    209.17516    439.70362    128891.65   -41221.519    2602.5366   -43824.056    22.787123   0.96898044 
   16100    206.00736    447.90711    128894.83   -41184.103    2563.1232   -43747.226    22.782197   0.96895659 
   16200    202.85569    477.17735    128965.09   -41241.821    2523.9105   -43765.732    22.836579   0.96842871 
   16300    201.11443    383.53848    129084.65   -41256.792    2502.2459   -43759.038    22.976713   0.96753171 
   16400    207.64781    448.61223    129011.02   -41183.544    2583.5335   -43767.078    22.947597   0.96808393 
   16500    207.11821    392.64611    128983.69   -41191.815    2576.9443    -43768.76    22.991455   0.96828901 
   16600    205.72725    315.93843    128939.48   -41172.757    2559.6381   -43732.395    23.032964   0.96862105 
   16700     204.2584    432.38436    128787.75   -41193.617    2541.3628   -43734.979    23.011133   0.96976217 
   16800    207.01603    336.35704    128488.77   -41188.416     2575.673   -43764.089    23.073702    0.9720187 
   16900    205.90906     453.7939    128650.74   -41153.918    2561.9001   -43715.818    23.211779   0.97079496 
   17000    202.89507     384.2534    128641.21   -41166.916    2524.4004   -43691.317    23.188763   0.97086692 
   17100    207.56933    544.87723    128495.02   -41087.506    2582.5571   -43670.063    23.217067   0.97197144 
   17200    209.21435    265.85893    128485.01   -41109.715    2603.0243   -43712.739    23.438876   0.97204721 
   17300    207.48314    502.85735    128443.36   -41167.916    2581.4847   -43749.401    23.571904   0.97236237 
   17400    205.62219    519.90308    128465.93   -41199.052     2558.331   -43757.383    23.680696   0.97219154 
   17500    206.83802    330.73864    128428.31   -41174.102    2573.4581   -43747.561    23.813894   0.97247633 
   17600    207.31355    445.96539    128404.12   -41151.463    2579.3747   -43730.838    23.805926   0.97265957 
   17700    205.79807     286.2886    128679.66   -41173.319    2560.5193   -43733.838    23.842728   0.97057675 
   17800    206.68824    494.49939    128782.38   -41185.144    2571.5946   -43756.738    23.875576   0.96980265 
   17900    205.88175    479.60501    128895.82   -41157.708    2561.5604   -43719.268    23.940582   0.96894912 
   18000    206.18282    557.84915    129167.33   -41110.449    2565.3063   -43675.756    24.256062   0.96691241 
   18100    204.99844    625.68332    129188.14   -41208.105    2550.5704   -43758.676    24.259108    0.9667566 
   18200    203.80008    367.15983    129132.73    -41204.49    2535.6604    -43740.15    24.218929   0.96717145 
   18300    206.17837    377.63059    129127.63   -41114.092    2565.2509   -43679.343    24.430928   0.96720967 
   18400    205.60121    322.19254    129039.11   -41180.487    2558.0699   -43738.557     24.42801   0.96787313 
   18500    206.89121    360.20925    129032.24   -41150.568      2574.12   -43724.688    24.491529   0.96792469 
   18600    204.95559    380.52334    128929.41   -41195.645    2550.0372   -43745.682    24.471437    0.9686967 
   18700    205.05824    346.04979    128826.94   -41165.073    2551.3144   -43716.387    24.419828   0.96946718 
   18800     206.4848    437.13436    128923.98   -41140.941    2569.0635   -43710.005    24.457422   0.96873744 
   18900    206.53257    291.55656    128807.66   -41174.649    2569.6578   -43744.307    24.461716    0.9696123 
   19000    208.56268    454.67394     128903.1   -41146.342    2594.9163   -43741.259    24.746271   0.96889443 
   19100    201.81782    392.16754    128728.19   -41201.398    2510.9974   -43712.395     24.79544   0.97021086 
   19200    203.69259    573.48402    128728.67   -41168.499    2534.3231   -43702.822    24.941005   0.97020729 
   19300    208.60594    445.44998    128776.47   -41107.849    2595.4545   -43703.303    25.074858   0.96984717 
   19400    210.45937    412.99587    128941.02   -41119.247    2618.5147   -43737.762    25.125264   0.96860946 
   19500    207.26985    392.36683    128754.61   -41109.079     2578.831    -43687.91    25.154351    0.9700118 
   19600    206.82252    441.38119    128850.91   -41144.693    2573.2653   -43717.958    25.263557   0.96928684 
   19700    209.28465    254.13254    128843.52   -41126.327    2603.8989   -43730.226    25.293499   0.96934245 
   19800    208.08211     446.6264    128868.99   -41165.058    2588.9371   -43753.995    25.369239   0.96915083 
   19900    207.45035     372.7274    128674.57   -41172.542    2581.0767   -43753.619     25.53879   0.97061516 
   20000    203.20579    311.84506    128744.57    -41216.21    2528.2664   -43744.477    25.595115   0.97008742 
   20100    204.69651    492.85296    128747.02   -41176.217    2546.8138   -43723.031    25.491189   0.97006899 
   20200    206.24665    559.98486     128963.1   -41219.986    2566.1004   -43786.087    25.476366    0.9684436 
   20300    200.28093    399.39415    129032.34   -41259.543    2491.8755   -43751.419    25.603735   0.96792396 
   20400    203.74521    332.78861    128827.53   -41255.265    2534.9777   -43790.242     25.67067   0.96946272 
   20500    206.30148    468.39111    129092.83   -41230.716    2566.7827   -43797.499    25.843268    0.9674704 
   20600    206.13777    408.15088    129215.47   -41269.698    2564.7458   -43834.443     25.82834   0.96655217 
   20700    204.35602    390.04656    129203.85   -41218.793    2542.5774    -43761.37    26.053068   0.96663906 
   20800    208.58706    403.96427    129140.92   -41230.644    2595.2196   -43825.863    26.123701   0.96711012 
   20900    200.22224    401.18388    129196.57   -41276.555    2491.1453   -43767.701    26.259395   0.96669358 
   21000    201.70789    478.87313    129228.81   -41355.728    2509.6296   -43865.358    26.243815   0.96645241 
   21100    199.27993    339.73851     129166.9   -41369.759    2479.4212    -43849.18    26.231717   0.96691562 
   21200    199.42285    548.43859    129090.04   -41343.892    2481.1994   -43825.091    26.352574   0.96749131 
   21300     202.3679    206.59457    129240.11   -41357.369    2517.8414    -43875.21    26.546995   0.96636786 
   21400    206.40834    478.57152    129214.49   -41328.548    2568.1122    -43896.66    26.743785   0.96655947 
   21500     205.3271    654.95149    129323.89   -41327.805    2554.6594   -43882.464    26.694134   0.96574181 
   21600    206.83099    401.42226    129304.26   -41301.394    2573.3707   -43874.765    26.918893   0.96588844 
   21700    202.46899    428.20104     129280.9   -41277.569    2519.0992   -43796.669    26.880611   0.96606295 
   21800    204.87579    442.22037    129293.67   -41268.632    2549.0443   -43817.676    26.863067   0.96596755 
   21900    206.76127    444.73999    129351.04   -41283.571    2572.5032   -43856.074    26.930465   0.96553915 
   22000    201.55275    456.68394    129308.19    -41309.24    2507.6994    -43816.94    27.063239   0.96585906 
   22100    205.61133    461.26457    129517.47   -41244.217    2558.1958   -43802.413    27.162971   0.96429844 
   22200    205.40219    340.53944    129522.49   -41272.808    2555.5937   -43828.401    27.106405   0.96426103 
   22300    203.71761    344.21623    129625.04    -41263.45    2534.6344   -43798.084    27.276008   0.96349816 
   22400    202.09437    218.55883    129492.29   -41243.468    2514.4381   -43757.906    27.285294   0.96448593 
   22500    207.28315    492.34838    129532.87   -41258.638    2578.9964   -43837.635    27.226543   0.96418377 
   22600    208.74144    417.44854    129609.62   -41234.293    2597.1404   -43831.433    27.306665   0.96361281 
   22700    205.28326    433.69211    129666.04   -41241.311    2554.1141   -43795.426    27.408727   0.96319351 
   22800    211.34659    359.66189    129727.36   -41221.499    2629.5534   -43851.052    27.577842   0.96273827 
   22900    210.95828    433.16665    129728.15   -41279.135    2624.7221   -43903.857    27.666051   0.96273236 
   23000    207.18987    430.97088    129627.14   -41266.162    2577.8358   -43843.998    27.658478   0.96348254 
   23100    201.90949    568.30486    129646.18   -41361.054    2512.1379   -43873.191    27.814733   0.96334112 
   23200    205.09205    455.87311    129803.98   -41313.031     2551.735   -43864.766     27.89862   0.96216998 
   23300    205.32305    396.84538    129664.03   -41362.292    2554.6092   -43916.901    27.928955    0.9632085 
   23400    204.44527    508.27344     129797.9   -41290.259    2543.6878   -43833.947    27.922562   0.96221501 
   23500    204.15953    326.36869    129727.76    -41311.96    2540.1327   -43852.092    28.000487    0.9627353 
   23600    210.33194    432.68279    129701.32   -41293.595    2616.9292   -43910.524    28.009983   0.96293156 
   23700    204.42783    449.77189    129708.37   -41325.907    2543.4708   -43869.378    28.271992    0.9628792 
   23800    203.87012    383.93795    129584.84   -41386.199    2536.5319   -43922.731    28.397702   0.96379706 
   23900    203.17939    408.26644    129657.43   -41388.007    2527.9378   -43915.945    28.403039    0.9632575 
   24000    201.31622    401.85297    129557.27   -41312.206    2504.7565   -43816.962    28.255102   0.96400217 
   24100    204.60675    440.17986    129505.55   -41306.192     2545.697   -43851.889    28.361741   0.96438715 
   24200    203.00191    517.67753    129520.06   -41365.918    2525.7296   -43891.647    28.481748   0.96427915 
   24300    201.65436    307.00953    129658.21   -41329.547    2508.9636   -43838.511    28.626315   0.96325173 
   24400    201.06468    581.78482    129533.22   -41361.448    2501.6268   -43863.075    28.537948   0.96418116 
   24500    205.13828    542.13248    129542.62   -41322.938    2552.3102   -43875.248    28.786783   0.96411118 
   24600    203.28889    491.23058    129513.85   -41300.423    2529.3003   -43829.724    28.827293   0.96432538 
   24700    205.22809    483.73611    129547.12   -41319.542    2553.4276    -43872.97    28.868113   0.96407773 
   24800    201.18214    304.50968    129671.34   -41318.664    2503.0884   -43821.752    28.970413   0.96315413 
   24900    208.11183    402.13722    129638.52   -41270.279    2589.3068   -43859.586     28.90382   0.96339803 
   25000    207.22367    642.26299    129674.08   -41263.888    2578.2564   -43842.145    29.048488   0.96313381 
   25100    207.59683     536.9597    129675.79   -41276.373    2582.8992   -43859.272    29.193912   0.96312115 
   25200    203.17675    385.57533    129551.71   -41316.332     2527.905   -43844.237    29.327291   0.96404355 
   25300    208.00714    465.55587    129442.19   -41305.357    2588.0043   -43893.361    29.141934   0.96485924 
   25400      207.641    528.66086    129713.64   -41297.518    2583.4488   -43880.967    29.055149    0.9628401 
   25500    206.38684    535.84111    129865.16   -41258.265    2567.8447   -43826.109    29.347533    0.9617167 
   25600    202.43943    424.19398    129922.04   -41327.716    2518.7314   -43846.448    29.402529   0.96129566 
   25700    199.35952    491.29388    129879.69   -41339.328    2480.4114   -43819.739    29.487421   0.96160909 
   25800    205.35393    409.98649    129739.64   -41324.269    2554.9933   -43879.263    29.575892   0.96264715 
   25900    207.55467    439.89827    129774.51   -41272.566    2582.3747   -43854.941    29.479462   0.96238844 
   26000    208.41729    412.06972    129657.16   -41212.955    2593.1073   -43806.063    29.468119   0.96325951 
   26100    203.23078    478.28976    129705.39   -41299.702    2528.5773   -43828.279    29.622649   0.96290135 
   26200    208.75626    431.52617    129568.83   -41294.168    2597.3247   -43891.493    29.615364   0.96391616 
   26300    203.53198    449.94149     129658.3   -41285.131    2532.3248   -43817.455    29.715904   0.96325101 
   26400    207.53472    471.42374    129567.65   -41275.425    2582.1264   -43857.552    29.745793   0.96392494 
   26500    204.82267    497.15346    129517.11    -41335.78    2548.3834   -43884.164    29.827145   0.96430108 
   26600    202.85225    369.75869    129417.34   -41378.924    2523.8676   -43902.791    29.892347   0.96504449 
   26700    200.44417    494.54266    129515.63    -41394.86    2493.9065   -43888.766    29.891483    0.9643121 
   26800    203.35699    538.94431    129555.34   -41317.723    2530.1476    -43847.87    29.810369   0.96401654 
   26900    204.38957    520.00203     129530.4   -41315.292    2542.9948   -43858.287    29.788091   0.96420212 
   27000    201.37058    574.15693    129590.33   -41352.809    2505.4328   -43858.242    29.990716   0.96375624 
   27100    204.17768    528.15499    129622.75   -41363.613    2540.3585   -43903.972    30.169277   0.96351519 
   27200    203.55097    591.75105    129664.31   -41381.667    2532.5611   -43914.229    30.122455   0.96320638 
   27300    203.21158    326.16839       129753   -41403.475    2528.3383   -43931.813    30.253373     0.962548 
   27400    203.37297    423.10775    129634.54   -41350.209    2530.3464   -43880.556    30.281563    0.9634276 
   27500    201.86959    543.86487    129840.56    -41291.67    2511.6415   -43803.311    30.586586   0.96189887 
   27600    203.12161    492.28076     129737.2   -41322.184     2527.219   -43849.403    30.571888   0.96266523 
   27700    204.00673    342.74899    129650.24   -41327.105    2538.2315   -43865.336    30.622753   0.96331094 
   27800    207.91888     469.1914    129608.79   -41266.134    2586.9061   -43853.041    30.760124   0.96361895 
   27900    207.94237    492.79634    129661.45   -41286.402    2587.1984   -43873.601    30.815809   0.96322766 
   28000     204.5075    437.70026     129748.7   -41321.825    2544.4621   -43866.287    30.921828    0.9625799 
   28100    203.45813    511.78206    129722.21   -41310.952    2531.4059   -43842.358    30.998719   0.96277649 
   28200    206.53568     388.8774    129787.84   -41361.071    2569.6965   -43930.768    31.176726   0.96228965 
   28300    200.86821    338.93054     129725.9   -41358.654    2499.1824   -43857.836    31.133459   0.96274911 
   28400     206.0716    373.51528    129885.36   -41402.312    2563.9225   -43966.234    31.286149    0.9615671 
   28500    202.99079    331.38289    129925.62    -41426.74    2525.5914   -43952.331    31.370749   0.96126918 
   28600    200.00663    274.01544    129864.76   -41388.108    2488.4627   -43876.571    31.426221   0.96171966 
   28700    205.09802    428.37832    129800.84   -41393.257    2551.8093   -43945.067    31.482852   0.96219324 
   28800    205.99921    530.78842    129777.91   -41367.112    2563.0218   -43930.134    31.485613   0.96236325 
   28900      204.681     644.0566    129794.61   -41318.611    2546.6207   -43865.232    31.560748   0.96223941 
   29000    207.92699       531.65    129911.91   -41383.919     2587.007   -43970.926    31.641699   0.96137063 
   29100    204.86423    367.44128       129910    -41329.47    2548.9005    -43878.37    31.718752   0.96138476 
   29200    206.75351    373.21747    129929.22   -41304.283    2572.4067   -43876.689    31.641403   0.96124252 
   29300      201.968    341.01525    130017.49   -41366.831    2512.8659   -43879.696    31.812179   0.96058992 
   29400    204.13167    483.26693    129853.18   -41412.375    2539.7861   -43952.161    31.783915    0.9618054 
   29500    204.37732    537.15933    129890.81   -41444.533    2542.8424   -43987.375    31.962282   0.96152674 
   29600    206.19981    523.80306    129935.55   -41370.295    2565.5176   -43935.813    32.048774   0.96119568 
   29700    202.54642    455.03188    130010.94   -41410.092    2520.0625   -43930.154    32.257338   0.96063836 
   29800    201.73306    361.45275    129906.26   -41383.796    2509.9428   -43893.739    32.074859   0.96141242 
   29900    205.08334     454.4681    129640.07   -41410.788    2551.6267   -43962.415    32.130736   0.96338651 
   30000    205.74163    564.21053    129741.39   -41377.433     2559.817    -43937.25    31.990391   0.96263415 
   30100    205.65056    455.36614    129948.96   -41368.772    2558.6839   -43927.456    32.246369   0.96109649 
   30200     203.8988    382.81127    129900.24   -41379.579    2536.8888   -43916.468    32.315462   0.96145695 
   30300    205.53168    488.15765    129933.37   -41351.576    2557.2048   -43908.781    32.396895   0.96121183 
   30400    200.86568    376.58025    129835.81   -41331.299    2499.1509    -43830.45    32.417255    0.9619341 
   30500    206.09503    381.76968    130116.34   -41342.934     2564.214   -43907.148    32.514256   0.95986015 
   30600    204.42239    364.19741    129900.33   -41321.889    2543.4032   -43865.293    32.557224   0.96145627 
   30700    206.81764    542.47337    129958.93   -41341.512    2573.2047   -43914.717    32.627175   0.96102279 
   30800    206.04324    533.21367    130045.84    -41283.92    2563.5697    -43847.49    32.802527   0.96038054 
   30900    201.91264    390.78874    130104.18   -41401.935    2512.1771   -43914.112    32.794169   0.95994984 
   31000    201.92817    512.49393    130120.31   -41436.348    2512.3703   -43948.719    33.009505   0.95983088 
   31100    204.17391    434.27829    130142.69   -41426.062    2540.3116   -43966.373    33.166272   0.95966582 
   31200    200.46253    422.03451    130036.87   -41443.344     2494.135   -43937.479    32.948675   0.96044676 
   31300    204.71392    409.10646     130086.2   -41412.944    2547.0303   -43959.975    33.123582   0.96008258 
   31400    202.16487    474.59381     129998.2   -41377.017    2515.3154   -43892.333    33.272222   0.96073246 
   31500    203.49796    380.78032    129944.14   -41427.774    2531.9015   -43959.676    33.117951   0.96113215 
   31600    206.96928    489.22326    130002.35   -41374.713    2575.0913   -43949.805    33.283458   0.96070178 
   31700    200.32574    483.64059    130063.38   -41402.504    2492.4331   -43894.937    33.305947   0.96025098 
   31800    204.03739    361.79496    130218.46   -41339.269     2538.613   -43877.882    33.374853   0.95910741 
   31900    205.32122    557.69523    130148.55   -41336.538    2554.5864   -43891.125    33.328233   0.95962261 
   32000    207.72899    607.12043    130198.25   -41329.329    2584.5436   -43913.873     33.53383   0.95925627 
   32100    208.19582    414.68133    130132.98   -41347.233    2590.3519   -43937.584    33.660366   0.95973746 
   32200    208.67023    512.11784    130321.58   -41345.442    2596.2544   -43941.696    33.672741   0.95834854 
   32300    206.34049    504.26108    130223.55   -41329.692     2567.268    -43896.96    33.507605   0.95906992 
   32400     205.4049    352.50601    130327.61    -41397.01    2555.6274   -43952.637    33.501331    0.9583042 
   32500    207.83929      444.166    130237.67   -41404.672    2585.9159   -43990.588    33.461169   0.95896598 
   32600    208.68604    427.24428    130217.03   -41352.281    2596.4511   -43948.732    33.570812   0.95911795 
   32700     202.9847    590.01652    130286.26     -41399.1    2525.5155   -43924.616    33.567514   0.95860829 
   32800    201.90334    324.32679    130083.14   -41430.716    2512.0614   -43942.777    33.587238   0.96010517 
   32900    204.28169    504.58947    130097.96   -41424.259    2541.6526   -43965.912    33.722384   0.95999575 
   33000    202.16375    248.56496    129968.83   -41475.146    2515.3014   -43990.447    33.732913   0.96094953 
   33100    203.31162    643.71101    129826.51   -41394.842    2529.5831   -43924.425    33.646167   0.96200301 
   33200    205.57081    418.91981    130001.33   -41443.039    2557.6917   -44000.731    33.734457   0.96070931 
   33300    203.82725    267.79768    129765.96   -41375.458    2535.9984   -43911.456    33.714587    0.9624519 
   33400    202.34333    537.46563    129792.63   -41459.874    2517.5357   -43977.409     33.96132   0.96225412 
   33500    206.67514    378.96149    129746.74   -41434.058    2571.4317    -44005.49    33.921421   0.96259442 
   33600    205.67446    662.42412    129688.63   -41409.246    2558.9813   -43968.227    33.938839   0.96302577 
   33700    205.75338    407.01565    129645.71   -41409.641    2559.9632   -43969.604    34.073051   0.96334457 
   33800    206.91325    413.56398    129569.21   -41398.615    2574.3942   -43973.009    34.028396   0.96391333 
   33900    202.43425    517.09875    129536.51   -41399.317    2518.6669   -43917.984    34.121018   0.96415668 
   34000    206.64066    518.45396    129530.27   -41360.488    2571.0027   -43931.491    34.090416   0.96420314 
   34100    201.98099    411.62285    129434.63   -41377.053    2513.0275   -43890.081    34.230941   0.96491558 
   34200    204.78022    426.25235     129491.5   -41373.032    2547.8552   -43920.887     34.36707   0.96449182 
   34300    202.18847    460.27837    129450.58   -41422.586     2515.609   -43938.195    34.393619   0.96479668 
   34400    207.01631    397.38868    129571.46   -41362.767    2575.6764   -43938.443    34.533909   0.96389661 
   34500    203.07199    524.54141    129454.57    -41378.82    2526.6016   -43905.421    34.588246   0.96476697 
   34600    203.97053    499.08569    129555.07   -41362.966    2537.7812   -43900.747    34.792633   0.96401858 
   34700    202.72251    492.90116    129504.83   -41433.725    2522.2535   -43955.978    34.720409   0.96439255 
   34800    203.83123    624.96904    129659.02   -41432.696    2536.0481   -43968.744    34.945701   0.96324568 
   34900    203.56832     446.5316    129728.14   -41449.743    2532.7769   -43982.519    34.988787   0.96273246 
   35000    203.18146    686.67014    129913.05    -41528.52    2527.9636   -44056.484    35.024398   0.96136214 
   35100    202.45134    443.29594     130062.4   -41479.695    2518.8795   -43998.574     35.12731   0.96025826 
   35200    201.42514    402.51565    130162.55    -41483.39    2506.1117   -43989.502    35.237478   0.95951941 
   35300    205.35272    456.90474    130214.57   -41484.371    2554.9782   -44039.349    35.175034   0.95913608 
   35400    201.19877    467.03218    130246.78   -41517.762    2503.2952   -44021.057    35.299899   0.95889885 
   35500    207.75804    404.68593    130180.39   -41431.519     2584.905   -44016.424    35.289225   0.95938789 
   35600    205.34128      459.047    130067.96    -41468.48    2554.8359   -44023.315    35.487735   0.96021723 
   35700    204.27379     536.6008    130165.82   -41434.377    2541.5543   -43975.932    35.518393   0.95949531 
   35800    205.90832     458.6643    130073.61   -41462.594     2561.891   -44024.485    35.311515    0.9601755 
   35900     205.1372    481.33533    130050.27   -41414.006    2552.2967   -43966.303    35.366304   0.96034784 
   36000    208.91753    499.72271    129961.88   -41382.063    2599.3313   -43981.395    35.423796   0.96100097 
   36100     203.9035    354.58588    129902.45   -41411.158    2536.9472   -43948.106    35.456582   0.96144059 
   36200    205.20975    499.90953    130047.31   -41438.563    2553.1995   -43991.762    35.639827   0.96036964 
   36300    203.71518    338.47336     130209.5   -41494.982    2534.6042   -44029.587    35.667605   0.95917339 
   36400    205.08049    329.47321    130132.11   -41418.101    2551.5911   -43969.692    35.760131   0.95974382 
   36500    205.09577    246.38879    129932.91   -41392.305    2551.7813   -43944.086    35.944055   0.96121522 
   36600    200.82615    414.33611    129861.45   -41503.826     2498.659   -44002.485    35.745217   0.96174419 
   36700    206.54491     435.7134    130044.49   -41451.806    2569.8113   -44021.618    35.911635   0.96039047 
   36800    205.62635     474.3572    129840.62   -41452.227    2558.3827    -44010.61    35.981133   0.96189843 
   36900    200.76268    273.60691    129887.52   -41482.245    2497.8694   -43980.114    36.061151   0.96155111 
   37000    205.22721     486.7612    129885.22   -41428.645    2553.4167   -43982.062     36.24153   0.96156813 
   37100    206.22977    599.03758    129990.53   -41417.932    2565.8905   -43983.822    36.056607   0.96078914 
   37200    202.58651    507.80786    130003.14   -41487.194    2520.5613   -44007.756    36.131683   0.96069596 
   37300    204.34533    399.76529    130311.08   -41505.514    2542.4444   -44047.958    36.240724   0.95842574 
   37400    200.94098    542.49554    130326.87   -41538.527    2500.0878   -44038.615    36.290939    0.9583096 
   37500    203.77609    371.44362    130197.88   -41546.521     2535.362   -44081.883    36.343175   0.95925906 
   37600    199.31177    494.87001    130178.39   -41497.702    2479.8174   -43977.519    36.330204   0.95940264 
   37700    207.72243    204.42996    130211.74   -41519.446    2584.4619   -44103.908    36.418041    0.9591569 
   37800    203.06796    421.74763    130373.57   -41613.691    2526.5515   -44140.243    36.635402   0.95796631 
   37900    201.27573    429.22611    130300.98     -41578.4    2504.2527   -44082.653    36.678024   0.95849999 
   38000    200.99085    439.61515     130370.1   -41556.931    2500.7083   -44057.639     36.50828   0.95799181 
   38100    204.62043    523.84013    130326.69   -41525.096    2545.8672   -44070.963    36.414377   0.95831091 
   38200    202.29943    446.47025    130424.69   -41535.069    2516.9895   -44052.059    36.659815   0.95759083 
   38300    205.59458    328.04548    130384.22   -41482.237    2557.9875   -44040.225    36.776849   0.95788811 
   38400    205.02486    490.59187    130370.81   -41545.508    2550.8991   -44096.407    36.790263    0.9579866 
   38500    204.59272    538.25506    130446.11   -41560.756    2545.5224   -44106.278    36.872344   0.95743365 
   38600    204.54769    444.74034    130549.59   -41536.692    2544.9621   -44081.654    37.038423   0.95667469 
   38700    203.28698    422.13501    130508.28   -41544.819    2529.2765   -44074.095     36.96362   0.95697756 
   38800    202.62033    470.71507    130436.27   -41565.821    2520.9821   -44086.803    36.959967   0.95750587 
   38900    206.26618    458.30552     130370.7   -41537.816    2566.3434   -44104.159    36.919657   0.95798739 
   39000    205.97296    543.65399    130288.18   -41580.863    2562.6952   -44143.558    36.776927    0.9585942 
   39100    204.13987    482.64353    130263.25   -41535.156    2539.8881   -44075.044    36.891592   0.95877767 
   39200    207.09961    340.37052    130335.42   -41564.099    2576.7129   -44140.812    36.990173   0.95824673 
   39300    205.21938    486.22863    130223.53   -41541.084    2553.3192   -44094.403    37.156969   0.95907007 
   39400    207.37525    604.27959    130349.11   -41501.995    2580.1423   -44082.137    37.140479   0.95814609 
   39500    206.07891    535.39487    130384.89   -41477.701    2564.0135   -44041.715    37.001431   0.95788319 
   39600    205.21438    341.38701    130406.31   -41512.728     2553.257   -44065.985    37.197394   0.95772582 
   39700     207.4298    335.50815    130556.19   -41463.698    2580.8211   -44044.519     37.36868   0.95662635 
   39800    204.66325    464.74083    130365.93   -41539.978       2546.4   -44086.378    37.357165   0.95802245 
   39900    204.93009    386.42864    130277.43   -41577.691    2549.7199   -44127.411    37.208032   0.95867325 
   40000    201.42731    366.14288    130290.39   -41601.733    2506.1386   -44107.872    37.343787   0.95857791 
   40100    206.03305    577.76933    130145.06   -41508.554    2563.4429   -44071.997    37.349669   0.95964834 
   40200    202.75428    353.98176    130245.68   -41535.317    2522.6487   -44057.966    37.458231   0.95890697 
   40300     205.5917    528.90621     130242.4   -41513.585    2557.9516   -44071.537    37.506296   0.95893113 
   40400    209.81631    409.99622    130297.52   -41435.815    2610.5138   -44046.329     37.45747   0.95852545 
   40500    207.50307    461.71382    130348.06   -41451.828    2581.7327   -44033.561    37.561169   0.95815379 
   40600    205.72716    392.92558    130306.67   -41489.844     2559.637   -44049.481    37.583133   0.95845814 
   40700    206.11881    644.57893     130334.6   -41537.342    2564.5099   -44101.851    37.609443   0.95825279 
   40800    204.11916    439.99391    130283.84   -41590.142    2539.6304   -44129.772    37.679622   0.95862613 
   40900    203.04549    626.08022    130260.64   -41601.673    2526.2719   -44127.945    37.686659   0.95879687 
   41000     203.2193    464.17285    130436.56   -41531.155    2528.4344   -44059.589    37.745462    0.9575037 
   41100    207.34345    375.18367    130419.85   -41519.316    2579.7467   -44099.063    37.850728   0.95762642 
   41200    207.03445     504.8346    130298.02   -41529.471    2575.9022   -44105.373    37.897657   0.95852176 
   41300    199.89838    514.76293    130199.92   -41668.736    2487.1159   -44155.852    37.874793   0.95924399 
   41400     200.8154    452.10377    130309.25   -41619.994    2498.5253   -44118.519    37.904068    0.9584392 
   41500    201.28278    460.41121    130434.29   -41621.324    2504.3405   -44125.664     38.06531   0.95752041 
   41600    202.92587    458.91587    130436.91   -41591.361    2524.7836   -44116.145    37.925767   0.95750114 
   41700    203.48812     459.0765    130482.63   -41572.755    2531.7791   -44104.534    38.012032   0.95716567 
   41800    202.30297    517.48756    130447.65    -41573.71    2517.0336   -44090.744    37.990935   0.95742234 
   41900    206.35785    280.10601    130451.01   -41560.626    2567.4839    -44128.11    38.072504   0.95739765 
   42000    205.14045    401.84363     130386.8   -41555.633    2552.3372    -44107.97    38.186308   0.95786915 
   42100    205.96743    384.32312    130381.11    -41556.38    2562.6264   -44119.006    38.038518   0.95791096 
   42200     209.4332    527.66333    130258.08   -41518.067    2605.7471   -44123.814    38.223785   0.95881567 
   42300     207.7157    525.20935    130230.25   -41501.479    2584.3782   -44085.857    38.208276   0.95902056 
   42400    203.91079    530.56905    130214.68   -41541.903    2537.0379    -44078.94     38.40888   0.95913528 
   42500    209.69408    610.63242    130297.61   -41546.635     2608.993   -44155.628    38.607351    0.9585248 
   42600    204.91274    495.51224    130401.99   -41557.908    2549.5041   -44107.412     38.42426   0.95775756 
   42700    204.58569     527.0941    130459.81   -41562.067    2545.4349   -44107.502    38.657722    0.9573331 
   42800    210.15553    469.53835    130414.19   -41525.597    2614.7344   -44140.331     38.63354   0.95766797 
   42900    204.25989    364.95904    130472.85    -41591.75    2541.3814   -44133.131    38.683039   0.95723737 
   43000    204.11937    395.49546    130364.59   -41609.536     2539.633   -44149.169    38.645268   0.95803231 
   43100    200.67221    544.32254    130300.61   -41590.694    2496.7438   -44087.438    38.665845   0.95850271 
   43200    204.68891    459.08426    130551.89   -41549.108    2546.7191   -44095.827    38.993424   0.95665787 
   43300    207.74481    477.14074    130378.15   -41562.843    2584.7404   -44147.583    39.018918    0.9579327 
   43400     206.3893     527.7682    130574.17   -41518.172    2567.8752   -44086.047    39.057153   0.95649459 
   43500    206.33839    255.86955    130385.12    -41525.12    2567.2419   -44092.362    38.946981   0.95788145 
   43600     209.6757    339.30303    130459.73   -41431.187    2608.7643   -44039.952    38.891476   0.95733365 
   43700    206.08024    610.72745    130469.12   -41465.568      2564.03   -44029.598    39.027348   0.95726477 
   43800    209.99985    409.92344    130556.49   -41486.556    2612.7974   -44099.353    39.149828   0.95662413 
   43900    207.36163    425.37902    130525.49   -41539.463     2579.973   -44119.436    39.348308   0.95685132 
   44000     208.0371    430.71731    130500.24   -41568.206    2588.3771   -44156.583    39.333162   0.95703649 
   44100    206.46537    430.11177    130568.53   -41583.033    2568.8217   -44151.855    39.142108    0.9565359 
   44200    205.03438    445.27653    130623.18   -41617.664    2551.0175   -44168.682    39.080847   0.95613574 
   44300    205.93768     414.0026    130573.26   -41626.033    2562.2563    -44188.29    39.245734   0.95650128 
   44400    205.77866     293.0417    130609.68   -41588.665    2560.2778   -44148.943    39.465332   0.95623459 
   44500    203.65912    335.92751    130648.72   -41619.434    2533.9066   -44153.341    39.429191   0.95594882 
   44600    205.54177     292.2453    130610.33   -41688.442    2557.3304   -44245.773    39.449273   0.95622984 
   44700    200.96978    459.94898    130708.37    -41667.68    2500.4462   -44168.126    39.567737   0.95551258 
   44800    206.91484    364.32074    130666.38   -41632.735     2574.414   -44207.149    39.527585   0.95581961 
   44900    205.09423    513.81389     130711.8   -41591.561    2551.7621   -44143.323    39.403249   0.95548753 
   45000    207.75459    461.75835    130857.83   -41593.559     2584.862   -44178.421    39.446449   0.95442122 
   45100    205.10191     462.0653    130770.26   -41552.205    2551.8576   -44104.062    39.416006   0.95506034 
   45200    204.07278    441.87034    130902.91   -41618.917    2539.0534    -44157.97    39.448633   0.95409257 
   45300    202.36463    438.36476    130767.57   -41628.148    2517.8007   -44145.949    39.521919   0.95508003 
   45400    207.04761     421.7516    130826.85   -41605.956    2576.0659   -44182.022    39.568203   0.95464721 
   45500    208.60128    427.30345    130902.52   -41621.993    2595.3965   -44217.389    39.662406   0.95409538 
   45600    206.59978     447.4619    130991.19   -41628.066    2570.4941    -44198.56    39.684451   0.95344956 
   45700    203.74543      398.831    131009.76   -41645.673    2534.9806   -44180.654    39.647867   0.95331438 
   45800    210.72249    443.51103     130966.8   -41599.542    2621.7883    -44221.33    39.622932    0.9536271 
   45900    207.69757    405.53153    130954.11    -41555.21    2584.1526   -44139.363    39.773944   0.95371953 
   46000    207.05157    442.00762    130990.35   -41540.089    2576.1152   -44116.204    39.851534   0.95345568 
   46100     210.4917    493.84605    130743.14   -41502.288    2618.9169   -44121.205    39.949777   0.95525845 
   46200    210.57987    469.41338    130804.45   -41495.741     2620.014   -44115.755    39.855112   0.95481076 
   46300    208.08263    446.72258    130866.67   -41511.533    2588.9436   -44100.476    40.086732   0.95435676 
   46400    207.05986    460.82022    130853.23    -41541.52    2576.2183   -44117.739    40.141261   0.95445481 
   46500    205.75939    364.74322    130755.53   -41554.505     2560.038   -44114.543    40.124681   0.95516796 
   46600    209.24366    428.34006    130970.36   -41543.369    2603.3889   -44146.758    40.207328    0.9536012 
   46700     206.8662    361.03952    130928.41   -41631.263    2573.8088   -44205.071    40.233964   0.95390672 
   46800    203.72134     500.0803    130834.75   -41668.171    2534.6808   -44202.851     40.31032   0.95458957 
   46900    205.89339    432.41436    130813.77   -41595.196    2561.7051   -44156.901    40.347874   0.95474272 
   47000    206.79461    508.15047    130853.47   -41584.552    2572.9181    -44157.47     40.47028   0.95445301 
   47100    210.57208    421.08261    130837.07   -41560.407     2619.917   -44180.324    40.504137   0.95457265 
   47200    208.09596    363.59327    130852.85   -41612.855    2589.1094   -44201.964     40.44536   0.95445754 
   47300    202.02653    371.20376    130936.91   -41644.542    2513.5941   -44158.136    40.815977   0.95384479 
   47400    208.84253    459.18366    130970.37   -41599.871    2598.3981   -44198.269     40.86489   0.95360111 
   47500    210.66992    549.37962    131069.95   -41543.714    2621.1343   -44164.849    40.808774   0.95287662 
   47600    208.06204    482.27915     131049.4   -41512.765    2588.6873   -44101.452    40.906525   0.95302602 
   47700    209.13295    344.32017     131166.2   -41559.179    2602.0115    -44161.19     40.81848   0.95217738 
   47800    203.23053    494.94197    131105.96     -41569.9    2528.5741   -44098.474    40.654201   0.95261493 
   47900    206.15863     453.1858    131136.89   -41650.747    2565.0053   -44215.752     40.91768    0.9523902 
   48000    205.00136    421.28091    131247.94   -41674.617    2550.6066   -44225.224    40.894694   0.95158439 
   48100    208.00167    459.78555       131219   -41643.935    2587.9362   -44231.871    40.947659   0.95179429 
   48200    201.29312    487.61745    131228.18   -41673.329    2504.4691   -44177.798     41.13243   0.95172771 
   48300    203.76058     509.1883    131438.42   -41657.804     2535.169   -44192.973    41.242483   0.95020533 
   48400    210.77008    552.72681    131402.26   -41584.727    2622.3805   -44207.108    41.201843   0.95046687 
   48500    207.49063    527.44035    131338.96   -41651.659    2581.5779   -44233.237    41.032967   0.95092496 
   48600    206.32653    410.69062    131295.16   -41658.578    2567.0942   -44225.672    41.085331   0.95124218 
   48700     203.7922    473.49541    131251.64   -41622.883    2535.5625   -44158.446    41.309392   0.95155755 
   48800    207.58505    497.66001    131209.15   -41646.948    2582.7527   -44229.701    41.186419   0.95186571 
   48900    205.75843    567.43365    131212.86   -41637.766     2560.026   -44197.792    40.955369   0.95183878 
   49000    207.70435    539.39888    131271.36    -41682.37    2584.2371   -44266.607    41.159177   0.95141462 
   49100    206.43012    358.03961    131247.55   -41683.676    2568.3831   -44252.059    41.052383   0.95158724 
   49200    205.77336    558.59241    131259.41    -41712.73    2560.2119   -44272.942    41.219043   0.95150121 
   49300    208.72307    479.27408    131274.12    -41667.82    2596.9118   -44264.732    41.209052   0.95139462 
   49400    208.04028    390.61228    131274.53   -41644.153    2588.4166    -44232.57    41.080467   0.95139163 
   49500    207.82926    590.69741    131192.93   -41658.375    2585.7911   -44244.166     41.20837   0.95198336 
   49600    203.56644    498.86564    131274.68   -41649.229    2532.7535   -44181.983     41.47778   0.95139058 
   49700    206.17384    421.52108    131216.35   -41655.256    2565.1946   -44220.451     41.38612   0.95181347 
   49800    206.73302    534.16912    131247.02   -41695.063    2572.1518   -44267.215    41.343085   0.95159106 
   49900    206.41906    598.64889    131301.91   -41583.343    2568.2455   -44151.589    41.510422   0.95119326 
   50000    205.44237    447.92685    131351.13   -41626.101    2556.0936   -44182.195    41.477858    0.9508368 
   50100    203.56807    542.29709    131179.68   -41635.715    2532.7738   -44168.489    41.646311   0.95207952 
   50200    207.68889    504.96763    131138.95    -41669.61    2584.0446   -44253.655    41.673228   0.95237526 
   50300     205.0886    619.90664    131221.12   -41632.837    2551.6921   -44184.529    41.733087   0.95177891 
   50400    202.57528    425.50873    131316.14   -41659.759    2520.4216   -44180.181    41.631321   0.95109019 
   50500    200.34848    503.06073    131319.92   -41700.713     2492.716   -44193.429    41.851318   0.95106282 
   50600    201.16183    357.56339     131366.8   -41710.059    2502.8356   -44212.895    41.819296   0.95072337 
   50700     202.3866    395.78107    131376.27   -41718.438    2518.0741   -44236.512    41.903654   0.95065488 
   50800    199.40603    407.40875    131361.65   -41716.657    2480.9901   -44197.647    41.708761   0.95076067 
   50900    204.80945      430.657    131401.23   -41626.352    2548.2189    -44174.57    41.868183   0.95047429 
   51000    205.86849    374.25842    131348.95   -41657.203    2561.3954   -44218.598    42.069292   0.95085262 
   51100    204.61347    331.85214    131279.61   -41677.131    2545.7805   -44222.911    42.101378   0.95135486 
   51200    201.27389    382.13265    131274.92   -41669.976    2504.2299   -44174.206    42.218681   0.95138882 
   51300    198.98679    320.46139    131155.57   -41722.477     2475.774   -44198.251    41.956529   0.95225455 
   51400    199.01159    484.99368    131259.69   -41710.806    2476.0826   -44186.888    41.957327   0.95149919 
   51500    204.32927    348.17717    131146.62   -41705.148    2542.2446   -44247.392     42.17043   0.95231955 
   51600    203.89402     429.9595    131215.73   -41656.195    2536.8292   -44193.024    42.186975   0.95181801 
   51700    203.07439    517.70082    131211.46   -41646.429    2526.6314    -44173.06    42.539581   0.95184894 
   51800     204.8364    510.07162    131193.82   -41684.269    2548.5542   -44232.824    42.653892   0.95197693 
   51900    204.35982    573.23984     131242.1     -41727.1    2542.6247   -44269.725    42.555355   0.95162677 
   52000    201.69122    465.53577    131303.34   -41761.337    2509.4222   -44270.759     42.43948   0.95118293 
   52100    204.14012    459.04539    131280.73   -41723.664    2539.8912   -44263.555    42.496661   0.95134673 
   52200    202.73864    307.65193    131391.06   -41752.331    2522.4541   -44274.785    42.456036   0.95054785 
   52300    202.13273    415.44159    131376.43   -41732.814    2514.9154   -44247.729    42.541612   0.95065373 
   52400    202.81459    579.46513     131368.7   -41681.646    2523.3991   -44205.045    42.620953   0.95070962 
   52500    202.38516      408.496    131256.36   -41679.146    2518.0562   -44197.203    42.494738   0.95152332 
   52600    204.05942    491.45796    131268.26   -41701.618    2538.8872   -44240.505    42.509392   0.95143708 
   52700     205.7518    615.76046    131393.87   -41719.421    2559.9435   -44279.365     42.68421   0.95052752 
   52800     206.8948    476.82995     131289.8   -41682.607    2574.1647   -44256.772    42.675852   0.95128096 
   52900    203.73891    446.84038    131370.15   -41675.795    2534.8994   -44210.695    42.829167   0.95069913 
   53000    207.09626      438.768    131287.58   -41645.372    2576.6712   -44222.043    42.903985   0.95129707 
   53100    204.98883     493.1809    131300.49   -41685.926    2550.4508   -44236.377    42.762977   0.95120355 
   53200    208.02443    563.15279    131352.35     -41677.9    2588.2194   -44266.119    42.794408   0.95082796 
   53300    204.72289     394.5817    131228.15   -41668.661     2547.142   -44215.803    42.655784   0.95172789 
   53400    205.79761    404.05706    131227.56    -41738.07    2560.5136   -44298.584    42.571875    0.9517322 
   53500     203.8617    545.49583    131099.21   -41742.123    2536.4271    -44278.55    42.709249   0.95266396 
   53600     202.9489    266.48268    131160.95   -41747.918    2525.0702   -44272.988    42.850695   0.95221551 
   53700    200.99117    430.74765     131160.1    -41778.01    2500.7122   -44278.722    42.781743   0.95222171 
   53800    207.12239    519.96524    131264.11   -41666.194    2576.9963    -44243.19    42.831133    0.9514672 
   53900    203.57695    509.89302    131281.63   -41706.196    2532.8842   -44239.081    42.804128   0.95134018 
   54000    207.88965    567.21729    131328.08   -41681.141    2586.5425   -44267.684    42.824966   0.95100371 
   54100    204.81986    519.29559    131344.73   -41705.711    2548.3485   -44254.059    43.009279   0.95088317 
   54200    202.82574    460.87233    131271.69   -41680.272    2523.5378   -44203.809    42.953464   0.95141225 
   54300    206.46922    426.17229    131305.65   -41649.928    2568.8696   -44218.798     42.90065   0.95116614 
   54400    205.13692    489.35625    131398.34   -41686.577    2552.2933    -44238.87    42.908229   0.95049518 
   54500    201.61151    384.64635     131271.2   -41670.567    2508.4305   -44178.998    42.837736   0.95141578 
   54600    206.02734    499.70779    131248.81   -41587.079    2563.3718   -44150.451    42.778303   0.95157809 
   54700    206.25966    526.66788    131364.51    -41603.59    2566.2623   -44169.852    42.841506   0.95073995 
   54800    205.61701    398.87238    131320.97   -41671.912    2558.2665   -44230.178    43.083565   0.95105519 
   54900    202.13784    355.10403    131133.61   -41717.645     2514.979   -44232.624    43.177899   0.95241403 
   55000    201.59432    471.76736    131174.53   -41769.443    2508.2166   -44277.659    43.248799   0.95211697 
   55100    200.87658    570.42488    131167.73   -41739.923    2499.2865    -44239.21    43.182098   0.95216629 
   55200    202.77636    549.96969    131375.72   -41746.551    2522.9235   -44269.475    43.132911   0.95065887 
   55300    201.60914    286.76649    131358.64   -41698.525     2508.401   -44206.926    43.356097   0.95078248 
   55400    205.75769    538.49824    131335.68     -41680.6    2560.0168   -44240.616    43.171521   0.95094867 
   55500    204.14226    550.37876    131430.69   -41639.151    2539.9179   -44179.069    43.359569   0.95026128 
   55600    205.47697    409.33815     131583.1    -41679.09    2556.5241   -44235.614    43.516888   0.94916058 
   55700    208.34293    566.14468     131523.8   -41678.043    2592.1821   -44270.226    43.664869   0.94958854 
   55800    205.57497    477.10077    131574.67   -41686.473    2557.7434   -44244.216    43.752745   0.94922138 
   55900    206.43084    423.56124    131620.19   -41660.731    2568.3921   -44229.123    43.579199   0.94889308 
   56000    207.59394    394.07467    131582.94    -41652.65    2582.8633   -44235.514    43.604323    0.9491617 
   56100    209.58395    448.37851    131565.34   -41636.243    2607.6228   -44243.866    43.548061   0.94928874 
   56200    207.21164    443.31183    131550.88   -41628.715    2578.1067   -44206.822    43.333883   0.94939302 
   56300     207.5076    452.52073    131616.43   -41665.445    2581.7891   -44247.234    43.456219   0.94892025 
   56400    207.56589     364.4467    131693.14   -41665.505    2582.5143   -44248.019    43.796382   0.94836751 
   56500    204.27233    367.92812    131633.27   -41748.757    2541.5362   -44290.293    43.843145   0.94879883 
   56600    205.84154    413.25165    131637.08   -41763.383    2561.0601   -44324.443    43.683602   0.94877138 
   56700    202.35914     567.2241    131644.27   -41795.085    2517.7325   -44312.817    43.653375   0.94871954 
   56800    203.96484    344.36317    131730.12    -41726.33    2537.7104    -44264.04    43.637316   0.94810127 
   56900     205.6613    365.21702    131630.16   -41711.671    2558.8175   -44270.489    43.593855   0.94882123 
   57000    208.07235    457.26839    131515.78   -41656.345    2588.8157   -44245.161    43.623956   0.94964645 
   57100    206.18818    575.82526    131469.52   -41708.101    2565.3729   -44273.474    43.820836   0.94998057 
   57200    204.42367    392.04704    131307.62   -41739.313     2543.419   -44282.732     43.77292    0.9511519 
   57300    203.53386     494.2567    131270.57   -41782.453    2532.3481   -44314.801     43.68271   0.95142038 
   57400    200.12274    520.59294    131341.75   -41787.677    2489.9073   -44277.585    43.770675   0.95090476 
   57500    200.24738    389.13998    131290.83   -41819.436    2491.4582   -44310.894     43.92656   0.95127353 
   57600     206.0557     629.1506     131406.9   -41771.927    2563.7246   -44335.652    43.922441   0.95043329 
   57700    202.50353    452.44524    131486.02   -41821.677    2519.5289   -44341.205    44.078706   0.94986139 
   57800    202.28081     585.4232    131596.26   -41850.707    2516.7579   -44367.465    43.920553   0.94906568 
   57900    202.32951    442.24917    131611.47   -41828.911    2517.3637   -44346.275    43.978733   0.94895599 
   58000    196.38012    489.03697    131516.72   -41829.458     2443.342     -44272.8    44.122996   0.94963963 
   58100    205.51404    399.33011    131581.29   -41768.155    2556.9854   -44325.141    44.264817    0.9491736 
   58200    204.17255    422.02757    131670.22   -41724.558    2540.2947   -44264.852    44.177583   0.94853254 
   58300    208.43737    504.77496    131620.98   -41671.604    2593.3572   -44264.961    44.074495   0.94888742 
   58400    207.47737    387.70659    131597.72   -41683.783    2581.4129   -44265.196    44.090722   0.94905516 
   58500    209.77738    589.90666    131619.94   -41693.733    2610.0295   -44303.763    44.071865    0.9488949 
   58600    207.14346    505.83257    131604.78   -41658.531    2577.2585    -44235.79    44.040447   0.94900423 
   58700    209.12693    455.11031    131648.54   -41663.822    2601.9366   -44265.758    44.350565   0.94868877 
   58800    206.94345    311.79459    131657.15   -41718.919      2574.77   -44293.689    44.398353   0.94862676 
   58900    203.63732    482.01831    131636.68   -41755.178    2533.6354   -44288.814    44.271485   0.94877427 
   59000    204.07688    366.71148    131506.49   -41732.528    2539.1044   -44271.632    44.212164   0.94971353 
   59100    202.11994    395.84337    131418.51    -41729.34    2514.7563   -44244.096    44.335982   0.95034933 
   59200    203.85948    445.36074    131392.95   -41741.563    2536.3995   -44277.962    44.318075    0.9505342 
   59300    202.97726    482.34092    131302.65   -41731.173     2525.423   -44256.596      44.3758   0.95118789 
   59400    203.66833    647.67968     131280.3   -41782.028    2534.0213   -44316.049    44.427726   0.95134984 
   59500    205.09371    448.08798    131281.25   -41745.154    2551.7556    -44296.91    44.285173   0.95134297 
   59600    205.61501    595.51568    131476.43    -41738.76    2558.2416   -44297.002    44.321388   0.94993069 
   59700    203.13721    551.13171    131481.42   -41764.823    2527.4131   -44292.236    44.336996   0.94989463 
   59800    204.76303    366.81045    131498.26   -41763.019    2547.6413    -44310.66    44.475232   0.94977298 
   59900    206.16271    471.23419    131358.22   -41740.476    2565.0561   -44305.532    44.343379   0.95078547 
   60000    200.45269    467.69873     131336.4   -41767.768    2494.0125    -44261.78    44.348613   0.95094346 
   60100    203.85411    511.21424    131192.69   -41732.235    2536.3326   -44268.568    44.280704   0.95198516 
   60200    202.38212    535.99547    131209.66   -41701.894    2518.0184   -44219.913    44.596657   0.95186202 
   60300    208.87932    300.19551    131173.51   -41656.285    2598.8559   -44255.141    44.448279   0.95212436 
   60400    209.26833    470.11484    131216.21   -41613.431    2603.6958   -44217.127     44.39994   0.95181451 
   60500    205.81996    379.88166    131252.76   -41634.296    2560.7916   -44195.087    44.648986   0.95154944 
   60600    206.36769    516.12454    131403.31   -41683.253    2567.6063    -44250.86     44.73411   0.95045925 
   60700    205.78948    519.82056    131544.25   -41699.968    2560.4124    -44260.38     44.56445   0.94944088 
   60800    208.03518    554.06963    131523.19   -41657.258    2588.3532   -44245.611    44.621969   0.94959291 
   60900    205.45593    437.71389     131499.9   -41651.802    2556.2623   -44208.064    44.736832    0.9497611 
   61000    204.20562    377.56929    131443.66   -41687.886    2540.7061   -44228.592    44.808233   0.95016747 
   61100    202.36757    321.14284    131496.18   -41718.778    2517.8373   -44236.616    44.886719   0.94978802 
   61200    205.23092     516.5764     131586.2   -41723.041    2553.4629   -44276.504    44.969321    0.9491382 
   61300      205.778     454.3707     131673.9   -41717.452    2560.2696   -44277.721    44.928088   0.94850605 
   61400    202.34783     481.1123    131704.33   -41746.733    2517.5917   -44264.325    45.064701   0.94828689 
   61500    206.71918    475.59179    131645.85   -41759.169    2571.9796   -44331.149    45.011963   0.94870817 
   61600    203.35492    445.02036    131590.25   -41727.337    2530.1218   -44257.459    44.888492   0.94910899 
   61700    199.96611    625.02843    131545.98   -41795.611    2487.9586   -44283.569    45.091815   0.94942842 
   61800    200.16408     506.9142    131642.71   -41853.142    2490.4216   -44343.563    45.093279   0.94873081 
   61900     205.5233     315.9821    131633.94   -41813.337    2557.1006   -44370.438    44.970865   0.94879399 
   62000    203.63749    541.78119    131472.99   -41770.556    2533.6375   -44304.193    45.090684   0.94995552 
   62100     202.9431    507.38759    131469.38   -41786.095    2524.9979   -44311.093    45.169917   0.94998159 
   62200    201.98065    493.55928    131480.65    -41743.88    2513.0232   -44256.904    44.945758   0.94990013 
   62300    205.46525    446.34499    131411.95   -41778.194    2556.3783   -44334.572    44.861426   0.95039673 
   62400    205.25003    415.52749    131540.93   -41724.747    2553.7006   -44278.448    44.959014   0.94946488 
   62500    204.23286    554.74252    131661.76    -41731.06    2541.0451   -44272.105    45.094392   0.94859348 
   62600    205.05505    441.24827    131638.86   -41738.354    2551.2746   -44289.628    45.098675   0.94875855 
   62700    204.70609    355.66564    131553.42   -41763.973    2546.9329   -44310.906    45.009071   0.94937474 
   62800    202.94829    521.07433    131507.09    -41746.72    2525.0626   -44271.783    45.170016   0.94970919 
   62900    202.80096    361.64119    131556.15    -41686.54    2523.2295    -44209.77    45.345272   0.94935505 
   63000    204.78558    392.66612    131501.28   -41646.714     2547.922   -44194.636    45.064469   0.94975113 
   63100    209.93975    413.39325    131444.44   -41644.408    2612.0497   -44256.458    45.273738   0.95016183 
   63200    204.53367    497.64945    131191.89   -41678.014    2544.7877   -44222.801    45.452165   0.95199095 
   63300    208.35971    578.77241    131253.83   -41704.399    2592.3909    -44296.79    45.167456   0.95154166 
   63400    209.80272    386.94717    131359.67   -41645.366    2610.3447   -44255.711     45.31694   0.95077503 
   63500    203.61781    382.54507    131314.55   -41735.046    2533.3926   -44268.438    45.279334   0.95110169 
   63600     205.0365     521.0485     131297.4   -41744.388    2551.0438   -44295.432    45.268204   0.95122591 
   63700    204.12344    476.86179    131179.13   -41743.116    2539.6836     -44282.8    45.106434   0.95208354 
   63800    200.51141    420.39965    131152.65   -41838.905    2494.7431   -44333.648    45.165924   0.95227578 
   63900    201.95294    432.35114    131188.33   -41825.104    2512.6785   -44337.783    45.184482    0.9520168 
   64000    198.94979    252.45244    131005.77   -41805.673    2475.3137   -44280.987    45.199195   0.95334342 
   64100    206.23278    484.19416       131201   -41730.545    2565.9279   -44296.473    45.355031   0.95192482 
   64200    208.81292    451.13217    131195.47   -41731.523    2598.0297   -44329.553    45.224262   0.95196497 
   64300     207.0212    560.41634    131150.82   -41652.601    2575.7373   -44228.338    45.274573    0.9522891 
   64400    206.30527    272.86787    131124.77   -41680.488    2566.8298   -44247.318    45.477626   0.95247827 
   64500    212.85466    598.61418    131241.86   -41676.742    2648.3166   -44325.059    45.393831   0.95162846 
   64600    206.54285    382.41394    131196.78   -41725.065    2569.7857   -44294.851    45.508386   0.95195544 
   64700    205.57526    508.53986    131226.59   -41739.579    2557.7471   -44297.326    45.392869   0.95173925 
   64800    203.08571    344.79432    131215.58   -41753.423    2526.7724   -44280.196    45.452346   0.95181908 
   64900    204.05736      489.449    131297.89   -41729.285    2538.8615   -44268.147    45.683185   0.95122238 
   65000    205.57459    509.91484    131313.96   -41702.237    2557.7387   -44259.975    45.701542   0.95110595 
   65100    208.03587    535.76026    131393.46   -41724.364    2588.3617   -44312.726    45.648315   0.95053052 
   65200    204.78382    599.27745    131404.38   -41712.082    2547.9001   -44259.982    45.888694   0.95045149 
   65300    204.50537    550.86453    131476.46   -41703.783    2544.4356   -44248.219    45.926751   0.94993041 
   65400    205.55864    304.79295    131425.52   -41651.363    2557.5403   -44208.904    45.823093   0.95029861 
   65500    208.24049    347.20103     131505.6   -41708.036    2590.9076   -44298.944    45.727003   0.94971991 
   65600    204.27661    485.77537    131399.18   -41747.603    2541.5894   -44289.192    45.861055   0.95048909 
   65700    202.15451    529.61443    131346.82   -41788.462    2515.1865   -44303.648    45.877417   0.95086804 
   65800    201.72633    427.89159    131341.98   -41796.524    2509.8591   -44306.383    45.978935   0.95090305 
   65900    201.53698    450.08939    131301.66   -41777.879    2507.5032   -44285.382    45.949414    0.9511951 
   66000    208.69674    377.85893    131431.84   -41690.674    2596.5843   -44287.259    45.996914   0.95025296 
   66100    206.18394     619.0626    131387.22     -41653.1    2565.3202    -44218.42    46.084054   0.95057561 
   66200    208.32655    450.54879    131345.78   -41612.301    2591.9783   -44204.279    46.094006   0.95087554 
   66300    205.63246    622.02351    131348.58    -41653.13    2558.4587   -44211.589    46.050653   0.95085526 
   66400    206.23071     400.5465    131396.66   -41699.993    2565.9022   -44265.896    46.266568   0.95050736 
   66500    205.32187    414.90997    131394.53   -41717.518    2554.5944   -44272.113    46.362501   0.95052278 
   66600    204.65585    300.23601    131426.77   -41738.149    2546.3079   -44284.457    46.353288   0.95028959 
   66700     201.3329    447.17446    131454.72   -41756.972    2504.9641   -44261.936    46.310679   0.95008753 
   66800    205.50404    377.62565    131499.93    -41695.69    2556.8609    -44252.55     46.35895   0.94976093 
[...]
   84600    199.44228    520.32015    131294.96   -41854.745    2481.4411   -44336.186    52.573665   0.95124362 
   84700    201.33197    426.02177    131292.35    -41855.06    2504.9525   -44360.013    52.426906   0.95126248 
   84800    205.49575    436.03012    131367.67   -41826.687    2556.7579   -44383.445     52.43921   0.95071711 
   84900    203.54037    420.69354    131342.98    -41803.32    2532.4291   -44335.749    52.470596    0.9508958 
   85000    203.59947    535.28019    131326.33   -41755.592    2533.1645   -44288.756    52.687308    0.9510164 
   85100     204.5426    520.54897    131322.75   -41764.099    2544.8989   -44308.998    52.673951   0.95104229 
   85200    207.84843    465.53972    131445.36   -41765.665    2586.0297   -44351.695    52.693818   0.95015519 
   85300    202.69551    384.26725    131203.65    -41797.02    2521.9175   -44318.937    52.686161   0.95190559 
   85400    201.36582    376.34597    131293.51   -41783.508    2505.3736   -44288.882    52.718432   0.95125415 
   85500    207.27091    366.98606    131249.87   -41749.683    2578.8442   -44328.527    52.771518   0.95157038 
   85600    203.51997    480.47869    131259.66   -41728.169    2532.1754   -44260.345    52.891653   0.95149939 
   85700    202.97296    560.37942    131414.73    -41764.45    2525.3695    -44289.82    52.857479   0.95037662 
   85800    204.94142    486.15463    131320.98   -41775.462    2549.8609   -44325.323    52.719089   0.95105513 
   85900     207.9671    476.01437    131557.27   -41684.776    2587.5061   -44272.283    52.812826   0.94934695 
   86000    205.64672    383.99075       131468   -41736.384    2558.6362    -44295.02    52.893308   0.94999154 
   86100    206.66745    423.89216    131424.52   -41731.279    2571.3359   -44302.615    52.796014   0.95030584 
   86200    206.15754    366.03002    131449.92    -41707.07    2564.9918   -44272.062    52.948788   0.95012221 
   86300    207.34613    449.40113    131508.09    -41734.16    2579.7801    -44313.94    52.950629   0.94970196 
   86400    203.59882    492.89461    131480.07   -41753.186    2533.1564   -44286.343    53.031487   0.94990434 
   86500    203.83051    482.01403    131485.64   -41744.454     2536.039   -44280.493    52.903242   0.94986412 
   86600    212.17337    386.72295    131388.63   -41695.132    2639.8401   -44334.972    53.088013   0.95056547 
   86700    205.13193    357.21904    131391.23   -41691.774    2552.2312   -44244.005    53.079503   0.95054665 
   86800    206.41888    504.14586    131425.72   -41757.016    2568.2433   -44325.259    53.159575   0.95029717 
   86900    205.23516    410.91042    131480.46   -41729.954    2553.5155    -44283.47    53.257404   0.94990153 
   87000    204.19518     527.0658    131273.93    -41735.73    2540.5762   -44276.306    53.287399   0.95139601 
   87100    203.76308    492.33464    131252.46   -41766.112    2535.2001   -44301.312     53.10267    0.9515516 
   87200    202.60909    466.13787     131398.7   -41760.379    2520.8422   -44281.222    53.358273   0.95049263 
   87300    203.28546    294.10747    131242.58   -41769.099    2529.2576   -44298.357    53.398221   0.95162328 
   87400    206.88555    395.73066    131353.21   -41780.035    2574.0495   -44354.085    53.377403   0.95082179 
   87500    206.70468    320.97234    131448.49   -41796.131    2571.7992   -44367.931    53.402031    0.9501326 
   87600     202.9071    365.62042    131563.15   -41806.738    2524.5501   -44331.289    53.591075   0.94930449 
   87700    207.71376    462.57532    131643.77   -41819.684    2584.3541   -44404.038    53.668119   0.94872318 
   87800    202.82994    401.86676    131619.71   -41793.926    2523.5901   -44317.516    53.589536    0.9488966 
   87900    204.54539    521.57929    131544.07   -41817.268    2544.9335   -44362.202    53.691464   0.94944219 
   88000    203.08562    409.83943    131650.42   -41843.107    2526.7712   -44369.878    53.751248   0.94867524 
   88100     205.0794    342.06661     131485.4   -41781.861    2551.5777   -44333.438    53.756325   0.94986581 
   88200    205.13404    440.49731    131472.54   -41761.494    2552.2574   -44313.752    53.740712   0.94995874 
   88300     204.8133    447.86281    131502.28   -41792.287    2548.2668   -44340.554    53.870041   0.94974391 
   88400    204.35491    468.48994    131463.15   -41901.034    2542.5636   -44443.598    53.874538   0.95002663 
   88500    206.04635      302.951    131550.42   -41812.527    2563.6084   -44376.136    53.614487   0.94939637 
   88600    203.28233    472.50403    131557.91   -41764.124    2529.2186   -44293.343    53.602118   0.94934229 
   88700    207.38294    484.15174    131592.66    -41736.25    2580.2381   -44316.488     53.63179   0.94909163 
   88800    203.42855    381.63432    131540.21   -41685.484    2531.0379   -44216.522    53.562193   0.94947007 
   88900    204.57386    431.13256    131516.79   -41724.044    2545.2878   -44269.332    53.736704   0.94963914 
   89000    209.23607    432.63324    131450.65   -41701.554    2603.2945   -44304.848    53.784869   0.95011694 
   89100    202.05553     401.4827    131429.96   -41785.173    2513.9549   -44299.127    53.712991    0.9502665 
   89200    205.72506    462.14469     131445.8   -41818.343    2559.6108   -44377.954     53.82034   0.95015201 
   89300    202.43506    564.14655    131458.24   -41826.324    2518.6771   -44345.001    53.714959   0.95006207 
   89400    201.88802     449.9026    131382.64   -41843.793    2511.8708   -44355.663    53.818928   0.95060877 
   89500    198.78536    341.24601    131385.56   -41868.055    2473.2678   -44341.323    54.041099   0.95058765 
   89600    197.42622    505.66912    131396.78   -41901.938    2456.3575   -44358.296    53.909689   0.95050648 
   89700    195.42099    545.85907    131339.97   -41860.973    2431.4086   -44292.381    53.874338    0.9509176 
   89800    199.61377    321.76721    131250.83   -41816.176    2483.5748   -44299.751    53.864003   0.95156343 
   89900     198.4497    470.67815    131335.17     -41869.2    2469.0915   -44338.292     53.76449   0.95095234 
   90000    202.49779    529.67934    131361.84   -41793.636    2519.4575   -44313.094    53.936459   0.95075929 
   90100    205.90412    429.34031    131407.65   -41807.603    2561.8387   -44369.441    54.190127   0.95042788 
   90200    202.87148    365.69991    131525.41   -41856.385    2524.1069   -44380.492    54.202838   0.94957693 
   90300    204.31265    559.39028    131524.82   -41859.187    2542.0378   -44401.225    54.189897   0.94958114 
   90400    205.03101    405.29988    131540.67    -41848.01    2550.9756   -44398.986    54.081878    0.9494667 
   90500    205.78898    353.58573    131544.47   -41820.487    2560.4061   -44380.893    54.303225   0.94943928 
   90600    207.64515    452.17904    131415.41   -41733.836    2583.5004   -44317.336    54.339538   0.95037175 
   90700    206.38948    533.71657    131479.02   -41736.858    2567.8775   -44304.735    54.235201   0.94991191 
   90800    205.05612    395.21363     131419.5    -41770.18    2551.2879   -44321.468    54.269744   0.95034215 
   90900    200.39321    530.30791    131504.48   -41851.325    2493.2725   -44344.597    54.401354   0.94972803 
   91000    205.47295    464.28979    131511.81   -41871.097    2556.4742   -44427.571    54.706771   0.94967509 
   91100    203.47111    391.69024    131539.12    -41859.45    2531.5675   -44391.017    54.476227   0.94947793 
   91200    205.40939    467.49795    131559.57   -41819.091    2555.6834   -44374.775    54.419987   0.94933037 
   91300     206.6566    529.29431    131441.59   -41725.065     2571.201   -44296.266    54.590595   0.95018245 
   91400    209.22414     396.5788    131472.53   -41712.426    2603.1461   -44315.572    54.627636   0.94995883 
   91500    206.88872    431.44294    131441.47   -41736.781     2574.089    -44310.87    54.510823    0.9501833 
   91600     208.3206    529.65043    131296.89   -41766.725    2591.9043    -44358.63    54.540112   0.95122964 
   91700    203.83528    452.09468    131262.18    -41824.11    2536.0984   -44360.209    54.590975   0.95148114 
   91800    203.73405    510.29708    131314.98   -41792.246    2534.8389   -44327.085    54.677116   0.95109857 
   91900    202.90311    448.13672    131284.25   -41791.431    2524.5005   -44315.931     54.53728   0.95132124 
   92000    206.51288    509.92861     131346.6    -41809.41    2569.4128   -44378.822    54.483588   0.95086959 
   92100    205.48636    629.26272    131427.21   -41854.857     2556.641   -44411.498    54.425675   0.95028641 
   92200    206.50772     674.9708    131395.97   -41803.699    2569.3487   -44373.048    54.622574   0.95051234 
   92300    206.96482    542.17725    131421.22   -41725.218    2575.0358   -44300.254    54.958839   0.95032974 
   92400    209.19824    383.68553    131495.64   -41743.516    2602.8238    -44346.34    54.901984   0.94979188 
   92500    205.94209    435.15555     131408.7   -41787.208    2562.3111    -44349.52    54.798772   0.95042025 
   92600    205.11023    507.10423    131422.67   -41766.011    2551.9612   -44317.972    54.948478   0.95031926 
   92700    207.33923    332.55795    131491.24   -41762.809    2579.6942   -44342.503    54.869362   0.94982363 
   92800    205.25503    540.76114    131473.38   -41803.946    2553.7628   -44357.709    54.777945   0.94995271 
   92900    206.45251    518.84551    131599.77   -41768.268    2568.6617    -44336.93    55.020699   0.94904038 
   93000    206.08216    530.80013    131582.52   -41792.257    2564.0539   -44356.311    54.823318   0.94916476 
   93100    205.39565    445.95853    131612.72   -41733.527    2555.5124   -44289.039    54.908701   0.94894697 
   93200    205.69817    568.16496    131652.36   -41742.871    2559.2762   -44302.147    54.960365   0.94866125 
   93300    205.02923    392.16964    131687.94   -41760.935    2550.9534   -44311.889     55.21119   0.94840495 
   93400    205.31638    487.07008    131748.56   -41788.403    2554.5261   -44342.929    55.188071   0.94796856 
   93500    200.25393    372.33786    131438.11   -41818.644    2491.5396   -44310.183    54.978982   0.95020757 
   93600    204.56646    426.15677    131465.56   -41879.443    2545.1957   -44424.639    54.972513   0.95000923 
   93700    202.96681    424.69041     131647.7   -41830.183     2525.293   -44355.476    55.166126   0.94869482 
   93800    204.52959    369.11739    131579.59   -41792.693    2544.7369    -44337.43    55.222585   0.94918588 
   93900      207.384    486.86301    131654.51   -41777.822    2580.2512   -44358.073    55.195167   0.94864577 
   94000    205.39763    462.48318    131631.44   -41796.327     2555.537   -44351.864    55.063231   0.94881203 
   94100    202.47337    557.63963    131613.59   -41801.253    2519.1536   -44320.407    55.263709   0.94894068 
   94200    203.84563    363.39975    131517.92   -41792.073    2536.2272     -44328.3    55.347748   0.94963095 
   94300    205.23227    533.64578    131424.25   -41747.495    2553.4797   -44300.975     55.14109   0.95030782 
   94400    206.01931    404.79133    131428.41   -41733.571    2563.2719   -44296.843    55.239511   0.95027775 
   94500    214.10995    438.28176    131333.77   -41678.593    2663.9348   -44342.528    55.256548   0.95096252 
   94600    204.63206    558.69141     131280.7   -41713.237    2546.0119   -44259.249    55.270516   0.95134696 
   94700    203.27793     394.8768     131385.2   -41754.923     2529.164   -44284.087    55.376797   0.95059029 
   94800    205.37566    464.41395    131459.22    -41748.79    2555.2637   -44304.054    55.553689   0.95005501 
   94900    206.41417     353.2952    131585.49   -41716.069    2568.1847   -44284.254    55.738448   0.94914337 
   95000    206.72573    290.33422    131468.76   -41701.216    2572.0611   -44273.277    55.756057   0.94998611 
   95100    206.03834    346.19354    131418.09    -41691.09    2563.5086   -44254.599    55.695563   0.95035237 
   95200    206.80364    559.93132    131486.41   -41709.491    2573.0305   -44282.522    55.713672   0.94985852 
   95300    207.63947    399.02355    131579.36   -41622.628    2583.4297   -44206.058     55.79444   0.94918759 
   95400    207.98094    485.62989    131424.41   -41684.784    2587.6782   -44272.462    55.548508   0.95030663 
   95500    208.63134    435.46451    131478.33   -41688.144    2595.7705   -44283.914    55.727108   0.94991691 
   95600     205.3827    486.08302    131506.57     -41684.1    2555.3513   -44239.451    55.915172   0.94971294 
   95700    211.35179    436.08925     131480.1   -41747.626    2629.6181   -44377.244    55.982414   0.94990411 
   95800    205.53407    535.22854    131451.33    -41799.97    2557.2346   -44357.204    55.996684   0.95011206 
   95900     205.8139    468.30238    131459.72   -41752.917    2560.7162   -44313.633    55.912594   0.95005137 
   96000    202.81496    428.14452    131378.64   -41828.777    2523.4037    -44352.18    55.642421   0.95063774 
   96100    205.55129     450.7578    131515.25    -41786.27    2557.4488   -44343.719    55.689212   0.94965026 
   96200    201.98323    321.70326    131501.34   -41830.268    2513.0554   -44343.323    55.754967   0.94975071 
   96300    204.47064    489.98169    131553.91    -41787.61    2544.0035   -44331.613    55.929103   0.94937118 
   96400    213.43034    499.92882    131756.93   -41772.168    2655.4792   -44427.647    55.843937   0.94790833 
   96500     205.5047    427.00312    131657.89   -41817.982    2556.8692   -44374.852    56.019293   0.94862136 
   96600     203.0124    403.86652    131627.81   -41808.486    2525.8602   -44334.346    56.191537   0.94883819 
   96700    204.91318    519.18594    131592.41   -41876.174    2549.5095   -44425.684    56.054369   0.94909341 
   96800    197.31917    464.02162    131563.84   -41913.277    2455.0257   -44368.303    55.975422    0.9492995 
   96900    201.07159    414.96216    131499.29   -41855.995    2501.7129   -44357.707    56.002117   0.94976548 
   97000    203.75288    449.33503    131636.19   -41858.852    2535.0732   -44393.926    56.019107   0.94877777 
   97100    202.60285     399.0765    131611.01   -41855.355    2520.7646   -44376.119    56.208204   0.94895933 
   97200    203.77143    512.20399    131518.35   -41859.125     2535.304   -44394.429    56.300502   0.94962786 
   97300    198.47021    416.38753    131756.08   -41850.535    2469.3467   -44319.882    56.280233   0.94791443 
   97400    200.88954    395.26263    131689.01   -41848.635    2499.4478   -44348.083     56.42317   0.94839723 
   97500    207.05249    394.47673    131693.18   -41765.287    2576.1266   -44341.414     56.43468   0.94836722 
   97600    203.85406     364.0155    131633.15   -41824.594    2536.3321   -44360.927    56.385844   0.94879971 
   97700    205.12803    400.48069    131652.06   -41753.914    2552.1826   -44306.097    56.399505    0.9486634 
   97800    207.20325    412.73762    131653.05   -41734.865    2578.0023   -44312.868    56.537365   0.94865624 
   97900    207.25294    327.61651    131631.32   -41704.571    2578.6206   -44283.191    56.595758   0.94881285 
   98000    208.34565    380.20361     131625.8   -41725.123     2592.216   -44317.339    56.606787   0.94885268 
   98100    208.26699    449.01597    131692.66    -41800.63    2591.2372   -44391.867    56.657012   0.94837095 
   98200    202.38885    436.41003     131626.2   -41773.084    2518.1021   -44291.186    56.584399   0.94884978 
   98300    203.12619     421.8558     131668.9   -41789.926     2527.276   -44317.202    56.555869   0.94854205 
   98400    205.47904    344.49945    131733.54   -41796.193      2556.55   -44352.743    56.652166   0.94807661 
   98500    207.10526    654.81387    131776.42   -41797.553    2576.7831   -44374.336    56.882686   0.94776815 
   98600    203.34356    370.65983    131711.05   -41826.394    2529.9805   -44356.374    56.764343   0.94823854 
   98700     200.4159    457.82433    131737.68   -41879.255    2493.5548    -44372.81    56.892299   0.94804684 
   98800    203.08197    516.33166    131742.72   -41855.405    2526.7258   -44382.131    56.868726   0.94801058 
   98900    202.21085    365.84586     131768.5   -41855.801    2515.8874   -44371.689    56.815887   0.94782508 
   99000    198.44855    417.10105    131795.73   -41888.747    2469.0773   -44357.824     56.69498   0.94762924 
   99100    204.31086    494.47167     131792.1    -41819.98    2542.0156   -44361.995    56.765332   0.94765538 
   99200    201.39373    325.42701    131826.91   -41817.672    2505.7209   -44323.393    57.010916   0.94740512 
   99300    202.92734    421.78203    131782.36   -41773.234     2524.802   -44298.036    57.077182   0.94772544 
   99400    205.83109    439.99358    131930.22    -41747.74    2560.9301    -44308.67     57.21426   0.94666322 
   99500    207.12212     478.9573     131938.5   -41645.923    2576.9929   -44222.916    57.193839   0.94660384 
   99600    210.28399    527.15338    131791.88   -41677.263    2616.3326   -44293.596    57.182804   0.94765695 
   99700    207.09407    480.97947    131684.97   -41685.294     2576.644   -44261.938    57.307014   0.94842634 
   99800    205.38109    504.09304    131734.26   -41705.103    2555.3312   -44260.434    57.367749   0.94807146 
   99900    203.50562    360.87686    131722.88   -41757.403    2531.9968     -44289.4    57.219084   0.94815336 
  100000    204.94426    481.39054     131814.4   -41763.011    2549.8963   -44312.908    57.168761   0.94749502 
  100100    209.30258    452.93061    131654.69   -41702.362     2604.122   -44306.484    57.293078   0.94864447 
  100200    208.96697    536.98211    131606.79   -41699.344    2599.9463   -44299.291    57.184936   0.94898969 
  100300    208.24722    417.67604    131484.89   -41702.169    2590.9914    -44293.16     57.29798   0.94986951 
  100400    204.91308    196.22544    131600.97   -41740.142    2549.5083    -44289.65    57.358319   0.94903166 
  100500    211.22532    522.60224    131643.06   -41674.908    2628.0446   -44302.952    57.479175   0.94872829 
  100600    207.04438    435.21459    131568.45   -41752.895    2576.0257   -44328.921    57.457557   0.94926624 
  100630    208.39957    476.07276    131552.37   -41736.651    2592.8868   -44329.537    57.406048   0.94938231 
Loop time of 79.5678 on 6 procs for 100000 steps with 4175 atoms

Performance: 542.933 ns/day, 0.044 hours/ns, 1256.790 timesteps/s
98.5% CPU use with 6 MPI tasks x no OpenMP threads

MPI task timing breakdown:
Section |  min time  |  avg time  |  max time  |%varavg| %total
---------------------------------------------------------------
Pair    | 63.294     | 64.299     | 65.823     |  11.3 | 80.81
Neigh   | 4.7442     | 4.7579     | 4.768      |   0.4 |  5.98
Comm    | 6.4183     | 7.9537     | 8.9856     |  32.3 | 10.00
Output  | 0.15859    | 0.15936    | 0.16275    |   0.4 |  0.20
Modify  | 1.7515     | 1.7698     | 1.789      |   1.2 |  2.22
Other   |            | 0.6278     |            |       |  0.79

Nlocal:        695.833 ave         704 max         687 min
Histogram: 1 0 0 0 2 1 0 1 0 1
Nghost:        1450.17 ave        1482 max        1425 min
Histogram: 1 0 2 0 0 2 0 0 0 1
Neighs:        0.00000 ave           0 max           0 min
Histogram: 6 0 0 0 0 0 0 0 0 0
FullNghs:      19245.7 ave       19643 max       18855 min
Histogram: 1 0 0 2 1 0 0 0 1 1

Total # of neighbors = 115474
Ave neighs/atom = 27.658443
Neighbor list builds = 5099
Dangerous builds = 0

undump              1
unfix               2
unfix               3
unfix               4


################################################
#######         Run Simulation         #########
################################################

reset_timestep      0
log                 log.run_${NAME}
log                 log.run_liquid_density_MLmW
